                         Program Version 6.0.0  -   RELEASE  -
|  1> ! r2SCAN-3c DEF2-TZVP FREQ
|  2> * xyzfile 0 1 censo.xyz
|  3>
|  4>                          ****END OF INPUT****

CARTESIAN COORDINATES (ANGSTROEM)
---------------------------------
  C     -2.175289    0.007767    0.000006
  C     -0.879219    0.815332    0.000026
  C      0.431775    0.000556   -0.000000
  C      1.604859    0.988634    0.000022
  C      0.522244   -0.880568   -1.251929
  C      0.522255   -0.880656    1.251860
  H     -2.257653   -0.630853    0.885533
  H     -3.041057    0.678480   -0.000337
  H     -2.257321   -0.631328   -0.885210
  H     -0.868429    1.474092    0.879391
  H     -0.868421    1.474134   -0.879306
  H      1.575573    1.633465   -0.886468
  H      2.563807    0.457625   -0.000037
  H      1.575624    1.633367    0.886584
  H      0.409564   -0.280886   -2.163225
  H      1.495122   -1.383676   -1.297096
  H     -0.251497   -1.655229   -1.257518
  H      1.494978   -1.384086    1.296784
  H     -0.251743   -1.655058    1.257579
  H      0.409975   -0.280981    2.163209

 Total Charge           Charge          ....    0
 Multiplicity           Mult            ....    1
 Number of Electrons    NEL             ....   50
 Basis Dimension        Dim             ....  270

ORBITAL ENERGIES
----------------

  NO   OCC          E(Eh)            E(eV)
   0   2.0000     -10.042474      -273.2696
   1   2.0000     -10.023130      -272.7432
   2   2.0000     -10.015884      -272.5461
   3   2.0000     -10.014319      -272.5035
   4   2.0000     -10.014316      -272.5034
   5   2.0000     -10.013858      -272.4909
   6   2.0000      -0.789616       -21.4866
   7   2.0000      -0.701527       -19.0895
   8   2.0000      -0.648056       -17.6345
   9   2.0000      -0.647983       -17.6325
  10   2.0000      -0.587894       -15.9974
  11   2.0000      -0.493366       -13.4252
  12   2.0000      -0.426204       -11.5976
  13   2.0000      -0.424753       -11.5581
  14   2.0000      -0.404852       -11.0166
  15   2.0000      -0.390165       -10.6169
  16   2.0000      -0.366630        -9.9765
  17   2.0000      -0.348625        -9.4866
  18   2.0000      -0.343721        -9.3531
  19   2.0000      -0.329450        -8.9648
  20   2.0000      -0.325742        -8.8639
  21   2.0000      -0.310706        -8.4547
  22   2.0000      -0.285888        -7.7794
  23   2.0000      -0.285372        -7.7654
  24   2.0000      -0.278686        -7.5834
  25   0.0000       0.033562         0.9133
  26   0.0000       0.072552         1.9742
  27   0.0000       0.085004         2.3131
  28   0.0000       0.086794         2.3618
  29   0.0000       0.093506         2.5444

MULLIKEN ATOMIC CHARGES
-----------------------
   0 C :   -0.360697
   1 C :   -0.139175
   2 C :    0.146870
   3 C :   -0.334637
   4 C :   -0.370571
   5 C :   -0.370563
   6 H :    0.107044
   7 H :    0.109404
   8 H :    0.107041
   9 H :    0.080410
  10 H :    0.080417
  11 H :    0.103271
  12 H :    0.102464
  13 H :    0.103270
  14 H :    0.105181
  15 H :    0.104224
  16 H :    0.108320
  17 H :    0.104224
  18 H :    0.108326
  19 H :    0.105175
Sum of atomic charges:   -0.0000000

LOEWDIN ATOMIC CHARGES
----------------------
   0 C :   -0.308930
   1 C :   -0.252017
   2 C :   -0.370634
   3 C :   -0.263739
   4 C :   -0.262720
   5 C :   -0.262716
   6 H :    0.117453
   7 H :    0.119050
   8 H :    0.117456
   9 H :    0.136491
  10 H :    0.136490
  11 H :    0.121405
  12 H :    0.120665
  13 H :    0.121404
  14 H :    0.122632
  15 H :    0.122466
  16 H :    0.120072
  17 H :    0.122467
  18 H :    0.120075
  19 H :    0.122630

  Mayer bond orders larger than 0.100000
B(  0-C ,  1-C ) :   0.9668 B(  0-C ,  6-H ) :   0.9759 B(  0-C ,  7-H ) :   0.9767
B(  0-C ,  8-H ) :   0.9759 B(  1-C ,  2-C ) :   0.9346 B(  1-C ,  9-H ) :   0.9667
B(  1-C , 10-H ) :   0.9667 B(  2-C ,  3-C ) :   0.9488 B(  2-C ,  4-C ) :   0.9539
B(  2-C ,  5-C ) :   0.9539 B(  3-C , 11-H ) :   0.9726 B(  3-C , 12-H ) :   0.9747
B(  3-C , 13-H ) :   0.9726 B(  4-C , 14-H ) :   0.9724 B(  4-C , 15-H ) :   0.9731
B(  4-C , 16-H ) :   0.9736 B(  5-C , 17-H ) :   0.9731 B(  5-C , 18-H ) :   0.9736
B(  5-C , 19-H ) :   0.9724

Dispersion correction           -0.005369474
FINAL SINGLE POINT ENERGY      -237.009220763966

DIPOLE MOMENT
-------------

Method             : SCF
Type of density    : Electron Density
Multiplicity       :   1
Irrep              :   0
Energy             :  -237.0136207583268515 Eh
Relativity type    :
Basis              : AO
                                X                 Y                 Z
Electronic contribution:      0.244193508       0.539728616       0.000061988
Nuclear contribution   :     -0.261724813      -0.525712652      -0.000064800
                        -----------------------------------------
Total Dipole Moment    :     -0.017531305       0.014015964      -0.000002812
                        -----------------------------------------
Magnitude (a.u.)       :      0.022445353
Magnitude (Debye)      :      0.057051555

VIBRATIONAL FREQUENCIES
-----------------------

Scaling factor for frequencies =  1.000000000  (already applied!)

     0:       0.00 cm**-1
     1:       0.00 cm**-1
     2:       0.00 cm**-1
     3:       0.00 cm**-1
     4:       0.00 cm**-1
     5:       0.00 cm**-1
     6:      94.93 cm**-1
     7:     226.93 cm**-1
     8:     264.18 cm**-1
     9:     275.49 cm**-1
    10:     297.38 cm**-1
    11:     309.51 cm**-1
    12:     343.69 cm**-1
    13:     364.64 cm**-1
    14:     414.76 cm**-1
    15:     425.48 cm**-1
    16:     487.76 cm**-1
    17:     715.00 cm**-1
    18:     789.58 cm**-1
    19:     878.29 cm**-1
    20:     937.04 cm**-1
    21:     937.07 cm**-1
    22:     955.78 cm**-1
    23:     998.44 cm**-1
    24:    1010.99 cm**-1
    25:    1028.65 cm**-1
    26:    1096.32 cm**-1
    27:    1103.36 cm**-1
    28:    1234.70 cm**-1
    29:    1243.70 cm**-1
    30:    1269.85 cm**-1
    31:    1332.38 cm**-1
    32:    1359.61 cm**-1
    33:    1387.02 cm**-1
    34:    1387.23 cm**-1
    35:    1403.31 cm**-1
    36:    1421.71 cm**-1
    37:    1469.30 cm**-1
    38:    1472.18 cm**-1
    39:    1478.09 cm**-1
    40:    1482.02 cm**-1
    41:    1497.61 cm**-1
    42:    1500.08 cm**-1
    43:    1505.16 cm**-1
    44:    1509.17 cm**-1
    45:    1515.69 cm**-1
    46:    2983.63 cm**-1
    47:    2988.59 cm**-1
    48:    2991.89 cm**-1
    49:    2998.24 cm**-1
    50:    3008.07 cm**-1
    51:    3025.49 cm**-1
    52:    3065.17 cm**-1
    53:    3065.92 cm**-1
    54:    3067.68 cm**-1
    55:    3071.41 cm**-1
    56:    3075.65 cm**-1
    57:    3076.40 cm**-1
    58:    3082.39 cm**-1
    59:    3087.95 cm**-1

IR SPECTRUM
-----------

 Mode   freq       eps      Int      T**2         TX        TY        TZ
       cm**-1   L/(mol*cm) km/mol    a.u.
----------------------------------------------------------------------------
  6:     94.93   0.000000    0.00  0.000000  (-0.000001  0.000002  0.000632)
  7:    226.93   0.000002    0.01  0.000003  ( 0.000001 -0.000003 -0.001824)
  8:    264.18   0.000006    0.03  0.000007  ( 0.001002 -0.002456 -0.000001)
  9:    275.49   0.000001    0.00  0.000001  (-0.000002 -0.000000  0.000827)
 10:    297.38   0.000010    0.05  0.000010  ( 0.002885 -0.001320 -0.000002)
 11:    309.51   0.000000    0.00  0.000000  (-0.000008  0.000002 -0.000375)
 12:    343.69   0.000001    0.01  0.000001  (-0.000002  0.000001 -0.001095)
 13:    364.64   0.000003    0.02  0.000003  (-0.001323  0.000940 -0.000001)
 14:    414.76   0.000013    0.07  0.000010  (-0.002121  0.002351 -0.000001)
 15:    425.48   0.000017    0.08  0.000012  (-0.000001  0.000000  0.003505)
 16:    487.76   0.000053    0.27  0.000034  (-0.004266  0.003979  0.000000)
 17:    715.00   0.000055    0.28  0.000024  ( 0.004216 -0.002493 -0.000001)
 18:    789.58   0.000442    2.23  0.000175  ( 0.000003 -0.000000 -0.013217)
 19:    878.29   0.000035    0.17  0.000012  (-0.001486 -0.003171 -0.000002)
 20:    937.04   0.000012    0.06  0.000004  ( 0.000120  0.000031 -0.001963)
 21:    937.07   0.000156    0.79  0.000052  (-0.006991 -0.001715 -0.000034)
 22:    955.78   0.000005    0.02  0.000001  ( 0.000000  0.000001  0.001222)
 23:    998.44   0.000142    0.72  0.000044  (-0.000008  0.000004  0.006654)
 24:   1010.99   0.000509    2.57  0.000157  ( 0.008504 -0.009209  0.000000)
 25:   1028.65   0.000446    2.26  0.000135  (-0.010285  0.005447 -0.000002)
 26:   1096.32   0.000370    1.87  0.000105  ( 0.004479 -0.009231 -0.000003)
 27:   1103.36   0.000044    0.22  0.000013  (-0.000002  0.000003 -0.003547)
 28:   1234.70   0.001407    7.11  0.000356  ( 0.018048  0.005459  0.000000)
 29:   1243.70   0.000354    1.79  0.000089  (-0.000002 -0.000001  0.009421)
 30:   1269.85   0.000630    3.18  0.000155  ( 0.009285 -0.008278 -0.000001)
 31:   1332.38   0.000129    0.65  0.000030  ( 0.000000  0.000001 -0.005497)
 32:   1359.61   0.000009    0.04  0.000002  ( 0.001380 -0.000317  0.000001)
 33:   1387.02   0.001423    7.19  0.000320  ( 0.004299  0.017371 -0.000111)
 34:   1387.23   0.002035   10.28  0.000458  (-0.000022 -0.000087 -0.021393)
 35:   1403.31   0.001515    7.66  0.000337  ( 0.017244  0.006293  0.000003)
 36:   1421.71   0.000917    4.63  0.000201  ( 0.011965 -0.007623 -0.000002)
 37:   1469.30   0.000003    0.02  0.000001  (-0.000677 -0.000416 -0.000000)
 38:   1472.18   0.000040    0.20  0.000009  (-0.000001 -0.000001 -0.002923)
 39:   1478.09   0.000038    0.19  0.000008  (-0.000001 -0.000004 -0.002830)
 40:   1482.02   0.000051    0.26  0.000011  ( 0.001247  0.003024  0.000000)
 41:   1497.61   0.002701   13.65  0.000563  ( 0.000006 -0.000015  0.023725)
 42:   1500.08   0.001582    7.99  0.000329  (-0.003062  0.017880  0.000022)
 43:   1505.16   0.001635    8.26  0.000339  ( 0.017635  0.005299 -0.000001)
 44:   1509.17   0.000010    0.05  0.000002  ( 0.000004 -0.000020 -0.001439)
 45:   1515.69   0.002860   14.45  0.000589  ( 0.016322 -0.017956  0.000000)
 46:   2983.63   0.005914   29.89  0.000619  (-0.005291  0.024302  0.000004)
 47:   2988.59   0.009027   45.62  0.000943  (-0.014899 -0.026843 -0.000015)
 48:   2991.89   0.009291   46.95  0.000969  ( 0.000011  0.000015 -0.031130)
 49:   2998.24   0.002619   13.24  0.000273  ( 0.016491 -0.000801  0.000014)
 50:   3008.07   0.005727   28.94  0.000594  ( 0.022066  0.010357 -0.000002)
 51:   3025.49   0.003430   17.34  0.000354  ( 0.000003  0.000000 -0.018810)
 52:   3065.17   0.000033    0.17  0.000003  ( 0.000020 -0.000019 -0.001846)
 53:   3065.92   0.000436    2.20  0.000044  ( 0.005206 -0.004150  0.000027)
 54:   3067.68   0.007674   38.78  0.000781  (-0.000014  0.000017 -0.027940)
 55:   3071.41   0.012504   63.19  0.001270  (-0.021845  0.028165  0.000016)
 56:   3075.65   0.005611   28.35  0.000569  ( 0.000076 -0.000019 -0.023859)
 57:   3076.40   0.012888   65.13  0.001307  (-0.033298  0.014094 -0.000053)
 58:   3082.39   0.011410   57.66  0.001155  ( 0.017041  0.029408  0.000012)
 59:   3087.95   0.006735   34.04  0.000681  (-0.000010  0.000001  0.026089)

--------------------------
THERMOCHEMISTRY AT 298.15K
--------------------------

Temperature         ...   298.15 K
Pressure            ...     1.00 atm
Total Mass          ...    86.18 AMU
Quasi RRHO          ...     True
Cut-Off Frequency   ...     1.00 cm^-1

Throughout the following assumptions are being made:
  (1) The electronic state is orbitally nondegenerate
  (2) There are no thermally accessible electronically excited states
  (3) Hindered rotations indicated by low frequency modes are not
      treated as such but are treated as vibrations and this may
      cause some error
  (4) All equations used are the standard statistical mechanics
      equations for an ideal gas
  (5) All vibrations are strictly harmonic

freq.      94.93  E(vib)   ...       0.47
freq.     226.93  E(vib)   ...       0.33
freq.     264.18  E(vib)   ...       0.29
freq.     275.49  E(vib)   ...       0.28
freq.     297.38  E(vib)   ...       0.27
freq.     309.51  E(vib)   ...       0.26
freq.     343.69  E(vib)   ...       0.23
freq.     364.64  E(vib)   ...       0.22
freq.     414.76  E(vib)   ...       0.19
freq.     425.48  E(vib)   ...       0.18
freq.     487.76  E(vib)   ...       0.15
freq.     715.00  E(vib)   ...       0.07
freq.     789.58  E(vib)   ...       0.05
freq.     878.29  E(vib)   ...       0.04
freq.     937.04  E(vib)   ...       0.03
freq.     937.07  E(vib)   ...       0.03
freq.     955.78  E(vib)   ...       0.03
freq.     998.44  E(vib)   ...       0.02
freq.    1010.99  E(vib)   ...       0.02
freq.    1028.65  E(vib)   ...       0.02
freq.    1096.32  E(vib)   ...       0.02
freq.    1103.36  E(vib)   ...       0.02
freq.    1234.70  E(vib)   ...       0.01
freq.    1243.70  E(vib)   ...       0.01
freq.    1269.85  E(vib)   ...       0.01
freq.    1332.38  E(vib)   ...       0.01
freq.    1359.61  E(vib)   ...       0.01
freq.    1387.02  E(vib)   ...       0.00
freq.    1387.23  E(vib)   ...       0.00
freq.    1403.31  E(vib)   ...       0.00
freq.    1421.71  E(vib)   ...       0.00
freq.    1469.30  E(vib)   ...       0.00
freq.    1472.18  E(vib)   ...       0.00
freq.    1478.09  E(vib)   ...       0.00
freq.    1482.02  E(vib)   ...       0.00
freq.    1497.61  E(vib)   ...       0.00
freq.    1500.08  E(vib)   ...       0.00
freq.    1505.16  E(vib)   ...       0.00
freq.    1509.17  E(vib)   ...       0.00
freq.    1515.69  E(vib)   ...       0.00
freq.    2983.63  E(vib)   ...       0.00
freq.    2988.59  E(vib)   ...       0.00
freq.    2991.89  E(vib)   ...       0.00
freq.    2998.24  E(vib)   ...       0.00
freq.    3008.07  E(vib)   ...       0.00
freq.    3025.49  E(vib)   ...       0.00
freq.    3065.17  E(vib)   ...       0.00
freq.    3065.92  E(vib)   ...       0.00
freq.    3067.68  E(vib)   ...       0.00
freq.    3071.41  E(vib)   ...       0.00
freq.    3075.65  E(vib)   ...       0.00
freq.    3076.40  E(vib)   ...       0.00
freq.    3082.39  E(vib)   ...       0.00
freq.    3087.95  E(vib)   ...       0.00

------------
INNER ENERGY
------------

The inner energy is: U= E(el) + E(ZPE) + E(vib) + E(rot) + E(trans)
    E(el)   - is the total energy from the electronic structure calculation
              = E(kin-el) + E(nuc-el) + E(el-el) + E(nuc-nuc)
    E(ZPE)  - the the zero temperature vibrational energy from the frequency calculation
    E(vib)  - the the finite temperature correction to E(ZPE) due to population
              of excited vibrational states
    E(rot)  - is the rotational thermal energy
    E(trans)- is the translational thermal energy

Summary of contributions to the inner energy U:
Electronic energy                ...   -237.00922076 Eh
Zero point energy                ...      0.18683842 Eh     117.24 kcal/mol
Thermal vibrational correction   ...      0.00521759 Eh       3.27 kcal/mol
Thermal rotational correction    ...      0.00141627 Eh       0.89 kcal/mol
Thermal translational correction ...      0.00141627 Eh       0.89 kcal/mol
-----------------------------------------------------------------------
Total thermal energy                   -236.81433221 Eh

Summary of corrections to the electronic energy:
(perhaps to be used in another calculation)
Total thermal correction                  0.00805013 Eh       5.05 kcal/mol
Non-thermal (ZPE) correction              0.18683842 Eh     117.24 kcal/mol
-----------------------------------------------------------------------
Total correction                          0.19488856 Eh     122.29 kcal/mol

--------
ENTHALPY
--------

The enthalpy is H = U + kB*T
                kB is Boltzmann's constant
Total thermal energy              ...   -236.81433221 Eh
Thermal Enthalpy correction       ...      0.00094421 Eh       0.59 kcal/mol
-----------------------------------------------------------------------
Total Enthalpy                    ...   -236.81338800 Eh

Note: Only C1 symmetry has been detected, increase convergence thresholds
      if your molecule has a higher symmetry. Symmetry factor of 1.0 is
      used for the rotational entropy correction.

Note: Rotational entropy computed according to Herzberg
Infrared and Raman Spectra, Chapter V,1, Van Nostrand Reinhold, 1945
Point Group:  C1, Symmetry Number:   1
Rotational constants in cm-1:     0.143447     0.083474     0.083166

Vibrational entropy computed according to the QRRHO of S. Grimme
Chem.Eur.J. 2012 18 9955 using a reference frequency of 100.0 cm-1

-------
ENTROPY
-------

The entropy contributions are T*S = T*(S(el)+S(vib)+S(rot)+S(trans))
     S(el)   - electronic entropy
     S(vib)  - vibrational entropy
     S(rot)  - rotational entropy
     S(trans)- translational entropy
The entropies will be listed as multiplied by the temperature to get
units of energy

Electronic entropy                ...      0.00000000 Eh      0.00 kcal/mol
Vibrational entropy               ...      0.00837517 Eh      5.26 kcal/mol
Rotational entropy                ...      0.01277386 Eh      8.02 kcal/mol
Translational entropy             ...      0.01866056 Eh     11.71 kcal/mol
-----------------------------------------------------------------------
Final entropy term                ...      0.03980960 Eh     24.98 kcal/mol

In case the symmetry of your molecule has not been determined correctly
or in case you have a reason to use a different symmetry number we print
out the resulting rotational entropy values for sn=1,12:

 non-linear molecules -----------------------------------
|  sn= 1 | S(rot)=       0.01277386 Eh      8.02 kcal/mol|
|  sn= 2 | S(rot)=       0.01211941 Eh      7.61 kcal/mol|
|  sn= 3 | S(rot)=       0.01173657 Eh      7.36 kcal/mol|
|  sn= 4 | S(rot)=       0.01146495 Eh      7.19 kcal/mol|
|  sn= 5 | S(rot)=       0.01125426 Eh      7.06 kcal/mol|
|  sn= 6 | S(rot)=       0.01108212 Eh      6.95 kcal/mol|

                             ****ORCA TERMINATED NORMALLY****
TOTAL RUN TIME: 0 days 0 hours 13 minutes 25 seconds 385 msec
