                         Program Version 6.0.0  -   RELEASE  -
|  1> ! r2SCAN-3c DEF2-TZVP FREQ
|  2> * xyzfile 0 1 vacuum_censo.xyz
|  3>
|  4>                          ****END OF INPUT****

CARTESIAN COORDINATES (ANGSTROEM)
---------------------------------
  C     -2.177817    0.008163    0.000160
  C     -0.879908    0.814377   -0.001020
  C      0.432038    0.000031   -0.000035
  C      1.605369    0.989430   -0.002682
  C      0.522488   -0.884050   -1.250935
  C      0.523825   -0.878824    1.254442
  H     -3.042646    0.678798    0.000230
  H     -2.260701   -0.630546   -0.884544
  H     -2.259793   -0.629578    0.885650
  H     -0.869051    1.475928    0.876139
  H     -0.869280    1.473522   -0.879991
  H      1.575834    1.631850   -0.890161
  H      2.564153    0.459245   -0.002006
  H      1.576678    1.635629    0.882083
  H     -0.250649   -1.658537   -1.254661
  H      0.410579   -0.286494   -2.163079
  H      1.494439   -1.387679   -1.295375
  H      1.495869   -1.382178    1.299988
  H     -0.249202   -1.653397    1.262249
  H      0.412813   -0.277480    2.164202

 Total Charge           Charge          ....    0
 Multiplicity           Mult            ....    1
 Number of Electrons    NEL             ....   50
 Basis Dimension        Dim             ....  270

ORBITAL ENERGIES
----------------

  NO   OCC          E(Eh)            E(eV)
   0   2.0000     -10.042778      -273.2779
   1   2.0000     -10.023179      -272.7446
   2   2.0000     -10.015766      -272.5428
   3   2.0000     -10.014198      -272.5002
   4   2.0000     -10.014195      -272.5001
   5   2.0000     -10.013747      -272.4879
   6   2.0000      -0.789244       -21.4764
   7   2.0000      -0.701442       -19.0872
   8   2.0000      -0.648110       -17.6360
   9   2.0000      -0.648033       -17.6339
  10   2.0000      -0.588042       -16.0014
  11   2.0000      -0.493487       -13.4285
  12   2.0000      -0.426017       -11.5925
  13   2.0000      -0.424557       -11.5528
  14   2.0000      -0.404805       -11.0153
  15   2.0000      -0.390099       -10.6151
  16   2.0000      -0.366699        -9.9784
  17   2.0000      -0.348695        -9.4885
  18   2.0000      -0.343797        -9.3552
  19   2.0000      -0.329620        -8.9694
  20   2.0000      -0.325722        -8.8633
  21   2.0000      -0.310747        -8.4559
  22   2.0000      -0.285782        -7.7765
  23   2.0000      -0.285325        -7.7641
  24   2.0000      -0.278797        -7.5864
  25   0.0000       0.033670         0.9162
  26   0.0000       0.072668         1.9774
  27   0.0000       0.085187         2.3180
  28   0.0000       0.086898         2.3646
  29   0.0000       0.093670         2.5489

MULLIKEN ATOMIC CHARGES
-----------------------
   0 C :   -0.360259
   1 C :   -0.140389
   2 C :    0.147236
   3 C :   -0.335172
   4 C :   -0.370702
   5 C :   -0.370676
   6 H :    0.109513
   7 H :    0.107040
   8 H :    0.106995
   9 H :    0.080579
  10 H :    0.080571
  11 H :    0.103379
  12 H :    0.102578
  13 H :    0.103393
  14 H :    0.108409
  15 H :    0.105270
  16 H :    0.104307
  17 H :    0.104304
  18 H :    0.108354
  19 H :    0.105270
Sum of atomic charges:   -0.0000000

LOEWDIN ATOMIC CHARGES
----------------------
   0 C :   -0.308682
   1 C :   -0.251937
   2 C :   -0.369070
   3 C :   -0.263677
   4 C :   -0.262679
   5 C :   -0.262683
   6 H :    0.118887
   7 H :    0.117328
   8 H :    0.117321
   9 H :    0.136358
  10 H :    0.136363
  11 H :    0.121231
  12 H :    0.120544
  13 H :    0.121238
  14 H :    0.119952
  15 H :    0.122501
  16 H :    0.122287
  17 H :    0.122289
  18 H :    0.119934
  19 H :    0.122497

  Mayer bond orders larger than 0.100000
B(  0-C ,  1-C ) :   0.9667 B(  0-C ,  6-H ) :   0.9767 B(  0-C ,  7-H ) :   0.9760
B(  0-C ,  8-H ) :   0.9760 B(  1-C ,  2-C ) :   0.9348 B(  1-C ,  9-H ) :   0.9668
B(  1-C , 10-H ) :   0.9668 B(  2-C ,  3-C ) :   0.9487 B(  2-C ,  4-C ) :   0.9539
B(  2-C ,  5-C ) :   0.9541 B(  3-C , 11-H ) :   0.9727 B(  3-C , 12-H ) :   0.9747
B(  3-C , 13-H ) :   0.9727 B(  4-C , 14-H ) :   0.9736 B(  4-C , 15-H ) :   0.9724
B(  4-C , 16-H ) :   0.9732 B(  5-C , 17-H ) :   0.9732 B(  5-C , 18-H ) :   0.9736
B(  5-C , 19-H ) :   0.9724

Dispersion correction           -0.005366895
FINAL SINGLE POINT ENERGY      -237.009225815742

DIPOLE MOMENT
-------------

Method             : SCF
Type of density    : Electron Density
Multiplicity       :   1
Irrep              :   0
Energy             :  -237.0136267975805708 Eh
Relativity type    :
Basis              : AO
                                X                 Y                 Z
Electronic contribution:      0.243034932       0.536113699      -0.000726769
Nuclear contribution   :     -0.260161711      -0.522151295       0.000695261
                        -----------------------------------------
Total Dipole Moment    :     -0.017126779       0.013962404      -0.000031508
                        -----------------------------------------
Magnitude (a.u.)       :      0.022096975
Magnitude (Debye)      :      0.056166046

VIBRATIONAL FREQUENCIES
-----------------------

Scaling factor for frequencies =  1.000000000  (already applied!)

     0:       0.00 cm**-1
     1:       0.00 cm**-1
     2:       0.00 cm**-1
     3:       0.00 cm**-1
     4:       0.00 cm**-1
     5:       0.00 cm**-1
     6:      87.59 cm**-1
     7:     215.82 cm**-1
     8:     262.17 cm**-1
     9:     266.85 cm**-1
    10:     289.73 cm**-1
    11:     302.58 cm**-1
    12:     341.82 cm**-1
    13:     363.21 cm**-1
    14:     413.30 cm**-1
    15:     424.11 cm**-1
    16:     486.25 cm**-1
    17:     713.22 cm**-1
    18:     787.30 cm**-1
    19:     875.68 cm**-1
    20:     934.39 cm**-1
    21:     934.60 cm**-1
    22:     953.48 cm**-1
    23:     996.20 cm**-1
    24:    1008.78 cm**-1
    25:    1026.75 cm**-1
    26:    1094.60 cm**-1
    27:    1101.55 cm**-1
    28:    1233.05 cm**-1
    29:    1242.25 cm**-1
    30:    1268.37 cm**-1
    31:    1331.46 cm**-1
    32:    1359.07 cm**-1
    33:    1385.43 cm**-1
    34:    1385.70 cm**-1
    35:    1401.76 cm**-1
    36:    1420.27 cm**-1
    37:    1469.30 cm**-1
    38:    1471.70 cm**-1
    39:    1477.30 cm**-1
    40:    1481.42 cm**-1
    41:    1497.06 cm**-1
    42:    1499.61 cm**-1
    43:    1504.49 cm**-1
    44:    1508.47 cm**-1
    45:    1514.87 cm**-1
    46:    2985.22 cm**-1
    47:    2993.57 cm**-1
    48:    2996.82 cm**-1
    49:    3002.97 cm**-1
    50:    3013.53 cm**-1
    51:    3025.88 cm**-1
    52:    3070.52 cm**-1
    53:    3071.07 cm**-1
    54:    3073.13 cm**-1
    55:    3076.57 cm**-1
    56:    3080.81 cm**-1
    57:    3082.47 cm**-1
    58:    3087.93 cm**-1
    59:    3093.02 cm**-1

IR SPECTRUM
-----------

 Mode   freq       eps      Int      T**2         TX        TY        TZ
       cm**-1   L/(mol*cm) km/mol    a.u.
----------------------------------------------------------------------------
  6:     87.59   0.000000    0.00  0.000000  ( 0.000002  0.000003 -0.000597)
  7:    215.82   0.000003    0.01  0.000004  ( 0.000001 -0.000001  0.001937)
  8:    262.17   0.000007    0.03  0.000008  (-0.001175  0.002554 -0.000002)
  9:    266.85   0.000001    0.00  0.000001  ( 0.000004 -0.000012 -0.000919)
 10:    289.73   0.000009    0.04  0.000009  (-0.002840  0.001088 -0.000003)
 11:    302.58   0.000000    0.00  0.000000  (-0.000028  0.000011  0.000387)
 12:    341.82   0.000001    0.01  0.000001  ( 0.000001  0.000004  0.001047)
 13:    363.21   0.000003    0.02  0.000003  ( 0.001302 -0.000991 -0.000008)
 14:    413.30   0.000012    0.06  0.000009  ( 0.002035 -0.002284  0.000007)
 15:    424.11   0.000016    0.08  0.000012  (-0.000002 -0.000008 -0.003425)
 16:    486.25   0.000054    0.27  0.000035  ( 0.004329 -0.004013  0.000009)
 17:    713.22   0.000055    0.28  0.000024  (-0.004214  0.002535 -0.000010)
 18:    787.30   0.000448    2.26  0.000178  ( 0.000004  0.000022  0.013327)
 19:    875.68   0.000035    0.18  0.000012  ( 0.001511  0.003196 -0.000003)
 20:    934.39   0.000153    0.77  0.000051  ( 0.006952  0.001673  0.000067)
 21:    934.60   0.000012    0.06  0.000004  (-0.000250 -0.000055  0.001962)
 22:    953.48   0.000005    0.02  0.000002  ( 0.000005 -0.000002 -0.001226)
 23:    996.20   0.000142    0.72  0.000044  (-0.000001 -0.000010 -0.006670)
 24:   1008.78   0.000501    2.53  0.000155  (-0.008380  0.009202 -0.000014)
 25:   1026.75   0.000460    2.33  0.000140  ( 0.010454 -0.005533  0.000005)
 26:   1094.60   0.000370    1.87  0.000106  (-0.004414  0.009276 -0.000018)
 27:   1101.55   0.000045    0.23  0.000013  (-0.000005  0.000021  0.003587)
 28:   1233.05   0.001433    7.24  0.000363  (-0.018225 -0.005529  0.000003)
 29:   1242.25   0.000368    1.86  0.000093  ( 0.000009 -0.000009 -0.009619)
 30:   1268.37   0.000658    3.33  0.000162  (-0.009495  0.008477 -0.000013)
 31:   1331.46   0.000136    0.69  0.000032  (-0.000002  0.000011  0.005641)
 32:   1359.07   0.000008    0.04  0.000002  (-0.001372  0.000247  0.000005)
 33:   1385.43   0.001412    7.14  0.000318  (-0.004264 -0.017316 -0.000275)
 34:   1385.70   0.002022   10.22  0.000455  (-0.000046 -0.000206  0.021337)
 35:   1401.76   0.001501    7.58  0.000334  (-0.017154 -0.006307  0.000025)
 36:   1420.27   0.000915    4.62  0.000201  (-0.011966  0.007605 -0.000022)
 37:   1469.30   0.000005    0.02  0.000001  ( 0.000703  0.000722  0.000006)
 38:   1471.70   0.000039    0.20  0.000008  ( 0.000007 -0.000006  0.002875)
 39:   1477.30   0.000040    0.20  0.000008  ( 0.000011 -0.000005  0.002892)
 40:   1481.42   0.000046    0.23  0.000010  (-0.001326 -0.002834  0.000008)
 41:   1497.06   0.002711   13.70  0.000565  (-0.000033 -0.000102 -0.023774)
 42:   1499.61   0.001560    7.88  0.000325  ( 0.003343 -0.017704  0.000118)
 43:   1504.49   0.001659    8.38  0.000344  (-0.017696 -0.005564  0.000071)
 44:   1508.47   0.000010    0.05  0.000002  ( 0.000062 -0.000121  0.001410)
 45:   1514.87   0.002865   14.48  0.000590  (-0.016232  0.018078 -0.000008)
 46:   2985.22   0.006769   34.21  0.000708  ( 0.003482 -0.026372  0.000040)
 47:   2993.57   0.008149   41.18  0.000850  ( 0.015417  0.024735 -0.000066)
 48:   2996.82   0.009310   47.05  0.000969  ( 0.000035  0.000076  0.031136)
 49:   3002.97   0.002543   12.85  0.000264  (-0.016107  0.002205  0.000013)
 50:   3013.53   0.005766   29.14  0.000597  (-0.021953 -0.010730  0.000024)
 51:   3025.88   0.003757   18.99  0.000387  ( 0.000003  0.000025  0.019684)
 52:   3070.52   0.000001    0.00  0.000000  ( 0.000070 -0.000033 -0.000219)
 53:   3071.07   0.000378    1.91  0.000038  (-0.004953  0.003726 -0.000066)
 54:   3073.13   0.007560   38.21  0.000768  (-0.000091  0.000139  0.027707)
 55:   3076.57   0.013626   68.86  0.001382  ( 0.023101 -0.029129  0.000122)
 56:   3080.81   0.005601   28.31  0.000567  ( 0.000322  0.000025  0.023817)
 57:   3082.47   0.012366   62.49  0.001252  ( 0.034128 -0.009334 -0.000202)
 58:   3087.93   0.010751   54.33  0.001087  (-0.013403 -0.030114  0.000121)
 59:   3093.02   0.006476   32.73  0.000653  (-0.000041 -0.000045 -0.025561)

--------------------------
THERMOCHEMISTRY AT 298.15K
--------------------------

Temperature         ...   298.15 K
Pressure            ...     1.00 atm
Total Mass          ...    86.18 AMU
Quasi RRHO          ...     True
Cut-Off Frequency   ...     1.00 cm^-1

Throughout the following assumptions are being made:
  (1) The electronic state is orbitally nondegenerate
  (2) There are no thermally accessible electronically excited states
  (3) Hindered rotations indicated by low frequency modes are not
      treated as such but are treated as vibrations and this may
      cause some error
  (4) All equations used are the standard statistical mechanics
      equations for an ideal gas
  (5) All vibrations are strictly harmonic

freq.      87.59  E(vib)   ...       0.48
freq.     215.82  E(vib)   ...       0.34
freq.     262.17  E(vib)   ...       0.29
freq.     266.85  E(vib)   ...       0.29
freq.     289.73  E(vib)   ...       0.27
freq.     302.58  E(vib)   ...       0.26
freq.     341.82  E(vib)   ...       0.23
freq.     363.21  E(vib)   ...       0.22
freq.     413.30  E(vib)   ...       0.19
freq.     424.11  E(vib)   ...       0.18
freq.     486.25  E(vib)   ...       0.15
freq.     713.22  E(vib)   ...       0.07
freq.     787.30  E(vib)   ...       0.05
freq.     875.68  E(vib)   ...       0.04
freq.     934.39  E(vib)   ...       0.03
freq.     934.60  E(vib)   ...       0.03
freq.     953.48  E(vib)   ...       0.03
freq.     996.20  E(vib)   ...       0.02
freq.    1008.78  E(vib)   ...       0.02
freq.    1026.75  E(vib)   ...       0.02
freq.    1094.60  E(vib)   ...       0.02
freq.    1101.55  E(vib)   ...       0.02
freq.    1233.05  E(vib)   ...       0.01
freq.    1242.25  E(vib)   ...       0.01
freq.    1268.37  E(vib)   ...       0.01
freq.    1331.46  E(vib)   ...       0.01
freq.    1359.07  E(vib)   ...       0.01
freq.    1385.43  E(vib)   ...       0.00
freq.    1385.70  E(vib)   ...       0.00
freq.    1401.76  E(vib)   ...       0.00
freq.    1420.27  E(vib)   ...       0.00
freq.    1469.30  E(vib)   ...       0.00
freq.    1471.70  E(vib)   ...       0.00
freq.    1477.30  E(vib)   ...       0.00
freq.    1481.42  E(vib)   ...       0.00
freq.    1497.06  E(vib)   ...       0.00
freq.    1499.61  E(vib)   ...       0.00
freq.    1504.49  E(vib)   ...       0.00
freq.    1508.47  E(vib)   ...       0.00
freq.    1514.87  E(vib)   ...       0.00
freq.    2985.22  E(vib)   ...       0.00
freq.    2993.57  E(vib)   ...       0.00
freq.    2996.82  E(vib)   ...       0.00
freq.    3002.97  E(vib)   ...       0.00
freq.    3013.53  E(vib)   ...       0.00
freq.    3025.88  E(vib)   ...       0.00
freq.    3070.52  E(vib)   ...       0.00
freq.    3071.07  E(vib)   ...       0.00
freq.    3073.13  E(vib)   ...       0.00
freq.    3076.57  E(vib)   ...       0.00
freq.    3080.81  E(vib)   ...       0.00
freq.    3082.47  E(vib)   ...       0.00
freq.    3087.93  E(vib)   ...       0.00
freq.    3093.02  E(vib)   ...       0.00

------------
INNER ENERGY
------------

The inner energy is: U= E(el) + E(ZPE) + E(vib) + E(rot) + E(trans)
    E(el)   - is the total energy from the electronic structure calculation
              = E(kin-el) + E(nuc-el) + E(el-el) + E(nuc-nuc)
    E(ZPE)  - the the zero temperature vibrational energy from the frequency calculation
    E(vib)  - the the finite temperature correction to E(ZPE) due to population
              of excited vibrational states
    E(rot)  - is the rotational thermal energy
    E(trans)- is the translational thermal energy

Summary of contributions to the inner energy U:
Electronic energy                ...   -237.00922582 Eh
Zero point energy                ...      0.18677566 Eh     117.20 kcal/mol
Thermal vibrational correction   ...      0.00529357 Eh       3.32 kcal/mol
Thermal rotational correction    ...      0.00141627 Eh       0.89 kcal/mol
Thermal translational correction ...      0.00141627 Eh       0.89 kcal/mol
-----------------------------------------------------------------------
Total thermal energy                   -236.81432404 Eh

Summary of corrections to the electronic energy:
(perhaps to be used in another calculation)
Total thermal correction                  0.00812611 Eh       5.10 kcal/mol
Non-thermal (ZPE) correction              0.18677566 Eh     117.20 kcal/mol
-----------------------------------------------------------------------
Total correction                          0.19490177 Eh     122.30 kcal/mol

--------
ENTHALPY
--------

The enthalpy is H = U + kB*T
                kB is Boltzmann's constant
Total thermal energy              ...   -236.81432404 Eh
Thermal Enthalpy correction       ...      0.00094421 Eh       0.59 kcal/mol
-----------------------------------------------------------------------
Total Enthalpy                    ...   -236.81337983 Eh

Note: Only C1 symmetry has been detected, increase convergence thresholds
      if your molecule has a higher symmetry. Symmetry factor of 1.0 is
      used for the rotational entropy correction.

Note: Rotational entropy computed according to Herzberg
Infrared and Raman Spectra, Chapter V,1, Van Nostrand Reinhold, 1945
Point Group:  C1, Symmetry Number:   1
Rotational constants in cm-1:     0.143317     0.083354     0.083047

Vibrational entropy computed according to the QRRHO of S. Grimme
Chem.Eur.J. 2012 18 9955 using a reference frequency of 100.0 cm-1

-------
ENTROPY
-------

The entropy contributions are T*S = T*(S(el)+S(vib)+S(rot)+S(trans))
     S(el)   - electronic entropy
     S(vib)  - vibrational entropy
     S(rot)  - rotational entropy
     S(trans)- translational entropy
The entropies will be listed as multiplied by the temperature to get
units of energy

Electronic entropy                ...      0.00000000 Eh      0.00 kcal/mol
Vibrational entropy               ...      0.00853722 Eh      5.36 kcal/mol
Rotational entropy                ...      0.01277564 Eh      8.02 kcal/mol
Translational entropy             ...      0.01866056 Eh     11.71 kcal/mol
-----------------------------------------------------------------------
Final entropy term                ...      0.03997343 Eh     25.08 kcal/mol

In case the symmetry of your molecule has not been determined correctly
or in case you have a reason to use a different symmetry number we print
out the resulting rotational entropy values for sn=1,12:

 non-linear molecules -----------------------------------
|  sn= 1 | S(rot)=       0.01277564 Eh      8.02 kcal/mol|
|  sn= 2 | S(rot)=       0.01212119 Eh      7.61 kcal/mol|
|  sn= 3 | S(rot)=       0.01173836 Eh      7.37 kcal/mol|
|  sn= 4 | S(rot)=       0.01146673 Eh      7.20 kcal/mol|
|  sn= 5 | S(rot)=       0.01125604 Eh      7.06 kcal/mol|
|  sn= 6 | S(rot)=       0.01108390 Eh      6.96 kcal/mol|

                             ****ORCA TERMINATED NORMALLY****
TOTAL RUN TIME: 0 days 0 hours 13 minutes 37 seconds 180 msec
