                         Program Version 6.0.0  -   RELEASE  -
|  1> ! r2SCAN-3c DEF2-TZVP FREQ
|  2> * xyzfile 0 1 censo.xyz
|  3>
|  4>                          ****END OF INPUT****

CARTESIAN COORDINATES (ANGSTROEM)
---------------------------------
  C     -1.289358   -0.566221   -0.000055
  C     -1.103497    0.810419   -0.000081
  C      0.154399    1.400113   -0.000095
  C      1.253815    0.550874   -0.000071
  C      1.134821   -0.833130   -0.000034
  C     -0.150089   -1.360785   -0.000034
  Cl    -0.341681   -3.103276    0.000016
  Cl     2.860137    1.253480   -0.000071
  Cl    -2.516807    1.847548   -0.000121
  H     -2.280325   -1.001256   -0.000050
  H      0.271668    2.476158   -0.000111
  H      2.007147   -1.473919   -0.000013

 Total Charge           Charge          ....    0
 Multiplicity           Mult            ....    1
 Number of Electrons    NEL             ....   90
 Basis Dimension        Dim             ....  315

ORBITAL ENERGIES
----------------

  NO   OCC          E(Eh)            E(eV)
   0   2.0000    -101.209059     -2754.0385
   1   2.0000    -101.209052     -2754.0383
   2   2.0000    -101.209047     -2754.0382
   3   2.0000     -10.129592      -275.6402
   4   2.0000     -10.129563      -275.6394
   5   2.0000     -10.129522      -275.6383
   6   2.0000     -10.073724      -274.1200
   7   2.0000     -10.073644      -274.1178
   8   2.0000     -10.073615      -274.1170
   9   2.0000      -9.384906      -255.3763
  10   2.0000      -9.384903      -255.3762
  11   2.0000      -9.384899      -255.3761
  12   2.0000      -7.129892      -194.0142
  13   2.0000      -7.129888      -194.0141
  14   2.0000      -7.129885      -194.0140
  15   2.0000      -7.119875      -193.7416
  16   2.0000      -7.119868      -193.7415
  17   2.0000      -7.119868      -193.7414
  18   2.0000      -7.119367      -193.7278
  19   2.0000      -7.119364      -193.7277
  20   2.0000      -7.119361      -193.7277
  21   2.0000      -0.898168       -24.4404
  22   2.0000      -0.851720       -23.1765
  23   2.0000      -0.851674       -23.1752
  24   2.0000      -0.788979       -21.4692
  25   2.0000      -0.725918       -19.7532
  26   2.0000      -0.725831       -19.7509
  27   2.0000      -0.594882       -16.1876
  28   2.0000      -0.594819       -16.1858
  29   2.0000      -0.514546       -14.0015
  30   2.0000      -0.485862       -13.2210
  31   2.0000      -0.458185       -12.4678
  32   2.0000      -0.431039       -11.7292
  33   2.0000      -0.430959       -11.7270
  34   2.0000      -0.413456       -11.2507
  35   2.0000      -0.375224       -10.2104
  36   2.0000      -0.375209       -10.2100
  37   2.0000      -0.353963        -9.6318
  38   2.0000      -0.353943        -9.6313
  39   2.0000      -0.308063        -8.3828
  40   2.0000      -0.308044        -8.3823
  41   2.0000      -0.296082        -8.0568
  42   2.0000      -0.295733        -8.0473
  43   2.0000      -0.249554        -6.7907
  44   2.0000      -0.249497        -6.7892
  45   0.0000      -0.070111        -1.9078
  46   0.0000      -0.070098        -1.9075
  47   0.0000      -0.048834        -1.3288
  48   0.0000       0.008955         0.2437
  49   0.0000       0.009041         0.2460

MULLIKEN ATOMIC CHARGES
-----------------------
   0 C :   -0.263515
   1 C :    0.214985
   2 C :   -0.263562
   3 C :    0.214282
   4 C :   -0.262881
   5 C :    0.214574
   6 Cl:   -0.094967
   7 Cl:   -0.094990
   8 Cl:   -0.095020
   9 H :    0.143657
  10 H :    0.143748
  11 H :    0.143689
Sum of atomic charges:    0.0000000

LOEWDIN ATOMIC CHARGES
----------------------
   0 C :   -0.146506
   1 C :   -0.406628
   2 C :   -0.146339
   3 C :   -0.406482
   4 C :   -0.146592
   5 C :   -0.406795
   6 Cl:    0.397434
   7 Cl:    0.397160
   8 Cl:    0.397379
   9 H :    0.155766
  10 H :    0.155807
  11 H :    0.155796

  Mayer bond orders larger than 0.100000
B(  0-C ,  1-C ) :   1.3264 B(  0-C ,  5-C ) :   1.3263 B(  0-C ,  9-H ) :   0.9701
B(  1-C ,  2-C ) :   1.3265 B(  1-C ,  8-Cl) :   0.9852 B(  2-C ,  3-C ) :   1.3265
B(  2-C , 10-H ) :   0.9700 B(  3-C ,  4-C ) :   1.3263 B(  3-C ,  7-Cl) :   0.9854
B(  4-C ,  5-C ) :   1.3264 B(  4-C , 11-H ) :   0.9701 B(  5-C ,  6-Cl) :   0.9852

Dispersion correction           -0.005420707
FINAL SINGLE POINT ENERGY     -1610.956547953962

DIPOLE MOMENT
-------------

Method             : SCF
Type of density    : Electron Density
Multiplicity       :   1
Irrep              :   0
Energy             : -1610.9573349873637653 Eh
Relativity type    :
Basis              : AO
                                X                 Y                 Z
Electronic contribution:      0.002643639      -0.003021358       0.000001865
Nuclear contribution   :     -0.003243525       0.003516468       0.000000004
                        -----------------------------------------
Total Dipole Moment    :     -0.000599886       0.000495111       0.000001869
                        -----------------------------------------
Magnitude (a.u.)       :      0.000777819
Magnitude (Debye)      :      0.001977058

VIBRATIONAL FREQUENCIES
-----------------------

Scaling factor for frequencies =  1.000000000  (already applied!)

     0:       0.00 cm**-1
     1:       0.00 cm**-1
     2:       0.00 cm**-1
     3:       0.00 cm**-1
     4:       0.00 cm**-1
     5:       0.00 cm**-1
     6:     145.33 cm**-1
     7:     194.19 cm**-1
     8:     194.72 cm**-1
     9:     207.67 cm**-1
    10:     208.20 cm**-1
    11:     367.46 cm**-1
    12:     427.53 cm**-1
    13:     427.75 cm**-1
    14:     452.13 cm**-1
    15:     546.95 cm**-1
    16:     547.10 cm**-1
    17:     682.59 cm**-1
    18:     786.62 cm**-1
    19:     787.34 cm**-1
    20:     861.91 cm**-1
    21:     868.46 cm**-1
    22:     868.63 cm**-1
    23:    1015.20 cm**-1
    24:    1112.96 cm**-1
    25:    1113.13 cm**-1
    26:    1128.46 cm**-1
    27:    1263.07 cm**-1
    28:    1342.26 cm**-1
    29:    1434.66 cm**-1
    30:    1434.82 cm**-1
    31:    1592.98 cm**-1
    32:    1593.73 cm**-1
    33:    3212.63 cm**-1
    34:    3213.63 cm**-1
    35:    3214.63 cm**-1

IR SPECTRUM
-----------

 Mode   freq       eps      Int      T**2         TX        TY        TZ
       cm**-1   L/(mol*cm) km/mol    a.u.
----------------------------------------------------------------------------
  6:    145.33   0.000019    0.10  0.000042  (-0.000001  0.000004  0.006443)
  7:    194.19   0.000014    0.07  0.000022  (-0.002951  0.003635 -0.000000)
  8:    194.72   0.000013    0.06  0.000020  ( 0.003381  0.002954 -0.000000)
  9:    207.67   0.000000    0.00  0.000000  ( 0.000001 -0.000001 -0.000044)
 10:    208.20   0.000000    0.00  0.000000  (-0.000001 -0.000000  0.000090)
 11:    367.46   0.000000    0.00  0.000000  ( 0.000305  0.000036  0.000000)
 12:    427.53   0.001886    9.53  0.001377  (-0.007152 -0.036410  0.000001)
 13:    427.75   0.001871    9.45  0.001365  (-0.036274  0.007007 -0.000000)
 14:    452.13   0.000000    0.00  0.000000  ( 0.000133 -0.000393  0.000000)
 15:    546.95   0.000000    0.00  0.000000  ( 0.000005 -0.000001 -0.000098)
 16:    547.10   0.000000    0.00  0.000000  ( 0.000001  0.000004 -0.000019)
 17:    682.59   0.003088   15.61  0.001412  (-0.000001  0.000006 -0.037574)
 18:    786.62   0.018886   95.44  0.007492  (-0.071586 -0.048658  0.000001)
 19:    787.34   0.018829   95.15  0.007463  (-0.048484  0.071499 -0.000003)
 20:    861.91   0.008561   43.27  0.003100  ( 0.000000  0.000002  0.055675)
 21:    868.46   0.000004    0.02  0.000001  (-0.000000 -0.000001 -0.001173)
 22:    868.63   0.000001    0.01  0.000000  (-0.000000  0.000000 -0.000674)
 23:   1015.20   0.000000    0.00  0.000000  ( 0.000033  0.000032 -0.000000)
 24:   1112.96   0.003655   18.47  0.001025  ( 0.027822 -0.015838  0.000001)
 25:   1113.13   0.003643   18.41  0.001021  (-0.015892 -0.027729  0.000001)
 26:   1128.46   0.000000    0.00  0.000000  ( 0.000018 -0.000363  0.000000)
 27:   1263.07   0.000000    0.00  0.000000  ( 0.000029  0.000218  0.000000)
 28:   1342.26   0.000000    0.00  0.000000  (-0.000028  0.000214  0.000000)
 29:   1434.66   0.011034   55.76  0.002400  ( 0.005129  0.048721 -0.000001)
 30:   1434.82   0.010987   55.52  0.002390  ( 0.048615 -0.005120  0.000000)
 31:   1592.98   0.026250  132.66  0.005142  (-0.041875  0.058214 -0.000002)
 32:   1593.73   0.026269  132.75  0.005144  (-0.058214 -0.041890  0.000001)
 33:   3212.63   0.000633    3.20  0.000062  ( 0.000458  0.007830 -0.000000)
 34:   3213.63   0.000608    3.07  0.000059  (-0.007407  0.002034 -0.000000)
 35:   3214.63   0.000290    1.46  0.000028  ( 0.004534  0.002749 -0.000000)

--------------------------
THERMOCHEMISTRY AT 298.15K
--------------------------

Temperature         ...   298.15 K
Pressure            ...     1.00 atm
Total Mass          ...   181.45 AMU
Quasi RRHO          ...     True
Cut-Off Frequency   ...     1.00 cm^-1

Throughout the following assumptions are being made:
  (1) The electronic state is orbitally nondegenerate
  (2) There are no thermally accessible electronically excited states
  (3) Hindered rotations indicated by low frequency modes are not
      treated as such but are treated as vibrations and this may
      cause some error
  (4) All equations used are the standard statistical mechanics
      equations for an ideal gas
  (5) All vibrations are strictly harmonic

freq.     145.33  E(vib)   ...       0.41
freq.     194.19  E(vib)   ...       0.36
freq.     194.72  E(vib)   ...       0.36
freq.     207.67  E(vib)   ...       0.34
freq.     208.20  E(vib)   ...       0.34
freq.     367.46  E(vib)   ...       0.21
freq.     427.53  E(vib)   ...       0.18
freq.     427.75  E(vib)   ...       0.18
freq.     452.13  E(vib)   ...       0.16
freq.     546.95  E(vib)   ...       0.12
freq.     547.10  E(vib)   ...       0.12
freq.     682.59  E(vib)   ...       0.08
freq.     786.62  E(vib)   ...       0.05
freq.     787.34  E(vib)   ...       0.05
freq.     861.91  E(vib)   ...       0.04
freq.     868.46  E(vib)   ...       0.04
freq.     868.63  E(vib)   ...       0.04
freq.    1015.20  E(vib)   ...       0.02
freq.    1112.96  E(vib)   ...       0.01
freq.    1113.13  E(vib)   ...       0.01
freq.    1128.46  E(vib)   ...       0.01
freq.    1263.07  E(vib)   ...       0.01
freq.    1342.26  E(vib)   ...       0.01
freq.    1434.66  E(vib)   ...       0.00
freq.    1434.82  E(vib)   ...       0.00
freq.    1592.98  E(vib)   ...       0.00
freq.    1593.73  E(vib)   ...       0.00
freq.    3212.63  E(vib)   ...       0.00
freq.    3213.63  E(vib)   ...       0.00
freq.    3214.63  E(vib)   ...       0.00

------------
INNER ENERGY
------------

The inner energy is: U= E(el) + E(ZPE) + E(vib) + E(rot) + E(trans)
    E(el)   - is the total energy from the electronic structure calculation
              = E(kin-el) + E(nuc-el) + E(el-el) + E(nuc-nuc)
    E(ZPE)  - the the zero temperature vibrational energy from the frequency calculation
    E(vib)  - the the finite temperature correction to E(ZPE) due to population
              of excited vibrational states
    E(rot)  - is the rotational thermal energy
    E(trans)- is the translational thermal energy

Summary of contributions to the inner energy U:
Electronic energy                ...  -1610.95654795 Eh
Zero point energy                ...      0.07118536 Eh      44.67 kcal/mol
Thermal vibrational correction   ...      0.00505647 Eh       3.17 kcal/mol
Thermal rotational correction    ...      0.00141627 Eh       0.89 kcal/mol
Thermal translational correction ...      0.00141627 Eh       0.89 kcal/mol
-----------------------------------------------------------------------
Total thermal energy                  -1610.87747358 Eh

Summary of corrections to the electronic energy:
(perhaps to be used in another calculation)
Total thermal correction                  0.00788901 Eh       4.95 kcal/mol
Non-thermal (ZPE) correction              0.07118536 Eh      44.67 kcal/mol
-----------------------------------------------------------------------
Total correction                          0.07907437 Eh      49.62 kcal/mol

--------
ENTHALPY
--------

The enthalpy is H = U + kB*T
                kB is Boltzmann's constant
Total thermal energy              ...  -1610.87747358 Eh
Thermal Enthalpy correction       ...      0.00094421 Eh       0.59 kcal/mol
-----------------------------------------------------------------------
Total Enthalpy                    ...  -1610.87652937 Eh

Note: Rotational entropy computed according to Herzberg
Infrared and Raman Spectra, Chapter V,1, Van Nostrand Reinhold, 1945
Point Group:  Cs, Symmetry Number:   1
Rotational constants in cm-1:     0.028237     0.028207     0.014111

Vibrational entropy computed according to the QRRHO of S. Grimme
Chem.Eur.J. 2012 18 9955 using a reference frequency of 100.0 cm-1

-------
ENTROPY
-------

The entropy contributions are T*S = T*(S(el)+S(vib)+S(rot)+S(trans))
     S(el)   - electronic entropy
     S(vib)  - vibrational entropy
     S(rot)  - rotational entropy
     S(trans)- translational entropy
The entropies will be listed as multiplied by the temperature to get
units of energy

Electronic entropy                ...      0.00000000 Eh      0.00 kcal/mol
Vibrational entropy               ...      0.00832305 Eh      5.22 kcal/mol
Rotational entropy                ...      0.01489080 Eh      9.34 kcal/mol
Translational entropy             ...      0.01971506 Eh     12.37 kcal/mol
-----------------------------------------------------------------------
Final entropy term                ...      0.04292891 Eh     26.94 kcal/mol

In case the symmetry of your molecule has not been determined correctly
or in case you have a reason to use a different symmetry number we print
out the resulting rotational entropy values for sn=1,12:

 non-linear molecules -----------------------------------
|  sn= 1 | S(rot)=       0.01489080 Eh      9.34 kcal/mol|
|  sn= 2 | S(rot)=       0.01423634 Eh      8.93 kcal/mol|
|  sn= 3 | S(rot)=       0.01385351 Eh      8.69 kcal/mol|
|  sn= 4 | S(rot)=       0.01358188 Eh      8.52 kcal/mol|
|  sn= 5 | S(rot)=       0.01337119 Eh      8.39 kcal/mol|
|  sn= 6 | S(rot)=       0.01319905 Eh      8.28 kcal/mol|
|  sn= 7 | S(rot)=       0.01305350 Eh      8.19 kcal/mol|
|  sn= 8 | S(rot)=       0.01292743 Eh      8.11 kcal/mol|
|  sn= 9 | S(rot)=       0.01281622 Eh      8.04 kcal/mol|
|  sn=10 | S(rot)=       0.01271674 Eh      7.98 kcal/mol|
|  sn=11 | S(rot)=       0.01262675 Eh      7.92 kcal/mol|
|  sn=12 | S(rot)=       0.01254459 Eh      7.87 kcal/mol|
 linear molecules ---------------------------------------
|  Dinfh | S(rot)=       0.00934877 Eh      5.87 kcal/mol|
|  Cinfv | S(rot)=       0.01000322 Eh      6.28 kcal/mol|
 --------------------------------------------------------

-------------------
GIBBS FREE ENERGY
-------------------

The Gibbs free energy is G = H - T*S

Total enthalpy                    ...  -1610.87652937 Eh
Total entropy correction          ...     -0.04292891 Eh    -26.94 kcal/mol
-----------------------------------------------------------------------
Final Gibbs free energy         ...  -1610.91945829 Eh

For completeness - the Gibbs free energy minus the electronic energy
G-E(el)                           ...      0.03708967 Eh     23.27 kcal/mol

                             ****ORCA TERMINATED NORMALLY****
TOTAL RUN TIME: 0 days 0 hours 9 minutes 0 seconds 51 msec
