                         Program Version 6.0.0  -   RELEASE  -
|  1> ! r2SCAN-3c DEF2-TZVP FREQ
|  2> * xyzfile 0 1 vacuum_censo.xyz
|  3>
|  4>                          ****END OF INPUT****

CARTESIAN COORDINATES (ANGSTROEM)
---------------------------------
  C     -0.933695    1.051160    0.000046
  C      0.433134    1.302686    0.000066
  C      1.377362    0.282969    0.000068
  C      0.911694   -1.026394    0.000085
  C     -0.443505   -1.334131    0.000047
  C     -1.344764   -0.276263    0.000012
  Cl    -3.056670   -0.628116    0.000030
  Cl     2.071972   -2.333418    0.000062
  Cl     0.984337    2.961224    0.000065
  H     -1.651897    1.860066    0.000042
  H      2.436976    0.500647    0.000074
  H     -0.784790   -2.360607    0.000040

 Total Charge           Charge          ....    0
 Multiplicity           Mult            ....    1
 Number of Electrons    NEL             ....   90
 Basis Dimension        Dim             ....  315

ORBITAL ENERGIES
----------------

  NO   OCC          E(Eh)            E(eV)
   0   2.0000    -101.209229     -2754.0431
   1   2.0000    -101.209220     -2754.0429
   2   2.0000    -101.209216     -2754.0428
   3   2.0000     -10.128187      -275.6020
   4   2.0000     -10.128176      -275.6017
   5   2.0000     -10.128164      -275.6014
   6   2.0000     -10.073242      -274.1069
   7   2.0000     -10.073236      -274.1067
   8   2.0000     -10.073221      -274.1063
   9   2.0000      -9.385180      -255.3837
  10   2.0000      -9.385171      -255.3835
  11   2.0000      -9.385167      -255.3834
  12   2.0000      -7.130152      -194.0213
  13   2.0000      -7.130143      -194.0210
  14   2.0000      -7.130137      -194.0209
  15   2.0000      -7.120141      -193.7489
  16   2.0000      -7.120133      -193.7487
  17   2.0000      -7.120132      -193.7486
  18   2.0000      -7.119632      -193.7350
  19   2.0000      -7.119622      -193.7348
  20   2.0000      -7.119621      -193.7347
  21   2.0000      -0.897925       -24.4338
  22   2.0000      -0.852686       -23.2028
  23   2.0000      -0.852672       -23.2024
  24   2.0000      -0.789110       -21.4728
  25   2.0000      -0.725075       -19.7303
  26   2.0000      -0.725046       -19.7295
  27   2.0000      -0.594543       -16.1783
  28   2.0000      -0.594534       -16.1781
  29   2.0000      -0.513797       -13.9811
  30   2.0000      -0.485428       -13.2092
  31   2.0000      -0.458820       -12.4851
  32   2.0000      -0.430752       -11.7214
  33   2.0000      -0.430718       -11.7204
  34   2.0000      -0.413080       -11.2405
  35   2.0000      -0.374893       -10.2014
  36   2.0000      -0.374881       -10.2010
  37   2.0000      -0.354450        -9.6451
  38   2.0000      -0.354439        -9.6448
  39   2.0000      -0.308265        -8.3883
  40   2.0000      -0.308255        -8.3880
  41   2.0000      -0.296077        -8.0567
  42   2.0000      -0.295643        -8.0449
  43   2.0000      -0.248805        -6.7703
  44   2.0000      -0.248782        -6.7697
  45   0.0000      -0.069613        -1.8943
  46   0.0000      -0.069598        -1.8939
  47   0.0000      -0.046912        -1.2765
  48   0.0000       0.010438         0.2840
  49   0.0000       0.010451         0.2844

MULLIKEN ATOMIC CHARGES
-----------------------
   0 C :   -0.253010
   1 C :    0.202435
   2 C :   -0.253005
   3 C :    0.202229
   4 C :   -0.252799
   5 C :    0.202242
   6 Cl:   -0.091926
   7 Cl:   -0.091945
   8 Cl:   -0.091944
   9 H :    0.142568
  10 H :    0.142584
  11 H :    0.142571
Sum of atomic charges:    0.0000000

LOEWDIN ATOMIC CHARGES
----------------------
   0 C :   -0.146403
   1 C :   -0.411947
   2 C :   -0.146362
   3 C :   -0.412009
   4 C :   -0.146393
   5 C :   -0.412070
   6 Cl:    0.403296
   7 Cl:    0.403242
   8 Cl:    0.403228
   9 H :    0.155141
  10 H :    0.155143
  11 H :    0.155133

  Mayer bond orders larger than 0.100000
B(  0-C ,  1-C ) :   1.3251 B(  0-C ,  5-C ) :   1.3250 B(  0-C ,  9-H ) :   0.9701
B(  1-C ,  2-C ) :   1.3251 B(  1-C ,  8-Cl) :   0.9899 B(  2-C ,  3-C ) :   1.3249
B(  2-C , 10-H ) :   0.9700 B(  3-C ,  4-C ) :   1.3251 B(  3-C ,  7-Cl) :   0.9899
B(  4-C ,  5-C ) :   1.3249 B(  4-C , 11-H ) :   0.9700 B(  5-C ,  6-Cl) :   0.9900

Dispersion correction           -0.005422446
FINAL SINGLE POINT ENERGY     -1610.956807218221

DIPOLE MOMENT
-------------

Method             : SCF
Type of density    : Electron Density
Multiplicity       :   1
Irrep              :   0
Energy             : -1610.9576118564946228 Eh
Relativity type    :
Basis              : AO
                                X                 Y                 Z
Electronic contribution:     -0.000658010      -0.000365755      -0.000000259
Nuclear contribution   :      0.000689159       0.000445555      -0.000000907
                        -----------------------------------------
Total Dipole Moment    :      0.000031149       0.000079800      -0.000001166
                        -----------------------------------------
Magnitude (a.u.)       :      0.000085672
Magnitude (Debye)      :      0.000217760

VIBRATIONAL FREQUENCIES
-----------------------

Scaling factor for frequencies =  1.000000000  (already applied!)

     0:       0.00 cm**-1
     1:       0.00 cm**-1
     2:       0.00 cm**-1
     3:       0.00 cm**-1
     4:       0.00 cm**-1
     5:       0.00 cm**-1
     6:     143.42 cm**-1
     7:     193.53 cm**-1
     8:     193.81 cm**-1
     9:     204.89 cm**-1
    10:     205.38 cm**-1
    11:     370.19 cm**-1
    12:     429.02 cm**-1
    13:     429.13 cm**-1
    14:     452.01 cm**-1
    15:     545.63 cm**-1
    16:     546.15 cm**-1
    17:     678.44 cm**-1
    18:     793.32 cm**-1
    19:     793.90 cm**-1
    20:     860.87 cm**-1
    21:     867.75 cm**-1
    22:     868.16 cm**-1
    23:    1015.37 cm**-1
    24:    1114.17 cm**-1
    25:    1114.50 cm**-1
    26:    1133.91 cm**-1
    27:    1263.67 cm**-1
    28:    1338.64 cm**-1
    29:    1434.01 cm**-1
    30:    1434.27 cm**-1
    31:    1590.65 cm**-1
    32:    1591.15 cm**-1
    33:    3218.16 cm**-1
    34:    3218.55 cm**-1
    35:    3219.21 cm**-1

IR SPECTRUM
-----------

 Mode   freq       eps      Int      T**2         TX        TY        TZ
       cm**-1   L/(mol*cm) km/mol    a.u.
----------------------------------------------------------------------------
  6:    143.42   0.000014    0.07  0.000031  ( 0.000001 -0.000001  0.005556)
  7:    193.53   0.000013    0.07  0.000022  (-0.001454 -0.004415 -0.000000)
  8:    193.81   0.000014    0.07  0.000022  ( 0.004457 -0.001444  0.000000)
  9:    204.89   0.000000    0.00  0.000000  ( 0.000001  0.000005  0.000005)
 10:    205.38   0.000000    0.00  0.000000  ( 0.000005 -0.000001  0.000027)
 11:    370.19   0.000000    0.00  0.000000  (-0.000085  0.000092  0.000000)
 12:    429.02   0.001705    8.62  0.001240  ( 0.028021 -0.021330  0.000000)
 13:    429.13   0.001690    8.54  0.001229  (-0.021279 -0.027856 -0.000000)
 14:    452.01   0.000000    0.00  0.000000  (-0.000029  0.000204 -0.000000)
 15:    545.63   0.000000    0.00  0.000000  ( 0.000000  0.000000  0.000130)
 16:    546.15   0.000000    0.00  0.000000  (-0.000000  0.000001 -0.000091)
 17:    678.44   0.003143   15.89  0.001446  ( 0.000010 -0.000002 -0.038025)
 18:    793.32   0.018591   93.95  0.007313  ( 0.055516 -0.065047 -0.000001)
 19:    793.90   0.018634   94.17  0.007325  (-0.065091 -0.055567  0.000000)
 20:    860.87   0.008411   42.50  0.003049  ( 0.000006 -0.000000  0.055217)
 21:    867.75   0.000019    0.10  0.000007  ( 0.000001  0.000001 -0.002633)
 22:    868.16   0.000000    0.00  0.000000  ( 0.000001 -0.000002  0.000381)
 23:   1015.37   0.000000    0.00  0.000000  ( 0.000085  0.000024 -0.000000)
 24:   1114.17   0.003763   19.01  0.001054  ( 0.011264 -0.030446 -0.000001)
 25:   1114.50   0.003798   19.19  0.001064  (-0.030551 -0.011410  0.000001)
 26:   1133.91   0.000001    0.01  0.000000  (-0.000339  0.000543 -0.000000)
 27:   1263.67   0.000000    0.00  0.000000  (-0.000062 -0.000247  0.000000)
 28:   1338.64   0.000000    0.00  0.000000  (-0.000050 -0.000056 -0.000000)
 29:   1434.01   0.010483   52.98  0.002281  ( 0.017351 -0.044499  0.000000)
 30:   1434.27   0.010505   53.09  0.002286  ( 0.044547  0.017354  0.000000)
 31:   1590.65   0.026621  134.53  0.005223  (-0.069887 -0.018399 -0.000000)
 32:   1591.15   0.026654  134.70  0.005228  (-0.018316  0.069944  0.000000)
 33:   3218.16   0.000591    2.99  0.000057  ( 0.007526  0.000798  0.000000)
 34:   3218.55   0.000592    2.99  0.000057  (-0.000973  0.007514 -0.000000)
 35:   3219.21   0.000065    0.33  0.000006  ( 0.001670  0.001869  0.000000)

--------------------------
THERMOCHEMISTRY AT 298.15K
--------------------------

Temperature         ...   298.15 K
Pressure            ...     1.00 atm
Total Mass          ...   181.45 AMU
Quasi RRHO          ...     True
Cut-Off Frequency   ...     1.00 cm^-1

Throughout the following assumptions are being made:
  (1) The electronic state is orbitally nondegenerate
  (2) There are no thermally accessible electronically excited states
  (3) Hindered rotations indicated by low frequency modes are not
      treated as such but are treated as vibrations and this may
      cause some error
  (4) All equations used are the standard statistical mechanics
      equations for an ideal gas
  (5) All vibrations are strictly harmonic

freq.     143.42  E(vib)   ...       0.41
freq.     193.53  E(vib)   ...       0.36
freq.     193.81  E(vib)   ...       0.36
freq.     204.89  E(vib)   ...       0.35
freq.     205.38  E(vib)   ...       0.35
freq.     370.19  E(vib)   ...       0.21
freq.     429.02  E(vib)   ...       0.18
freq.     429.13  E(vib)   ...       0.18
freq.     452.01  E(vib)   ...       0.16
freq.     545.63  E(vib)   ...       0.12
freq.     546.15  E(vib)   ...       0.12
freq.     678.44  E(vib)   ...       0.08
freq.     793.32  E(vib)   ...       0.05
freq.     793.90  E(vib)   ...       0.05
freq.     860.87  E(vib)   ...       0.04
freq.     867.75  E(vib)   ...       0.04
freq.     868.16  E(vib)   ...       0.04
freq.    1015.37  E(vib)   ...       0.02
freq.    1114.17  E(vib)   ...       0.01
freq.    1114.50  E(vib)   ...       0.01
freq.    1133.91  E(vib)   ...       0.01
freq.    1263.67  E(vib)   ...       0.01
freq.    1338.64  E(vib)   ...       0.01
freq.    1434.01  E(vib)   ...       0.00
freq.    1434.27  E(vib)   ...       0.00
freq.    1590.65  E(vib)   ...       0.00
freq.    1591.15  E(vib)   ...       0.00
freq.    3218.16  E(vib)   ...       0.00
freq.    3218.55  E(vib)   ...       0.00
freq.    3219.21  E(vib)   ...       0.00

------------
INNER ENERGY
------------

The inner energy is: U= E(el) + E(ZPE) + E(vib) + E(rot) + E(trans)
    E(el)   - is the total energy from the electronic structure calculation
              = E(kin-el) + E(nuc-el) + E(el-el) + E(nuc-nuc)
    E(ZPE)  - the the zero temperature vibrational energy from the frequency calculation
    E(vib)  - the the finite temperature correction to E(ZPE) due to population
              of excited vibrational states
    E(rot)  - is the rotational thermal energy
    E(trans)- is the translational thermal energy

Summary of contributions to the inner energy U:
Electronic energy                ...  -1610.95680722 Eh
Zero point energy                ...      0.07121974 Eh      44.69 kcal/mol
Thermal vibrational correction   ...      0.00506489 Eh       3.18 kcal/mol
Thermal rotational correction    ...      0.00141627 Eh       0.89 kcal/mol
Thermal translational correction ...      0.00141627 Eh       0.89 kcal/mol
-----------------------------------------------------------------------
Total thermal energy                  -1610.87769005 Eh

Summary of corrections to the electronic energy:
(perhaps to be used in another calculation)
Total thermal correction                  0.00789743 Eh       4.96 kcal/mol
Non-thermal (ZPE) correction              0.07121974 Eh      44.69 kcal/mol
-----------------------------------------------------------------------
Total correction                          0.07911717 Eh      49.65 kcal/mol

--------
ENTHALPY
--------

The enthalpy is H = U + kB*T
                kB is Boltzmann's constant
Total thermal energy              ...  -1610.87769005 Eh
Thermal Enthalpy correction       ...      0.00094421 Eh       0.59 kcal/mol
-----------------------------------------------------------------------
Total Enthalpy                    ...  -1610.87674584 Eh

WARNING (ORCA/SYM): Atom subset shape of SubsetShape::OffCenterPolygon is inconsistent with a
planar molecule in function AtomSubset::GuessPointGroup(TSymmetryFinder &).

Note: Rotational entropy computed according to Herzberg
Infrared and Raman Spectra, Chapter V,1, Van Nostrand Reinhold, 1945
Point Group:  Cs, Symmetry Number:   1
Rotational constants in cm-1:     0.028250     0.028245     0.014124

Vibrational entropy computed according to the QRRHO of S. Grimme
Chem.Eur.J. 2012 18 9955 using a reference frequency of 100.0 cm-1

-------
ENTROPY
-------

The entropy contributions are T*S = T*(S(el)+S(vib)+S(rot)+S(trans))
     S(el)   - electronic entropy
     S(vib)  - vibrational entropy
     S(rot)  - rotational entropy
     S(trans)- translational entropy
The entropies will be listed as multiplied by the temperature to get
units of energy

Electronic entropy                ...      0.00000000 Eh      0.00 kcal/mol
Vibrational entropy               ...      0.00835281 Eh      5.24 kcal/mol
Rotational entropy                ...      0.01488952 Eh      9.34 kcal/mol
Translational entropy             ...      0.01971506 Eh     12.37 kcal/mol
-----------------------------------------------------------------------
Final entropy term                ...      0.04295739 Eh     26.96 kcal/mol

In case the symmetry of your molecule has not been determined correctly
or in case you have a reason to use a different symmetry number we print
out the resulting rotational entropy values for sn=1,12:

 non-linear molecules -----------------------------------
|  sn= 1 | S(rot)=       0.01488952 Eh      9.34 kcal/mol|
|  sn= 2 | S(rot)=       0.01423506 Eh      8.93 kcal/mol|
|  sn= 3 | S(rot)=       0.01385223 Eh      8.69 kcal/mol|
|  sn= 4 | S(rot)=       0.01358060 Eh      8.52 kcal/mol|
|  sn= 5 | S(rot)=       0.01336992 Eh      8.39 kcal/mol|
|  sn= 6 | S(rot)=       0.01319777 Eh      8.28 kcal/mol|
|  sn= 7 | S(rot)=       0.01305223 Eh      8.19 kcal/mol|
|  sn= 8 | S(rot)=       0.01292615 Eh      8.11 kcal/mol|
|  sn= 9 | S(rot)=       0.01281494 Eh      8.04 kcal/mol|
|  sn=10 | S(rot)=       0.01271546 Eh      7.98 kcal/mol|
|  sn=11 | S(rot)=       0.01262547 Eh      7.92 kcal/mol|
|  sn=12 | S(rot)=       0.01254332 Eh      7.87 kcal/mol|
 linear molecules ---------------------------------------
|  Dinfh | S(rot)=       0.00934792 Eh      5.87 kcal/mol|
|  Cinfv | S(rot)=       0.01000237 Eh      6.28 kcal/mol|
 --------------------------------------------------------

-------------------
GIBBS FREE ENERGY
-------------------

The Gibbs free energy is G = H - T*S

Total enthalpy                    ...  -1610.87674584 Eh
Total entropy correction          ...     -0.04295739 Eh    -26.96 kcal/mol
-----------------------------------------------------------------------
Final Gibbs free energy         ...  -1610.91970323 Eh

For completeness - the Gibbs free energy minus the electronic energy
G-E(el)                           ...      0.03710399 Eh     23.28 kcal/mol

                             ****ORCA TERMINATED NORMALLY****
TOTAL RUN TIME: 0 days 0 hours 8 minutes 45 seconds 894 msec
