                         Program Version 6.0.1  -  RELEASE   -
|  1> ! r2scan-3c def2/J RI DEFGRID2 scfconv6 printgap
|  2> %output
|  3>     printlevel normal
|  4> end
|  5> * xyz 0 1
|  6> C 1.7087492528 -0.4539081057 1.580834277
|  7> C 3.0819260717 -0.5797101616 1.6770250404
|  8> C 3.8934859096 -0.1892636387 0.6222321531
|  9> C 3.3192614417 0.3317655418 -0.5350771889
| 10> C 1.9423047608 0.4574514975 -0.628638677
| 11> C 1.1319178715 0.06524584 0.4279267072
| 12> C -0.3408444057 0.1879309968 0.3151956529
| 13> C -0.9880671389 1.3521703474 0.701664686
| 14> C -2.3660380566 1.4607181977 0.5983390637
| 15> C -3.1210293514 0.3986116234 0.1023163959
| 16> C -2.4777039566 -0.7753385908 -0.2897852664
| 17> C -1.0920238815 -0.8757854891 -0.1814216227
| 18> Cl -0.2973295386 -2.3214394202 -0.6643645824
| 19> Cl -3.3931619109 -2.0880105692 -0.9021061873
| 20> Cl -4.8252394453 0.5266863762 -0.0272994179
| 21> Cl -3.1474739186 2.9094961795 1.0841011668
| 22> Cl 4.3096282947 0.8203339657 -1.8549728955
| 23> Cl 5.60187144 -0.3512886353 0.7484618487
| 24> H 1.0794196226 -0.7618521043 2.4010645356
| 25> H 3.5341694597 -0.9832254923 2.568899925
| 26> H 1.5037070911 0.8573792668 -1.5291503722
| 27> H -0.4140253939 2.1798411573 1.0862228789
| 28> *
| 29>
| 30>                          ****END OF INPUT****

CARTESIAN COORDINATES (ANGSTROEM)
---------------------------------
  C      1.708749   -0.453908    1.580834
  C      3.081926   -0.579710    1.677025
  C      3.893486   -0.189264    0.622232
  C      3.319261    0.331766   -0.535077
  C      1.942305    0.457451   -0.628639
  C      1.131918    0.065246    0.427927
  C     -0.340844    0.187931    0.315196
  C     -0.988067    1.352170    0.701665
  C     -2.366038    1.460718    0.598339
  C     -3.121029    0.398612    0.102316
  C     -2.477704   -0.775339   -0.289785
  C     -1.092024   -0.875785   -0.181422
  Cl    -0.297330   -2.321439   -0.664365
  Cl    -3.393162   -2.088011   -0.902106
  Cl    -4.825239    0.526686   -0.027299
  Cl    -3.147474    2.909496    1.084101
  Cl     4.309628    0.820334   -1.854973
  Cl     5.601871   -0.351289    0.748462
  H      1.079420   -0.761852    2.401065
  H      3.534169   -0.983225    2.568900
  H      1.503707    0.857379   -1.529150
  H     -0.414025    2.179841    1.086223

 Total Charge           Charge          ....    0
 Multiplicity           Mult            ....    1
 Number of Electrons    NEL             ....  178
 Basis Dimension        Dim             ....  410

ORBITAL ENERGIES
----------------

  NO   OCC          E(Eh)            E(eV)
   0   2.0000    -101.245166     -2755.0210
   1   2.0000    -101.244935     -2755.0147
   2   2.0000    -101.243695     -2754.9810
   3   2.0000    -101.242871     -2754.9586
   4   2.0000    -101.235842     -2754.7673
   5   2.0000    -101.235640     -2754.7618
   6   2.0000     -10.139817      -275.9185
   7   2.0000     -10.138814      -275.8911
   8   2.0000     -10.134397      -275.7710
   9   2.0000     -10.134160      -275.7645
  10   2.0000     -10.124788      -275.5095
  11   2.0000     -10.123929      -275.4861
  12   2.0000     -10.091916      -274.6150
  13   2.0000     -10.080666      -274.3089
  14   2.0000     -10.080060      -274.2924
  15   2.0000     -10.071348      -274.0553
  16   2.0000     -10.070615      -274.0354
  17   2.0000     -10.066837      -273.9326
  18   2.0000      -9.400974      -255.8135
  19   2.0000      -9.400731      -255.8069
  20   2.0000      -9.399596      -255.7760
  21   2.0000      -9.398680      -255.7511
  22   2.0000      -9.391750      -255.5625
  23   2.0000      -9.391572      -255.5577
  24   2.0000      -7.147638      -194.4971
  25   2.0000      -7.147415      -194.4910
  26   2.0000      -7.146092      -194.4551
  27   2.0000      -7.145243      -194.4319
  28   2.0000      -7.138183      -194.2398
  29   2.0000      -7.137992      -194.2346
  30   2.0000      -7.137321      -194.2164
  31   2.0000      -7.137049      -194.2090
  32   2.0000      -7.136205      -194.1860
  33   2.0000      -7.135974      -194.1797
  34   2.0000      -7.135864      -194.1767
  35   2.0000      -7.135075      -194.1553
  36   2.0000      -7.135032      -194.1541
  37   2.0000      -7.134018      -194.1265
  38   2.0000      -7.128051      -193.9641
  39   2.0000      -7.127878      -193.9594
  40   2.0000      -7.127267      -193.9428
  41   2.0000      -7.127089      -193.9379
  42   2.0000      -0.929999       -25.3065
  43   2.0000      -0.902717       -24.5642
  44   2.0000      -0.883971       -24.0541
  45   2.0000      -0.865071       -23.5398
  46   2.0000      -0.839114       -22.8335
  47   2.0000      -0.835318       -22.7301
  48   2.0000      -0.828498       -22.5446
  49   2.0000      -0.808890       -22.0110
  50   2.0000      -0.753971       -20.5166
  51   2.0000      -0.732785       -19.9401
  52   2.0000      -0.717150       -19.5146
  53   2.0000      -0.699730       -19.0406
  54   2.0000      -0.625216       -17.0130
  55   2.0000      -0.611417       -16.6375
  56   2.0000      -0.602941       -16.4069
  57   2.0000      -0.573195       -15.5974
  58   2.0000      -0.520299       -14.1581
  59   2.0000      -0.513455       -13.9718
  60   2.0000      -0.496382       -13.5072
  61   2.0000      -0.483666       -13.1612
  62   2.0000      -0.467695       -12.7266
  63   2.0000      -0.454437       -12.3659
  64   2.0000      -0.443211       -12.0604
  65   2.0000      -0.435483       -11.8501
  66   2.0000      -0.434515       -11.8238
  67   2.0000      -0.427116       -11.6224
  68   2.0000      -0.411519       -11.1980
  69   2.0000      -0.407996       -11.1021
  70   2.0000      -0.394573       -10.7369
  71   2.0000      -0.378190       -10.2911
  72   2.0000      -0.368201       -10.0193
  73   2.0000      -0.365738        -9.9522
  74   2.0000      -0.351503        -9.5649
  75   2.0000      -0.336114        -9.1461
  76   2.0000      -0.329856        -8.9758
  77   2.0000      -0.327362        -8.9080
  78   2.0000      -0.323911        -8.8141
  79   2.0000      -0.317475        -8.6389
  80   2.0000      -0.311124        -8.4661
  81   2.0000      -0.307531        -8.3683
  82   2.0000      -0.303199        -8.2505
  83   2.0000      -0.289330        -7.8731
  84   2.0000      -0.285092        -7.7578
  85   2.0000      -0.257896        -7.0177
  86   2.0000      -0.252324        -6.8661
  87   2.0000      -0.241991        -6.5849
  88   2.0000      -0.240988        -6.5576
  89   0.0000      -0.080088        -2.1793
  90   0.0000      -0.074741        -2.0338
  91   0.0000      -0.065855        -1.7920
  92   0.0000      -0.060692        -1.6515
  93   0.0000      -0.058712        -1.5976

MULLIKEN ATOMIC CHARGES
-----------------------
   0 C :   -0.154428
   1 C :   -0.225280
   2 C :    0.152415
   3 C :    0.081310
   4 C :   -0.228028
   5 C :    0.122696
   6 C :    0.105313
   7 C :   -0.315372
   8 C :    0.115305
   9 C :    0.069665
  10 C :    0.014208
  11 C :    0.074430
  12 Cl:   -0.072815
  13 Cl:   -0.059804
  14 Cl:   -0.061515
  15 Cl:   -0.088406
  16 Cl:   -0.101120
  17 Cl:   -0.102725
  18 H :    0.161602
  19 H :    0.163426
  20 H :    0.172863
  21 H :    0.176260
Sum of atomic charges:    0.0000000

LOEWDIN ATOMIC CHARGES
----------------------
   0 C :   -0.132925
   1 C :   -0.153649
   2 C :   -0.182662
   3 C :   -0.178647
   4 C :   -0.138640
   5 C :   -0.081077
   6 C :   -0.077965
   7 C :   -0.138087
   8 C :   -0.181189
   9 C :   -0.196389
  10 C :   -0.191368
  11 C :   -0.164288
  12 Cl:    0.195578
  13 Cl:    0.190681
  14 Cl:    0.188527
  15 Cl:    0.173155
  16 Cl:    0.162743
  17 Cl:    0.161051
  18 H :    0.181199
  19 H :    0.182932
  20 H :    0.189045
  21 H :    0.191976

  Mayer bond orders larger than 0.100000
B(  0-C ,  1-C ) :   1.3956 B(  0-C ,  5-C ) :   1.3905 B(  0-C , 18-H ) :   0.9449
B(  1-C ,  2-C ) :   1.3389 B(  1-C , 19-H ) :   0.9460 B(  2-C ,  3-C ) :   1.2868
B(  2-C , 17-Cl) :   1.0514 B(  3-C ,  4-C ) :   1.3306 B(  3-C , 16-Cl) :   1.0671
B(  4-C ,  5-C ) :   1.4160 B(  4-C , 20-H ) :   0.9391 B(  5-C ,  6-C ) :   0.7429
B(  6-C ,  7-C ) :   1.3861 B(  6-C , 11-C ) :   1.3125 B(  7-C ,  8-C ) :   1.3062
B(  7-C , 21-H ) :   0.9328 B(  8-C ,  9-C ) :   1.2251 B(  8-C , 15-Cl) :   1.0817
B(  9-C , 10-C ) :   1.0991 B(  9-C , 14-Cl) :   1.2501 B( 10-C , 11-C ) :   1.0592
B( 10-C , 13-Cl) :   1.2824 B( 11-C , 12-Cl) :   1.2200

Dispersion correction           -0.014305393
FINAL SINGLE POINT ENERGY     -3220.641328822196

DIPOLE MOMENT
-------------

Method             : SCF
Type of density    : Electron Density
Multiplicity       :   1
Irrep              :   0
Energy             : -3220.6389653543274108 Eh
Relativity type    :
Basis              : AO
                                X                 Y                 Z
Electronic contribution:     -7.749640306      -1.792748785      -5.898948344
Nuclear contribution   :      7.701832540       1.889030129       6.416413636
                        -----------------------------------------
Total Dipole Moment    :     -0.047807767       0.096281344       0.517465292
                        -----------------------------------------
Magnitude (a.u.)       :      0.528513017
Magnitude (Debye)      :      1.343373328

Rotational constants in cm-1:             0.015365             0.003771             0.003365
Rotational constants in MHz :           460.618437           113.047748           100.875295

                             ****ORCA TERMINATED NORMALLY****
TOTAL RUN TIME: 0 days 0 hours 1 minutes 16 seconds 945 msec
