                         Program Version 6.0.1  -  RELEASE   -
|  1> ! pbe def2-sv(p) def2/J RI DEFGRID1 loosescf d4 GCP(DFT/SV(P)) printgap
|  2> %output
|  3>     printlevel normal
|  4> end
|  5> * xyz 0 1
|  6> C -2.5838117315 0.2512182735 -3.82401e-05
|  7> C -1.8874569494 1.4616450228 0.000111054
|  8> C -0.5168006422 1.4449665438 0.0001277928
|  9> C 0.1920417567 0.2364001466 1.58494e-05
| 10> C -0.5015151475 -0.9979111762 -3.05077e-05
| 11> C -1.9096434763 -0.9423738914 -0.0001073895
| 12> N 0.1219739436 -2.188418919 2.81548e-05
| 13> N 1.6063007235 0.3122951408 -0.0001190943
| 14> O 2.1268113821 1.4117874591 -0.0001875398
| 15> O 2.2600250286 -0.7280408196 0.0002201724
| 16> H -3.6633910159 0.2545162107 -9.2044e-05
| 17> H -2.4227823121 2.3970563445 0.0002266921
| 18> H 0.0548606562 2.360323584 0.0002256851
| 19> H -2.4524653202 -1.8763181327 -0.0002148576
| 20> H 1.1330616385 -2.2081470361 1.37395e-05
| 21> H -0.4165838929 -3.0353439398 -0.0003496204
| 22> *
| 23>
| 24>                          ****END OF INPUT****

CARTESIAN COORDINATES (ANGSTROEM)
---------------------------------
  C     -2.583812    0.251218   -0.000038
  C     -1.887457    1.461645    0.000111
  C     -0.516801    1.444967    0.000128
  C      0.192042    0.236400    0.000016
  C     -0.501515   -0.997911   -0.000031
  C     -1.909643   -0.942374   -0.000107
  N      0.121974   -2.188419    0.000028
  N      1.606301    0.312295   -0.000119
  O      2.126811    1.411787   -0.000188
  O      2.260025   -0.728041    0.000220
  H     -3.663391    0.254516   -0.000092
  H     -2.422782    2.397056    0.000227
  H      0.054861    2.360324    0.000226
  H     -2.452465   -1.876318   -0.000215
  H      1.133062   -2.208147    0.000014
  H     -0.416584   -3.035344   -0.000350

 Total Charge           Charge          ....    0
 Multiplicity           Mult            ....    1
 Number of Electrons    NEL             ....   72
 Basis Dimension        Dim             ....  152

ORBITAL ENERGIES
----------------

  NO   OCC          E(Eh)            E(eV)
   0   2.0000     -18.773127      -510.8428
   1   2.0000     -18.766546      -510.6637
   2   2.0000     -14.201481      -386.4419
   3   2.0000     -14.016521      -381.4089
   4   2.0000      -9.969757      -271.2909
   5   2.0000      -9.944642      -270.6075
   6   2.0000      -9.911321      -269.7007
   7   2.0000      -9.909514      -269.6516
   8   2.0000      -9.909328      -269.6465
   9   2.0000      -9.896550      -269.2988
  10   2.0000      -1.123166       -30.5629
  11   2.0000      -0.952189       -25.9104
  12   2.0000      -0.866765       -23.5859
  13   2.0000      -0.787672       -21.4337
  14   2.0000      -0.733280       -19.9536
  15   2.0000      -0.676764       -18.4157
  16   2.0000      -0.626915       -17.0592
  17   2.0000      -0.571989       -15.5646
  18   2.0000      -0.547396       -14.8954
  19   2.0000      -0.505627       -13.7588
  20   2.0000      -0.483616       -13.1599
  21   2.0000      -0.475774       -12.9465
  22   2.0000      -0.472165       -12.8483
  23   2.0000      -0.447739       -12.1836
  24   2.0000      -0.428430       -11.6582
  25   2.0000      -0.399691       -10.8762
  26   2.0000      -0.397360       -10.8127
  27   2.0000      -0.368906       -10.0384
  28   2.0000      -0.345215        -9.3938
  29   2.0000      -0.325252        -8.8506
  30   2.0000      -0.300949        -8.1892
  31   2.0000      -0.263768        -7.1775
  32   2.0000      -0.252719        -6.8768
  33   2.0000      -0.249899        -6.8001
  34   2.0000      -0.229114        -6.2345
  35   2.0000      -0.199041        -5.4162
  36   0.0000      -0.104465        -2.8426
  37   0.0000      -0.036729        -0.9994
  38   0.0000      -0.019948        -0.5428
  39   0.0000       0.027367         0.7447
  40   0.0000       0.042917         1.1678

MULLIKEN ATOMIC CHARGES
-----------------------
   0 C :   -0.015919
   1 C :   -0.043955
   2 C :   -0.137511
   3 C :    0.149165
   4 C :    0.059810
   5 C :   -0.161479
   6 N :   -0.265533
   7 N :    0.225812
   8 O :   -0.226203
   9 O :   -0.271855
  10 H :    0.062109
  11 H :    0.058060
  12 H :    0.065701
  13 H :    0.026820
  14 H :    0.249687
  15 H :    0.225293
Sum of atomic charges:    0.0000000

LOEWDIN ATOMIC CHARGES
----------------------
   0 C :   -0.093456
   1 C :   -0.151225
   2 C :   -0.099196
   3 C :   -0.081172
   4 C :    0.017324
   5 C :   -0.155313
   6 N :   -0.273303
   7 N :    0.256715
   8 O :   -0.193473
   9 O :   -0.226153
  10 H :    0.129516
  11 H :    0.128221
  12 H :    0.142714
  13 H :    0.124930
  14 H :    0.239796
  15 H :    0.234074

  Mayer bond orders larger than 0.100000
B(  0-C ,  1-C ) :   1.2677 B(  0-C ,  5-C ) :   1.4249 B(  0-C , 10-H ) :   0.9638
B(  1-C ,  2-C ) :   1.3694 B(  1-C , 11-H ) :   0.9692 B(  2-C ,  3-C ) :   1.3416
B(  2-C ,  5-C ) :   0.1033 B(  2-C , 12-H ) :   0.9471 B(  3-C ,  4-C ) :   1.2633
B(  3-C ,  7-N ) :   0.9493 B(  4-C ,  5-C ) :   1.2525 B(  4-C ,  6-N ) :   1.4342
B(  5-C , 13-H ) :   0.9631 B(  6-N , 14-H ) :   0.8070 B(  6-N , 15-H ) :   0.8561
B(  7-N ,  8-O ) :   1.5409 B(  7-N ,  9-O ) :   1.4207 B(  8-O ,  9-O ) :   0.2620
B(  9-O , 14-H ) :   0.1036

Dispersion correction           -0.017730203
FINAL SINGLE POINT ENERGY      -491.135755138906

DIPOLE MOMENT
-------------

Method             : SCF
Type of density    : Electron Density
Multiplicity       :   1
Irrep              :   0
Energy             :  -491.1897269242632547 Eh
Relativity type    :
Basis              : AO
                                X                 Y                 Z
Electronic contribution:      5.738364971       0.989252047      -0.000116278
Nuclear contribution   :     -7.212620043      -1.977770285      -0.000178650
                        -----------------------------------------
Total Dipole Moment    :     -1.474255072      -0.988518238      -0.000294928
                        -----------------------------------------
Magnitude (a.u.)       :      1.774991947
Magnitude (Debye)      :      4.511670981

Rotational constants in cm-1:             0.079205             0.043129             0.027924
Rotational constants in MHz :          2374.509914          1292.980110           837.137687

                             ****ORCA TERMINATED NORMALLY****
TOTAL RUN TIME: 0 days 0 hours 0 minutes 17 seconds 579 msec
