                         Program Version 6.0.1  -  RELEASE   -
|  1> ! pbe def2-sv(p) def2/J RI DEFGRID1 loosescf d4 GCP(DFT/SV(P)) printgap
|  2> %output
|  3>     printlevel normal
|  4> end
|  5> * xyz 0 1
|  6> C -2.2868924985 -0.921523532 0.7600341224
|  7> C -0.8478055486 -0.3870546465 0.7672777225
|  8> H -0.5640136455 -0.1085389585 1.792037657
|  9> C -0.6771770069 0.8250177438 -0.1606230357
| 10> H -0.9013403089 0.4922342965 -1.1878189881
| 11> C 0.7808969195 1.3151984952 -0.1000380242
| 12> H 0.8137169881 2.1439911494 0.6239431673
| 13> C 1.7476224833 0.2054714503 0.3677017709
| 14> H 2.7227226543 0.40227526 -0.1031226725
| 15> C 1.2496267325 -1.1463475912 -0.1596478847
| 16> H 1.892202562 -1.9597726249 0.1998673539
| 17> O -0.040202802 -1.4608770396 0.3090643105
| 18> O 1.3103062049 -1.176289521 -1.5498418873
| 19> O 1.8641036079 0.1331020106 1.7626043816
| 20> O 1.226784273 1.7453682343 -1.3689742963
| 21> O -1.4987486146 1.9143553853 0.184661498
| 22> O -2.728079089 -1.1950344299 -0.5424458969
| 23> H -2.972393868 -0.1840640158 1.1838271121
| 24> H -2.3128559159 -1.825046964 1.3818708473
| 25> H 1.1625603453 -0.2881027198 -1.9086190294
| 26> H 2.2772862912 0.9401804819 2.090759143
| 27> H 0.6661098472 2.4747385636 -1.6584852216
| 28> H -2.4189325127 1.6522407995 0.066803408
| 29> H -2.092831801 -1.8133164122 -0.9278238839
| 30> *
| 31>
| 32>                          ****END OF INPUT****

CARTESIAN COORDINATES (ANGSTROEM)
---------------------------------
  C     -2.286892   -0.921524    0.760034
  C     -0.847806   -0.387055    0.767278
  H     -0.564014   -0.108539    1.792038
  C     -0.677177    0.825018   -0.160623
  H     -0.901340    0.492234   -1.187819
  C      0.780897    1.315198   -0.100038
  H      0.813717    2.143991    0.623943
  C      1.747622    0.205471    0.367702
  H      2.722723    0.402275   -0.103123
  C      1.249627   -1.146348   -0.159648
  H      1.892203   -1.959773    0.199867
  O     -0.040203   -1.460877    0.309064
  O      1.310306   -1.176290   -1.549842
  O      1.864104    0.133102    1.762604
  O      1.226784    1.745368   -1.368974
  O     -1.498749    1.914355    0.184661
  O     -2.728079   -1.195034   -0.542446
  H     -2.972394   -0.184064    1.183827
  H     -2.312856   -1.825047    1.381871
  H      1.162560   -0.288103   -1.908619
  H      2.277286    0.940180    2.090759
  H      0.666110    2.474739   -1.658485
  H     -2.418933    1.652241    0.066803
  H     -2.092832   -1.813316   -0.927824

 Total Charge           Charge          ....    0
 Multiplicity           Mult            ....    1
 Number of Electrons    NEL             ....   96
 Basis Dimension        Dim             ....  192

ORBITAL ENERGIES
----------------

  NO   OCC          E(Eh)            E(eV)
   0   2.0000     -18.776194      -510.9262
   1   2.0000     -18.768171      -510.7079
   2   2.0000     -18.764554      -510.6095
   3   2.0000     -18.764166      -510.5989
   4   2.0000     -18.749394      -510.1970
   5   2.0000     -18.748250      -510.1658
   6   2.0000      -9.982029      -271.6248
   7   2.0000      -9.955554      -270.9044
   8   2.0000      -9.953133      -270.8385
   9   2.0000      -9.946694      -270.6633
  10   2.0000      -9.938633      -270.4439
  11   2.0000      -9.935179      -270.3500
  12   2.0000      -0.979516       -26.6540
  13   2.0000      -0.953862       -25.9559
  14   2.0000      -0.943888       -25.6845
  15   2.0000      -0.938518       -25.5384
  16   2.0000      -0.927560       -25.2402
  17   2.0000      -0.904677       -24.6175
  18   2.0000      -0.709518       -19.3070
  19   2.0000      -0.690525       -18.7902
  20   2.0000      -0.628059       -17.0904
  21   2.0000      -0.590874       -16.0785
  22   2.0000      -0.571253       -15.5446
  23   2.0000      -0.520096       -14.1525
  24   2.0000      -0.512604       -13.9487
  25   2.0000      -0.491306       -13.3691
  26   2.0000      -0.470390       -12.8000
  27   2.0000      -0.463484       -12.6121
  28   2.0000      -0.457955       -12.4616
  29   2.0000      -0.445329       -12.1180
  30   2.0000      -0.422788       -11.5047
  31   2.0000      -0.398499       -10.8437
  32   2.0000      -0.388263       -10.5652
  33   2.0000      -0.374327       -10.1860
  34   2.0000      -0.369209       -10.0467
  35   2.0000      -0.361957        -9.8494
  36   2.0000      -0.331095        -9.0096
  37   2.0000      -0.325519        -8.8578
  38   2.0000      -0.314059        -8.5460
  39   2.0000      -0.295148        -8.0314
  40   2.0000      -0.283897        -7.7252
  41   2.0000      -0.263778        -7.1778
  42   2.0000      -0.251783        -6.8514
  43   2.0000      -0.245727        -6.6866
  44   2.0000      -0.244739        -6.6597
  45   2.0000      -0.233612        -6.3569
  46   2.0000      -0.216901        -5.9022
  47   2.0000      -0.209669        -5.7054
  48   0.0000       0.010464         0.2847
  49   0.0000       0.017458         0.4751
  50   0.0000       0.024572         0.6686
  51   0.0000       0.050451         1.3729
  52   0.0000       0.060803         1.6545

MULLIKEN ATOMIC CHARGES
-----------------------
   0 C :    0.055209
   1 C :    0.007685
   2 H :    0.064064
   3 C :    0.051628
   4 H :    0.036126
   5 C :    0.035598
   6 H :    0.060279
   7 C :   -0.008018
   8 H :    0.091296
   9 C :    0.211627
  10 H :    0.072712
  11 O :   -0.315048
  12 O :   -0.400373
  13 O :   -0.400382
  14 O :   -0.414161
  15 O :   -0.418431
  16 O :   -0.440035
  17 H :    0.077625
  18 H :    0.093895
  19 H :    0.300766
  20 H :    0.305672
  21 H :    0.314243
  22 H :    0.312083
  23 H :    0.305940
Sum of atomic charges:   -0.0000000

LOEWDIN ATOMIC CHARGES
----------------------
   0 C :   -0.131581
   1 C :   -0.084366
   2 H :    0.110317
   3 C :   -0.087687
   4 H :    0.099225
   5 C :   -0.074246
   6 H :    0.109279
   7 C :   -0.089959
   8 H :    0.115424
   9 C :    0.007362
  10 H :    0.109867
  11 O :   -0.146512
  12 O :   -0.309481
  13 O :   -0.304070
  14 O :   -0.313511
  15 O :   -0.319310
  16 O :   -0.336614
  17 H :    0.107233
  18 H :    0.108970
  19 H :    0.270014
  20 H :    0.289552
  21 H :    0.294812
  22 H :    0.290264
  23 H :    0.285019

  Mayer bond orders larger than 0.100000
B(  0-C ,  1-C ) :   1.0352 B(  0-C , 16-O ) :   1.0640 B(  0-C , 17-H ) :   0.9147
B(  0-C , 18-H ) :   0.9191 B(  1-C ,  2-H ) :   0.8545 B(  1-C ,  3-C ) :   1.0596
B(  1-C , 11-O ) :   0.9846 B(  3-C ,  4-H ) :   0.8359 B(  3-C ,  5-C ) :   1.0399
B(  3-C , 15-O ) :   1.0752 B(  5-C ,  6-H ) :   0.8594 B(  5-C ,  7-C ) :   0.9909
B(  5-C , 14-O ) :   1.0394 B(  7-C ,  8-H ) :   0.8910 B(  7-C ,  9-C ) :   1.0364
B(  7-C , 13-O ) :   1.0418 B(  9-C , 10-H ) :   0.8975 B(  9-C , 11-O ) :   1.0372
B(  9-C , 12-O ) :   1.1375 B( 12-O , 19-H ) :   0.8120 B( 13-O , 20-H ) :   0.8457
B( 14-O , 21-H ) :   0.8415 B( 15-O , 22-H ) :   0.8404 B( 16-O , 23-H ) :   0.8347

Dispersion correction           -0.025197554
FINAL SINGLE POINT ENERGY      -685.694602384352

DIPOLE MOMENT
-------------

Method             : SCF
Type of density    : Electron Density
Multiplicity       :   1
Irrep              :   0
Energy             :  -685.8269828606980809 Eh
Relativity type    :
Basis              : AO
                                X                 Y                 Z
Electronic contribution:      1.698672008      -0.628170832      -1.137353664
Nuclear contribution   :     -1.618954023       1.807100547       1.439351863
                        -----------------------------------------
Total Dipole Moment    :      0.079717986       1.178929716       0.301998199
                        -----------------------------------------
Magnitude (a.u.)       :      1.219603683
Magnitude (Debye)      :      3.099986202

Rotational constants in cm-1:             0.040407             0.027177             0.023499
Rotational constants in MHz :          1211.384686           814.759414           704.487142

                             ****ORCA TERMINATED NORMALLY****
TOTAL RUN TIME: 0 days 0 hours 0 minutes 8 seconds 167 msec
