                         Program Version 6.0.1  -  RELEASE   -
|  1> ! pbe def2-sv(p) def2/J RI DEFGRID1 loosescf d4 GCP(DFT/SV(P)) printgap
|  2> %output
|  3>     printlevel normal
|  4> end
|  5> * xyz 0 1
|  6> C -2.046721722 -1.4039818486 -0.0951428898
|  7> C -0.9910228701 -0.5273682565 0.6048450294
|  8> H -1.4136164624 -0.1570160041 1.5510383393
|  9> C -0.6463148592 0.6902030161 -0.2653551871
| 10> H -0.5298652677 0.3787513389 -1.3149038105
| 11> C 0.6901451515 1.2542280126 0.2190414414
| 12> H 0.6469734399 1.3876391915 1.312741489
| 13> C 1.7757998862 0.2259126063 -0.1194171822
| 14> H 2.0073734918 0.3204653782 -1.1912322942
| 15> C 1.2562551304 -1.2058556709 0.1136784945
| 16> H 2.0421681498 -1.7652189316 0.6408939564
| 17> O 0.1538244039 -1.2780337098 0.9775782407
| 18> O 0.9712139425 -1.7674061512 -1.1338567044
| 19> O 2.9301968344 0.4075336013 0.6545131946
| 20> O 1.0075882497 2.4716997843 -0.4033561232
| 21> O -1.6324292966 1.6900761847 -0.1636400091
| 22> O -3.2609013956 -0.7035032512 -0.2509100392
| 23> H -2.1872116527 -2.3296083103 0.4760360305
| 24> H -1.7120976179 -1.6567051059 -1.103930462
| 25> H 0.7511548619 -2.6996071839 -1.0164167373
| 26> H 3.1979103277 1.3300679643 0.5590173867
| 27> H 0.1894739692 2.9834109777 -0.4497100447
| 28> H -2.4674034967 1.2984830926 -0.4580136416
| 29> H -3.6699041615 -0.5911981112 0.6151967481
| 30> *
| 31>
| 32>                          ****END OF INPUT****

CARTESIAN COORDINATES (ANGSTROEM)
---------------------------------
  C     -2.046722   -1.403982   -0.095143
  C     -0.991023   -0.527368    0.604845
  H     -1.413616   -0.157016    1.551038
  C     -0.646315    0.690203   -0.265355
  H     -0.529865    0.378751   -1.314904
  C      0.690145    1.254228    0.219041
  H      0.646973    1.387639    1.312741
  C      1.775800    0.225913   -0.119417
  H      2.007373    0.320465   -1.191232
  C      1.256255   -1.205856    0.113678
  H      2.042168   -1.765219    0.640894
  O      0.153824   -1.278034    0.977578
  O      0.971214   -1.767406   -1.133857
  O      2.930197    0.407534    0.654513
  O      1.007588    2.471700   -0.403356
  O     -1.632429    1.690076   -0.163640
  O     -3.260901   -0.703503   -0.250910
  H     -2.187212   -2.329608    0.476036
  H     -1.712098   -1.656705   -1.103930
  H      0.751155   -2.699607   -1.016417
  H      3.197910    1.330068    0.559017
  H      0.189474    2.983411   -0.449710
  H     -2.467403    1.298483   -0.458014
  H     -3.669904   -0.591198    0.615197

 Total Charge           Charge          ....    0
 Multiplicity           Mult            ....    1
 Number of Electrons    NEL             ....   96
 Basis Dimension        Dim             ....  192

ORBITAL ENERGIES
----------------

  NO   OCC          E(Eh)            E(eV)
   0   2.0000     -18.777984      -510.9749
   1   2.0000     -18.772101      -510.8148
   2   2.0000     -18.766924      -510.6740
   3   2.0000     -18.754986      -510.3491
   4   2.0000     -18.746048      -510.1059
   5   2.0000     -18.745038      -510.0784
   6   2.0000      -9.985967      -271.7320
   7   2.0000      -9.946940      -270.6700
   8   2.0000      -9.942655      -270.5534
   9   2.0000      -9.941065      -270.5101
  10   2.0000      -9.935703      -270.3642
  11   2.0000      -9.935366      -270.3551
  12   2.0000      -0.985459       -26.8157
  13   2.0000      -0.953547       -25.9473
  14   2.0000      -0.941813       -25.6280
  15   2.0000      -0.927945       -25.2507
  16   2.0000      -0.916174       -24.9304
  17   2.0000      -0.911641       -24.8070
  18   2.0000      -0.705621       -19.2009
  19   2.0000      -0.694346       -18.8941
  20   2.0000      -0.625951       -17.0330
  21   2.0000      -0.578929       -15.7535
  22   2.0000      -0.572251       -15.5717
  23   2.0000      -0.514702       -14.0057
  24   2.0000      -0.507317       -13.8048
  25   2.0000      -0.497210       -13.5298
  26   2.0000      -0.481949       -13.1145
  27   2.0000      -0.465825       -12.6758
  28   2.0000      -0.442233       -12.0338
  29   2.0000      -0.429327       -11.6826
  30   2.0000      -0.402331       -10.9480
  31   2.0000      -0.398156       -10.8344
  32   2.0000      -0.385587       -10.4924
  33   2.0000      -0.383220       -10.4280
  34   2.0000      -0.369864       -10.0645
  35   2.0000      -0.358423        -9.7532
  36   2.0000      -0.330870        -9.0034
  37   2.0000      -0.322396        -8.7729
  38   2.0000      -0.306421        -8.3381
  39   2.0000      -0.306093        -8.3292
  40   2.0000      -0.282583        -7.6895
  41   2.0000      -0.268235        -7.2991
  42   2.0000      -0.265830        -7.2336
  43   2.0000      -0.245972        -6.6932
  44   2.0000      -0.232325        -6.3219
  45   2.0000      -0.219396        -5.9701
  46   2.0000      -0.216452        -5.8900
  47   2.0000      -0.206195        -5.6108
  48   0.0000       0.005146         0.1400
  49   0.0000       0.021747         0.5918
  50   0.0000       0.038605         1.0505
  51   0.0000       0.048428         1.3178
  52   0.0000       0.063055         1.7158

MULLIKEN ATOMIC CHARGES
-----------------------
   0 C :    0.052298
   1 C :    0.026845
   2 H :    0.060498
   3 C :   -0.010638
   4 H :    0.072084
   5 C :    0.058050
   6 H :    0.052617
   7 C :    0.090101
   8 H :    0.074990
   9 C :    0.158309
  10 H :    0.077696
  11 O :   -0.310183
  12 O :   -0.396997
  13 O :   -0.414878
  14 O :   -0.425146
  15 O :   -0.432338
  16 O :   -0.435568
  17 H :    0.087325
  18 H :    0.087550
  19 H :    0.303598
  20 H :    0.309883
  21 H :    0.308965
  22 H :    0.298952
  23 H :    0.305989
Sum of atomic charges:   -0.0000000

LOEWDIN ATOMIC CHARGES
----------------------
   0 C :   -0.137951
   1 C :   -0.080044
   2 H :    0.109025
   3 C :   -0.081772
   4 H :    0.108897
   5 C :   -0.073536
   6 H :    0.104279
   7 C :   -0.071838
   8 H :    0.112975
   9 C :    0.002817
  10 H :    0.107346
  11 O :   -0.140361
  12 O :   -0.308960
  13 O :   -0.316094
  14 O :   -0.325634
  15 O :   -0.329155
  16 O :   -0.323158
  17 H :    0.101237
  18 H :    0.115043
  19 H :    0.285320
  20 H :    0.291298
  21 H :    0.286367
  22 H :    0.274800
  23 H :    0.289098

  Mayer bond orders larger than 0.100000
B(  0-C ,  1-C ) :   1.0444 B(  0-C , 16-O ) :   1.0274 B(  0-C , 17-H ) :   0.9227
B(  0-C , 18-H ) :   0.9092 B(  1-C ,  2-H ) :   0.8856 B(  1-C ,  3-C ) :   0.9701
B(  1-C , 11-O ) :   0.9767 B(  3-C ,  4-H ) :   0.8842 B(  3-C ,  5-C ) :   1.0424
B(  3-C , 15-O ) :   1.0686 B(  5-C ,  6-H ) :   0.8543 B(  5-C ,  7-C ) :   1.0526
B(  5-C , 14-O ) :   1.0972 B(  7-C ,  8-H ) :   0.8796 B(  7-C ,  9-C ) :   0.9922
B(  7-C , 13-O ) :   1.0922 B(  9-C , 10-H ) :   0.8929 B(  9-C , 11-O ) :   1.0721
B(  9-C , 12-O ) :   1.0962 B( 12-O , 19-H ) :   0.8382 B( 13-O , 20-H ) :   0.8455
B( 14-O , 21-H ) :   0.8300 B( 15-O , 22-H ) :   0.8109 B( 16-O , 22-H ) :   0.1017
B( 16-O , 23-H ) :   0.8440

Dispersion correction           -0.024656585
FINAL SINGLE POINT ENERGY      -685.697405856054

DIPOLE MOMENT
-------------

Method             : SCF
Type of density    : Electron Density
Multiplicity       :   1
Irrep              :   0
Energy             :  -685.8293189377906174 Eh
Relativity type    :
Basis              : AO
                                X                 Y                 Z
Electronic contribution:      2.027153545       0.898234585       0.590649925
Nuclear contribution   :     -2.948075744      -1.395604446      -0.360567784
                        -----------------------------------------
Total Dipole Moment    :     -0.920922199      -0.497369861       0.230082141
                        -----------------------------------------
Magnitude (a.u.)       :      1.071639990
Magnitude (Debye)      :      2.723892383

Rotational constants in cm-1:             0.044173             0.026325             0.018820
Rotational constants in MHz :          1324.266701           789.215993           564.217479

                             ****ORCA TERMINATED NORMALLY****
TOTAL RUN TIME: 0 days 0 hours 0 minutes 10 seconds 125 msec
