                         Program Version 6.0.0  -   RELEASE  -
|  1> ! r2SCAN-3c DEF2-TZVP FREQ
|  2> * xyzfile 0 1 censo.xyz
|  3>
|  4>                          ****END OF INPUT****

CARTESIAN COORDINATES (ANGSTROEM)
---------------------------------
  C     -1.297528   -0.931755   -0.178304
  C     -0.421868    0.311738   -0.326218
  C     -1.114629    1.539915    0.264924
  C      0.931892    0.129695    0.355260
  O      1.719613   -0.939885   -0.202366
  H     -1.495778   -1.138310    0.880862
  H     -0.828907   -1.819300   -0.617540
  H     -2.260516   -0.789222   -0.679526
  H     -0.235614    0.490603   -1.394414
  H     -0.504203    2.441368    0.143529
  H     -1.301653    1.399153    1.336330
  H     -2.078899    1.716498   -0.222014
  H      1.535029    1.035299    0.230434
  H      0.784365   -0.033828    1.434007
  H      1.296718   -1.772276    0.041871

 Total Charge           Charge          ....    0
 Multiplicity           Mult            ....    1
 Number of Electrons    NEL             ....   42
 Basis Dimension        Dim             ....  215

ORBITAL ENERGIES
----------------

  NO   OCC          E(Eh)            E(eV)
   0   2.0000     -18.947520      -515.5882
   1   2.0000     -10.073961      -274.1264
   2   2.0000     -10.037480      -273.1337
   3   2.0000     -10.026889      -272.8455
   4   2.0000     -10.025318      -272.8028
   5   2.0000      -0.975890       -26.5553
   6   2.0000      -0.770382       -20.9632
   7   2.0000      -0.658329       -17.9140
   8   2.0000      -0.639995       -17.4151
   9   2.0000      -0.537125       -14.6159
  10   2.0000      -0.479888       -13.0584
  11   2.0000      -0.424253       -11.5445
  12   2.0000      -0.414148       -11.2695
  13   2.0000      -0.401107       -10.9147
  14   2.0000      -0.362073        -9.8525
  15   2.0000      -0.351460        -9.5637
  16   2.0000      -0.339725        -9.2444
  17   2.0000      -0.312653        -8.5077
  18   2.0000      -0.308416        -8.3924
  19   2.0000      -0.290378        -7.9016
  20   2.0000      -0.236794        -6.4435
  21   0.0000       0.029940         0.8147
  22   0.0000       0.052681         1.4335
  23   0.0000       0.078359         2.1323
  24   0.0000       0.089868         2.4454
  25   0.0000       0.102964         2.8018

MULLIKEN ATOMIC CHARGES
-----------------------
   0 C :   -0.369527
   1 C :    0.031849
   2 C :   -0.346242
   3 C :   -0.005910
   4 O :   -0.466115
   5 H :    0.101776
   6 H :    0.100306
   7 H :    0.110348
   8 H :    0.059025
   9 H :    0.109075
  10 H :    0.098222
  11 H :    0.108679
  12 H :    0.091678
  13 H :    0.078423
  14 H :    0.298413
Sum of atomic charges:    0.0000000

LOEWDIN ATOMIC CHARGES
----------------------
   0 C :   -0.293449
   1 C :   -0.328875
   2 C :   -0.284467
   3 C :   -0.314235
   4 O :   -0.056706
   5 H :    0.120371
   6 H :    0.115155
   7 H :    0.123396
   8 H :    0.148664
   9 H :    0.121096
  10 H :    0.120162
  11 H :    0.121305
  12 H :    0.127798
  13 H :    0.114894
  14 H :    0.164890

  Mayer bond orders larger than 0.100000
B(  0-C ,  1-C ) :   0.9518 B(  0-C ,  5-H ) :   0.9690 B(  0-C ,  6-H ) :   0.9757
B(  0-C ,  7-H ) :   0.9754 B(  1-C ,  2-C ) :   0.9590 B(  1-C ,  3-C ) :   0.9552
B(  1-C ,  8-H ) :   0.9514 B(  2-C ,  9-H ) :   0.9755 B(  2-C , 10-H ) :   0.9678
B(  2-C , 11-H ) :   0.9730 B(  3-C ,  4-O ) :   0.9786 B(  3-C , 12-H ) :   0.9641
B(  3-C , 13-H ) :   0.9679 B(  4-O , 14-H ) :   0.9023

Dispersion correction           -0.003233639
FINAL SINGLE POINT ENERGY      -233.615582572702

DIPOLE MOMENT
-------------

Method             : SCF
Type of density    : Electron Density
Multiplicity       :   1
Irrep              :   0
Energy             :  -233.6207415500136335 Eh
Relativity type    :
Basis              : AO
                                X                 Y                 Z
Electronic contribution:      4.088528023      -1.564556261      -0.902970758
Nuclear contribution   :     -4.690478946       1.534108880       1.166149667
                        -----------------------------------------
Total Dipole Moment    :     -0.601950923      -0.030447381       0.263178909
                        -----------------------------------------
Magnitude (a.u.)       :      0.657674003
Magnitude (Debye)      :      1.671674466

VIBRATIONAL FREQUENCIES
-----------------------

Scaling factor for frequencies =  1.000000000  (already applied!)

     0:       0.00 cm**-1
     1:       0.00 cm**-1
     2:       0.00 cm**-1
     3:       0.00 cm**-1
     4:       0.00 cm**-1
     5:       0.00 cm**-1
     6:     145.02 cm**-1
     7:     236.14 cm**-1
     8:     266.77 cm**-1
     9:     275.04 cm**-1
    10:     335.78 cm**-1
    11:     368.17 cm**-1
    12:     423.25 cm**-1
    13:     491.24 cm**-1
    14:     818.46 cm**-1
    15:     899.97 cm**-1
    16:     926.00 cm**-1
    17:     941.89 cm**-1
    18:     969.37 cm**-1
    19:    1011.56 cm**-1
    20:    1110.45 cm**-1
    21:    1151.36 cm**-1
    22:    1192.38 cm**-1
    23:    1242.99 cm**-1
    24:    1313.73 cm**-1
    25:    1357.01 cm**-1
    26:    1373.59 cm**-1
    27:    1387.97 cm**-1
    28:    1398.56 cm**-1
    29:    1415.96 cm**-1
    30:    1475.39 cm**-1
    31:    1485.69 cm**-1
    32:    1489.23 cm**-1
    33:    1496.94 cm**-1
    34:    1509.60 cm**-1
    35:    2968.13 cm**-1
    36:    2993.35 cm**-1
    37:    2997.65 cm**-1
    38:    3005.56 cm**-1
    39:    3062.00 cm**-1
    40:    3067.53 cm**-1
    41:    3074.36 cm**-1
    42:    3078.85 cm**-1
    43:    3082.89 cm**-1
    44:    3780.49 cm**-1

IR SPECTRUM
-----------

 Mode   freq       eps      Int      T**2         TX        TY        TZ
       cm**-1   L/(mol*cm) km/mol    a.u.
----------------------------------------------------------------------------
  6:    145.02   0.000544    2.75  0.001171  ( 0.003234  0.031884  0.012003)
  7:    236.14   0.000045    0.23  0.000060  (-0.004638 -0.002456 -0.005668)
  8:    266.77   0.001482    7.49  0.001734  (-0.024498 -0.000092 -0.033673)
  9:    275.04   0.000750    3.79  0.000851  (-0.017952 -0.007089 -0.021864)
 10:    335.78   0.017473   88.30  0.016239  (-0.083662  0.028297 -0.091864)
 11:    368.17   0.004708   23.79  0.003991  ( 0.038535 -0.007673  0.049469)
 12:    423.25   0.000290    1.47  0.000214  ( 0.007393 -0.008149  0.009637)
 13:    491.24   0.001541    7.79  0.000979  (-0.023631  0.007112 -0.019226)
 14:    818.46   0.001254    6.34  0.000478  ( 0.001173  0.009842  0.019493)
 15:    899.97   0.001086    5.49  0.000376  (-0.016367  0.009851 -0.003391)
 16:    926.00   0.000165    0.84  0.000056  ( 0.006044 -0.003480 -0.002654)
 17:    941.89   0.003050   15.41  0.001011  ( 0.012735 -0.026423 -0.012257)
 18:    969.37   0.000293    1.48  0.000094  (-0.008423  0.004647  0.001289)
 19:   1011.56   0.020883  105.53  0.006442  ( 0.056682 -0.053792 -0.018325)
 20:   1110.45   0.001724    8.71  0.000485  (-0.016307  0.013096  0.006872)
 21:   1151.36   0.001078    5.45  0.000292  (-0.012784  0.011341 -0.000051)
 22:   1192.38   0.000193    0.98  0.000051  ( 0.006982 -0.000401 -0.001301)
 23:   1242.99   0.002685   13.57  0.000674  ( 0.018826 -0.015821 -0.008325)
 24:   1313.73   0.000056    0.28  0.000013  ( 0.002268 -0.002258  0.001744)
 25:   1357.01   0.000810    4.09  0.000186  (-0.008098  0.009445  0.005614)
 26:   1373.59   0.000328    1.66  0.000074  ( 0.007563  0.004020  0.001041)
 27:   1387.97   0.001613    8.15  0.000363  (-0.001738 -0.018733 -0.002965)
 28:   1398.56   0.002457   12.42  0.000548  ( 0.012941 -0.019026 -0.004326)
 29:   1415.96   0.004967   25.10  0.001095  (-0.026009  0.013962  0.014943)
 30:   1475.39   0.000174    0.88  0.000037  ( 0.002733 -0.005065 -0.001917)
 31:   1485.69   0.000553    2.79  0.000116  (-0.003615  0.008668 -0.005281)
 32:   1489.23   0.000498    2.51  0.000104  ( 0.001488 -0.010102 -0.000027)
 33:   1496.94   0.001262    6.38  0.000263  ( 0.014905  0.000141 -0.006399)
 34:   1509.60   0.003183   16.09  0.000658  (-0.008957  0.001105 -0.024013)
 35:   2968.13   0.008419   42.55  0.000885  (-0.003104 -0.009693 -0.027957)
 36:   2993.35   0.006097   30.81  0.000636  (-0.008320 -0.023800 -0.000085)
 37:   2997.65   0.003183   16.08  0.000331  ( 0.009402 -0.014447 -0.005852)
 38:   3005.56   0.006426   32.48  0.000667  ( 0.009015 -0.002974 -0.024024)
 39:   3062.00   0.003928   19.85  0.000400  ( 0.011823  0.016136  0.000461)
 40:   3067.53   0.004110   20.77  0.000418  ( 0.002237 -0.016018 -0.012511)
 41:   3074.36   0.011593   58.59  0.001177  (-0.015129 -0.009134  0.029401)
 42:   3078.85   0.006377   32.23  0.000646  ( 0.008719 -0.018925  0.014567)
 43:   3082.89   0.008127   41.07  0.000823  (-0.025180 -0.003966 -0.013147)
 44:   3780.49   0.003431   17.34  0.000283  ( 0.000314  0.016764 -0.001438)

--------------------------
THERMOCHEMISTRY AT 298.15K
--------------------------

Temperature         ...   298.15 K
Pressure            ...     1.00 atm
Total Mass          ...    74.12 AMU
Quasi RRHO          ...     True
Cut-Off Frequency   ...     1.00 cm^-1

Throughout the following assumptions are being made:
  (1) The electronic state is orbitally nondegenerate
  (2) There are no thermally accessible electronically excited states
  (3) Hindered rotations indicated by low frequency modes are not
      treated as such but are treated as vibrations and this may
      cause some error
  (4) All equations used are the standard statistical mechanics
      equations for an ideal gas
  (5) All vibrations are strictly harmonic

freq.     145.02  E(vib)   ...       0.41
freq.     236.14  E(vib)   ...       0.32
freq.     266.77  E(vib)   ...       0.29
freq.     275.04  E(vib)   ...       0.28
freq.     335.78  E(vib)   ...       0.24
freq.     368.17  E(vib)   ...       0.21
freq.     423.25  E(vib)   ...       0.18
freq.     491.24  E(vib)   ...       0.14
freq.     818.46  E(vib)   ...       0.05
freq.     899.97  E(vib)   ...       0.03
freq.     926.00  E(vib)   ...       0.03
freq.     941.89  E(vib)   ...       0.03
freq.     969.37  E(vib)   ...       0.03
freq.    1011.56  E(vib)   ...       0.02
freq.    1110.45  E(vib)   ...       0.02
freq.    1151.36  E(vib)   ...       0.01
freq.    1192.38  E(vib)   ...       0.01
freq.    1242.99  E(vib)   ...       0.01
freq.    1313.73  E(vib)   ...       0.01
freq.    1357.01  E(vib)   ...       0.01
freq.    1373.59  E(vib)   ...       0.01
freq.    1387.97  E(vib)   ...       0.00
freq.    1398.56  E(vib)   ...       0.00
freq.    1415.96  E(vib)   ...       0.00
freq.    1475.39  E(vib)   ...       0.00
freq.    1485.69  E(vib)   ...       0.00
freq.    1489.23  E(vib)   ...       0.00
freq.    1496.94  E(vib)   ...       0.00
freq.    1509.60  E(vib)   ...       0.00
freq.    2968.13  E(vib)   ...       0.00
freq.    2993.35  E(vib)   ...       0.00
freq.    2997.65  E(vib)   ...       0.00
freq.    3005.56  E(vib)   ...       0.00
freq.    3062.00  E(vib)   ...       0.00
freq.    3067.53  E(vib)   ...       0.00
freq.    3074.36  E(vib)   ...       0.00
freq.    3078.85  E(vib)   ...       0.00
freq.    3082.89  E(vib)   ...       0.00
freq.    3780.49  E(vib)   ...       0.00

------------
INNER ENERGY
------------

The inner energy is: U= E(el) + E(ZPE) + E(vib) + E(rot) + E(trans)
    E(el)   - is the total energy from the electronic structure calculation
              = E(kin-el) + E(nuc-el) + E(el-el) + E(nuc-nuc)
    E(ZPE)  - the the zero temperature vibrational energy from the frequency calculation
    E(vib)  - the the finite temperature correction to E(ZPE) due to population
              of excited vibrational states
    E(rot)  - is the rotational thermal energy
    E(trans)- is the translational thermal energy

Summary of contributions to the inner energy U:
Electronic energy                ...   -233.61558257 Eh
Zero point energy                ...      0.13582506 Eh      85.23 kcal/mol
Thermal vibrational correction   ...      0.00376128 Eh       2.36 kcal/mol
Thermal rotational correction    ...      0.00141627 Eh       0.89 kcal/mol
Thermal translational correction ...      0.00141627 Eh       0.89 kcal/mol
-----------------------------------------------------------------------
Total thermal energy                   -233.47316368 Eh

Summary of corrections to the electronic energy:
(perhaps to be used in another calculation)
Total thermal correction                  0.00659383 Eh       4.14 kcal/mol
Non-thermal (ZPE) correction              0.13582506 Eh      85.23 kcal/mol
-----------------------------------------------------------------------
Total correction                          0.14241889 Eh      89.37 kcal/mol

--------
ENTHALPY
--------

The enthalpy is H = U + kB*T
                kB is Boltzmann's constant
Total thermal energy              ...   -233.47316368 Eh
Thermal Enthalpy correction       ...      0.00094421 Eh       0.59 kcal/mol
-----------------------------------------------------------------------
Total Enthalpy                    ...   -233.47221947 Eh

Note: Only C1 symmetry has been detected, increase convergence thresholds
      if your molecule has a higher symmetry. Symmetry factor of 1.0 is
      used for the rotational entropy correction.

Note: Rotational entropy computed according to Herzberg
Infrared and Raman Spectra, Chapter V,1, Van Nostrand Reinhold, 1945
Point Group:  C1, Symmetry Number:   1
Rotational constants in cm-1:     0.251735     0.116713     0.087933

Vibrational entropy computed according to the QRRHO of S. Grimme
Chem.Eur.J. 2012 18 9955 using a reference frequency of 100.0 cm-1

-------
ENTROPY
-------

The entropy contributions are T*S = T*(S(el)+S(vib)+S(rot)+S(trans))
     S(el)   - electronic entropy
     S(vib)  - vibrational entropy
     S(rot)  - rotational entropy
     S(trans)- translational entropy
The entropies will be listed as multiplied by the temperature to get
units of energy

Electronic entropy                ...      0.00000000 Eh      0.00 kcal/mol
Vibrational entropy               ...      0.00605817 Eh      3.80 kcal/mol
Rotational entropy                ...      0.01232381 Eh      7.73 kcal/mol
Translational entropy             ...      0.01844715 Eh     11.58 kcal/mol
-----------------------------------------------------------------------
Final entropy term                ...      0.03682913 Eh     23.11 kcal/mol

In case the symmetry of your molecule has not been determined correctly
or in case you have a reason to use a different symmetry number we print
out the resulting rotational entropy values for sn=1,12:

 non-linear molecules -----------------------------------
|  sn= 1 | S(rot)=       0.01232381 Eh      7.73 kcal/mol|
|  sn= 2 | S(rot)=       0.01166935 Eh      7.32 kcal/mol|
|  sn= 3 | S(rot)=       0.01128652 Eh      7.08 kcal/mol|
|  sn= 4 | S(rot)=       0.01101490 Eh      6.91 kcal/mol|
|  sn= 5 | S(rot)=       0.01080421 Eh      6.78 kcal/mol|
|  sn= 6 | S(rot)=       0.01063206 Eh      6.67 kcal/mol|
|  sn= 7 | S(rot)=       0.01048652 Eh      6.58 kcal/mol|
|  sn= 8 | S(rot)=       0.01036044 Eh      6.50 kcal/mol|
|  sn= 9 | S(rot)=       0.01024923 Eh      6.43 kcal/mol|
|  sn=10 | S(rot)=       0.01014975 Eh      6.37 kcal/mol|
|  sn=11 | S(rot)=       0.01005976 Eh      6.31 kcal/mol|
|  sn=12 | S(rot)=       0.00997761 Eh      6.26 kcal/mol|
 linear molecules ---------------------------------------
|  Dinfh | S(rot)=       0.00762128 Eh      4.78 kcal/mol|
|  Cinfv | S(rot)=       0.00827574 Eh      5.19 kcal/mol|
 --------------------------------------------------------

-------------------
GIBBS FREE ENERGY
-------------------

                             ****ORCA TERMINATED NORMALLY****
TOTAL RUN TIME: 0 days 0 hours 6 minutes 26 seconds 727 msec
