                         Program Version 6.0.0  -   RELEASE  -
|  1> ! r2SCAN-3c DEF2-TZVP FREQ
|  2> * xyzfile 0 1 vacuum_censo.xyz
|  3>
|  4>                          ****END OF INPUT****

CARTESIAN COORDINATES (ANGSTROEM)
---------------------------------
  C     -1.738990   -0.822590    0.004456
  C     -0.504786    0.003935   -0.360279
  C     -0.667422    1.456125    0.089481
  C      0.737740   -0.637615    0.260783
  O      1.960871    0.005153   -0.097758
  H     -1.893892   -0.830292    1.090041
  H     -1.639183   -1.861164   -0.328219
  H     -2.640289   -0.407101   -0.456190
  H     -0.372245   -0.012963   -1.450590
  H     -1.566948    1.902514   -0.345790
  H      0.180573    2.076311   -0.219856
  H     -0.761643    1.515493    1.181402
  H      0.619719   -0.674341    1.357903
  H      0.835478   -1.669860   -0.093115
  H      1.982895    0.865970    0.331748

 Total Charge           Charge          ....    0
 Multiplicity           Mult            ....    1
 Number of Electrons    NEL             ....   42
 Basis Dimension        Dim             ....  215

ORBITAL ENERGIES
----------------

  NO   OCC          E(Eh)            E(eV)
   0   2.0000     -18.948265      -515.6085
   1   2.0000     -10.073615      -274.1170
   2   2.0000     -10.037267      -273.1279
   3   2.0000     -10.026597      -272.8376
   4   2.0000     -10.024979      -272.7936
   5   2.0000      -0.980575       -26.6828
   6   2.0000      -0.769296       -20.9336
   7   2.0000      -0.658027       -17.9058
   8   2.0000      -0.640139       -17.4191
   9   2.0000      -0.537586       -14.6285
  10   2.0000      -0.481678       -13.1071
  11   2.0000      -0.424245       -11.5443
  12   2.0000      -0.414560       -11.2808
  13   2.0000      -0.400393       -10.8952
  14   2.0000      -0.362290        -9.8584
  15   2.0000      -0.351596        -9.5674
  16   2.0000      -0.340618        -9.2687
  17   2.0000      -0.312447        -8.5021
  18   2.0000      -0.308085        -8.3834
  19   2.0000      -0.289502        -7.8777
  20   2.0000      -0.236952        -6.4478
  21   0.0000       0.030598         0.8326
  22   0.0000       0.053686         1.4609
  23   0.0000       0.078555         2.1376
  24   0.0000       0.090260         2.4561
  25   0.0000       0.103580         2.8186

MULLIKEN ATOMIC CHARGES
-----------------------
   0 C :   -0.346584
   1 C :    0.031834
   2 C :   -0.374380
   3 C :   -0.001552
   4 O :   -0.464286
   5 H :    0.098445
   6 H :    0.109011
   7 H :    0.108880
   8 H :    0.058615
   9 H :    0.110314
  10 H :    0.102505
  11 H :    0.102476
  12 H :    0.075582
  13 H :    0.090018
  14 H :    0.299125
Sum of atomic charges:    0.0000000

LOEWDIN ATOMIC CHARGES
----------------------
   0 C :   -0.284850
   1 C :   -0.327375
   2 C :   -0.294568
   3 C :   -0.324190
   4 O :   -0.044848
   5 H :    0.120113
   6 H :    0.120971
   7 H :    0.121108
   8 H :    0.148170
   9 H :    0.123121
  10 H :    0.115427
  11 H :    0.120231
  12 H :    0.114383
  13 H :    0.127622
  14 H :    0.164684

  Mayer bond orders larger than 0.100000
B(  0-C ,  1-C ) :   0.9603 B(  0-C ,  5-H ) :   0.9678 B(  0-C ,  6-H ) :   0.9756
B(  0-C ,  7-H ) :   0.9731 B(  1-C ,  2-C ) :   0.9500 B(  1-C ,  3-C ) :   0.9539
B(  1-C ,  8-H ) :   0.9518 B(  2-C ,  9-H ) :   0.9754 B(  2-C , 10-H ) :   0.9758
B(  2-C , 11-H ) :   0.9691 B(  3-C ,  4-O ) :   0.9820 B(  3-C , 12-H ) :   0.9666
B(  3-C , 13-H ) :   0.9642 B(  4-O , 14-H ) :   0.9017

Dispersion correction           -0.003233118
FINAL SINGLE POINT ENERGY      -233.615809059928

DIPOLE MOMENT
-------------

Method             : SCF
Type of density    : Electron Density
Multiplicity       :   1
Irrep              :   0
Energy             :  -233.6209736063886737 Eh
Relativity type    :
Basis              : AO
                                X                 Y                 Z
Electronic contribution:      4.391080365      -0.453689156      -0.782014050
Nuclear contribution   :     -4.897687518       0.722900857       1.070249805
                        -----------------------------------------
Total Dipole Moment    :     -0.506607153       0.269211701       0.288235755
                        -----------------------------------------
Magnitude (a.u.)       :      0.642032396
Magnitude (Debye)      :      1.631916660

VIBRATIONAL FREQUENCIES
-----------------------

Scaling factor for frequencies =  1.000000000  (already applied!)

     0:       0.00 cm**-1
     1:       0.00 cm**-1
     2:       0.00 cm**-1
     3:       0.00 cm**-1
     4:       0.00 cm**-1
     5:       0.00 cm**-1
     6:     128.55 cm**-1
     7:     228.12 cm**-1
     8:     250.64 cm**-1
     9:     269.83 cm**-1
    10:     299.28 cm**-1
    11:     362.43 cm**-1
    12:     424.04 cm**-1
    13:     490.63 cm**-1
    14:     814.71 cm**-1
    15:     899.24 cm**-1
    16:     925.77 cm**-1
    17:     940.70 cm**-1
    18:     966.44 cm**-1
    19:    1041.84 cm**-1
    20:    1109.63 cm**-1
    21:    1151.49 cm**-1
    22:    1189.54 cm**-1
    23:    1242.28 cm**-1
    24:    1314.15 cm**-1
    25:    1356.49 cm**-1
    26:    1375.68 cm**-1
    27:    1387.64 cm**-1
    28:    1399.39 cm**-1
    29:    1418.44 cm**-1
    30:    1476.16 cm**-1
    31:    1486.39 cm**-1
    32:    1490.94 cm**-1
    33:    1496.79 cm**-1
    34:    1509.43 cm**-1
    35:    2941.73 cm**-1
    36:    2993.09 cm**-1
    37:    2999.87 cm**-1
    38:    3008.39 cm**-1
    39:    3053.87 cm**-1
    40:    3068.02 cm**-1
    41:    3075.22 cm**-1
    42:    3081.40 cm**-1
    43:    3086.86 cm**-1
    44:    3816.14 cm**-1

IR SPECTRUM
-----------

 Mode   freq       eps      Int      T**2         TX        TY        TZ
       cm**-1   L/(mol*cm) km/mol    a.u.
----------------------------------------------------------------------------
  6:    128.55   0.000690    3.48  0.001674  (-0.007075 -0.037121  0.015679)
  7:    228.12   0.000503    2.54  0.000688  (-0.014327  0.011958 -0.018423)
  8:    250.64   0.006521   32.95  0.008119  (-0.051196  0.032285 -0.066747)
  9:    269.83   0.000974    4.92  0.001127  (-0.014433  0.020186 -0.022610)
 10:    299.28   0.016070   81.21  0.016756  ( 0.084027 -0.034275  0.092308)
 11:    362.43   0.000996    5.03  0.000857  ( 0.013392 -0.012261  0.022974)
 12:    424.04   0.000232    1.17  0.000171  ( 0.009155  0.002409  0.009013)
 13:    490.63   0.001128    5.70  0.000717  (-0.019335  0.008722 -0.016353)
 14:    814.71   0.001161    5.86  0.000445  (-0.003508 -0.012256  0.016793)
 15:    899.24   0.001309    6.62  0.000454  ( 0.020885  0.000004  0.004261)
 16:    925.77   0.000039    0.20  0.000013  ( 0.001989 -0.002588 -0.001591)
 17:    940.70   0.001629    8.23  0.000540  ( 0.015937  0.015852 -0.005924)
 18:    966.44   0.000093    0.47  0.000030  (-0.005451  0.000395  0.000554)
 19:   1041.84   0.024101  121.80  0.007219  ( 0.080347  0.024989 -0.011785)
 20:   1109.63   0.001381    6.98  0.000388  (-0.018685 -0.003640  0.005105)
 21:   1151.49   0.000839    4.24  0.000227  (-0.014673 -0.002745 -0.002112)
 22:   1189.54   0.000219    1.11  0.000058  (-0.006768  0.003119  0.001428)
 23:   1242.28   0.002659   13.44  0.000668  ( 0.024448  0.005967 -0.005878)
 24:   1314.15   0.000057    0.29  0.000013  ( 0.002919 -0.000047  0.002225)
 25:   1356.49   0.000872    4.41  0.000201  (-0.011737 -0.006593  0.004394)
 26:   1375.68   0.000450    2.27  0.000102  ( 0.004245 -0.009120 -0.000950)
 27:   1387.64   0.001638    8.28  0.000368  ( 0.009811  0.016479  0.000800)
 28:   1399.39   0.001615    8.16  0.000360  ( 0.016606  0.009187  0.000158)
 29:   1418.44   0.005367   27.12  0.001181  (-0.031762 -0.002380  0.012895)
 30:   1476.16   0.000205    1.04  0.000043  ( 0.005034  0.003429 -0.002495)
 31:   1486.39   0.000770    3.89  0.000162  (-0.008485 -0.007158 -0.006202)
 32:   1490.94   0.000161    0.81  0.000034  ( 0.002622  0.004579  0.002407)
 33:   1496.79   0.001293    6.53  0.000269  (-0.013810  0.006128  0.006420)
 34:   1509.43   0.003225   16.30  0.000667  ( 0.007743 -0.008576  0.023091)
 35:   2941.73   0.010425   52.68  0.001106  (-0.005021 -0.014966  0.029268)
 36:   2993.09   0.005674   28.67  0.000592  ( 0.003280  0.023057  0.007011)
 37:   2999.87   0.003534   17.86  0.000368  (-0.015728 -0.010120  0.004220)
 38:   3008.39   0.005530   27.95  0.000574  ( 0.009817  0.002203 -0.021735)
 39:   3053.87   0.005561   28.10  0.000568  ( 0.002858 -0.022681 -0.006758)
 40:   3068.02   0.004129   20.86  0.000420  (-0.008348 -0.015957  0.009779)
 41:   3075.22   0.012146   61.38  0.001233  (-0.005022  0.008263  0.033750)
 42:   3081.40   0.004978   25.16  0.000504  (-0.019589 -0.006226 -0.009037)
 43:   3086.86   0.007717   39.00  0.000780  (-0.019086  0.018171 -0.009256)
 44:   3816.14   0.003516   17.77  0.000288  (-0.007534 -0.014353 -0.004975)

--------------------------
THERMOCHEMISTRY AT 298.15K
--------------------------

Temperature         ...   298.15 K
Pressure            ...     1.00 atm
Total Mass          ...    74.12 AMU
Quasi RRHO          ...     True
Cut-Off Frequency   ...     1.00 cm^-1

Throughout the following assumptions are being made:
  (1) The electronic state is orbitally nondegenerate
  (2) There are no thermally accessible electronically excited states
  (3) Hindered rotations indicated by low frequency modes are not
      treated as such but are treated as vibrations and this may
      cause some error
  (4) All equations used are the standard statistical mechanics
      equations for an ideal gas
  (5) All vibrations are strictly harmonic

freq.     128.55  E(vib)   ...       0.43
freq.     228.12  E(vib)   ...       0.33
freq.     250.64  E(vib)   ...       0.30
freq.     269.83  E(vib)   ...       0.29
freq.     299.28  E(vib)   ...       0.26
freq.     362.43  E(vib)   ...       0.22
freq.     424.04  E(vib)   ...       0.18
freq.     490.63  E(vib)   ...       0.15
freq.     814.71  E(vib)   ...       0.05
freq.     899.24  E(vib)   ...       0.03
freq.     925.77  E(vib)   ...       0.03
freq.     940.70  E(vib)   ...       0.03
freq.     966.44  E(vib)   ...       0.03
freq.    1041.84  E(vib)   ...       0.02
freq.    1109.63  E(vib)   ...       0.02
freq.    1151.49  E(vib)   ...       0.01
freq.    1189.54  E(vib)   ...       0.01
freq.    1242.28  E(vib)   ...       0.01
freq.    1314.15  E(vib)   ...       0.01
freq.    1356.49  E(vib)   ...       0.01
freq.    1375.68  E(vib)   ...       0.01
freq.    1387.64  E(vib)   ...       0.00
freq.    1399.39  E(vib)   ...       0.00
freq.    1418.44  E(vib)   ...       0.00
freq.    1476.16  E(vib)   ...       0.00
freq.    1486.39  E(vib)   ...       0.00
freq.    1490.94  E(vib)   ...       0.00
freq.    1496.79  E(vib)   ...       0.00
freq.    1509.43  E(vib)   ...       0.00
freq.    2941.73  E(vib)   ...       0.00
freq.    2993.09  E(vib)   ...       0.00
freq.    2999.87  E(vib)   ...       0.00
freq.    3008.39  E(vib)   ...       0.00
freq.    3053.87  E(vib)   ...       0.00
freq.    3068.02  E(vib)   ...       0.00
freq.    3075.22  E(vib)   ...       0.00
freq.    3081.40  E(vib)   ...       0.00
freq.    3086.86  E(vib)   ...       0.00
freq.    3816.14  E(vib)   ...       0.00

------------
INNER ENERGY
------------

The inner energy is: U= E(el) + E(ZPE) + E(vib) + E(rot) + E(trans)
    E(el)   - is the total energy from the electronic structure calculation
              = E(kin-el) + E(nuc-el) + E(el-el) + E(nuc-nuc)
    E(ZPE)  - the the zero temperature vibrational energy from the frequency calculation
    E(vib)  - the the finite temperature correction to E(ZPE) due to population
              of excited vibrational states
    E(rot)  - is the rotational thermal energy
    E(trans)- is the translational thermal energy

Summary of contributions to the inner energy U:
Electronic energy                ...   -233.61580906 Eh
Zero point energy                ...      0.13571331 Eh      85.16 kcal/mol
Thermal vibrational correction   ...      0.00387922 Eh       2.43 kcal/mol
Thermal rotational correction    ...      0.00141627 Eh       0.89 kcal/mol
Thermal translational correction ...      0.00141627 Eh       0.89 kcal/mol
-----------------------------------------------------------------------
Total thermal energy                   -233.47338399 Eh

Summary of corrections to the electronic energy:
(perhaps to be used in another calculation)
Total thermal correction                  0.00671176 Eh       4.21 kcal/mol
Non-thermal (ZPE) correction              0.13571331 Eh      85.16 kcal/mol
-----------------------------------------------------------------------
Total correction                          0.14242507 Eh      89.37 kcal/mol

--------
ENTHALPY
--------

The enthalpy is H = U + kB*T
                kB is Boltzmann's constant
Total thermal energy              ...   -233.47338399 Eh
Thermal Enthalpy correction       ...      0.00094421 Eh       0.59 kcal/mol
-----------------------------------------------------------------------
Total Enthalpy                    ...   -233.47243978 Eh

Note: Only C1 symmetry has been detected, increase convergence thresholds
      if your molecule has a higher symmetry. Symmetry factor of 1.0 is
      used for the rotational entropy correction.

Note: Rotational entropy computed according to Herzberg
Infrared and Raman Spectra, Chapter V,1, Van Nostrand Reinhold, 1945
Point Group:  C1, Symmetry Number:   1
Rotational constants in cm-1:     0.252010     0.116842     0.087980

Vibrational entropy computed according to the QRRHO of S. Grimme
Chem.Eur.J. 2012 18 9955 using a reference frequency of 100.0 cm-1

-------
ENTROPY
-------

The entropy contributions are T*S = T*(S(el)+S(vib)+S(rot)+S(trans))
     S(el)   - electronic entropy
     S(vib)  - vibrational entropy
     S(rot)  - rotational entropy
     S(trans)- translational entropy
The entropies will be listed as multiplied by the temperature to get
units of energy

Electronic entropy                ...      0.00000000 Eh      0.00 kcal/mol
Vibrational entropy               ...      0.00633964 Eh      3.98 kcal/mol
Rotational entropy                ...      0.01232252 Eh      7.73 kcal/mol
Translational entropy             ...      0.01844715 Eh     11.58 kcal/mol
-----------------------------------------------------------------------
Final entropy term                ...      0.03710931 Eh     23.29 kcal/mol

In case the symmetry of your molecule has not been determined correctly
or in case you have a reason to use a different symmetry number we print
out the resulting rotational entropy values for sn=1,12:

 non-linear molecules -----------------------------------
|  sn= 1 | S(rot)=       0.01232252 Eh      7.73 kcal/mol|
|  sn= 2 | S(rot)=       0.01166806 Eh      7.32 kcal/mol|
|  sn= 3 | S(rot)=       0.01128523 Eh      7.08 kcal/mol|
|  sn= 4 | S(rot)=       0.01101360 Eh      6.91 kcal/mol|
|  sn= 5 | S(rot)=       0.01080292 Eh      6.78 kcal/mol|
|  sn= 6 | S(rot)=       0.01063077 Eh      6.67 kcal/mol|
|  sn= 7 | S(rot)=       0.01048523 Eh      6.58 kcal/mol|
|  sn= 8 | S(rot)=       0.01035915 Eh      6.50 kcal/mol|
|  sn= 9 | S(rot)=       0.01024794 Eh      6.43 kcal/mol|
|  sn=10 | S(rot)=       0.01014846 Eh      6.37 kcal/mol|
|  sn=11 | S(rot)=       0.01005847 Eh      6.31 kcal/mol|
|  sn=12 | S(rot)=       0.00997632 Eh      6.26 kcal/mol|
 linear molecules ---------------------------------------
|  Dinfh | S(rot)=       0.00762078 Eh      4.78 kcal/mol|
|  Cinfv | S(rot)=       0.00827523 Eh      5.19 kcal/mol|
 --------------------------------------------------------

-------------------
GIBBS FREE ENERGY
-------------------

                             ****ORCA TERMINATED NORMALLY****
TOTAL RUN TIME: 0 days 0 hours 6 minutes 25 seconds 679 msec
