                         Program Version 6.0.1  -  RELEASE   -
|  1> ! pbe def2-sv(p) def2/J RI DEFGRID1 loosescf d4 GCP(DFT/SV(P)) printgap
|  2> %output
|  3>     printlevel normal
|  4> end
|  5> * xyz 0 1
|  6> C -2.1827660945 0.1342164001 -0.6602370023
|  7> C -1.4011390607 -0.2779053537 0.5788705961
|  8> O -0.1048562863 -0.7728060681 0.2384523232
|  9> C 0.8643145512 0.1289195429 0.0459036765
| 10> O 0.7155943158 1.3151307574 0.1718558307
| 11> C 2.1514453998 -0.5461585856 -0.3505276925
| 12> H -2.255698917 -0.6997109737 -1.3543131613
| 13> H -3.1826076038 0.4466158885 -0.3730696676
| 14> H -1.6831685423 0.9639159104 -1.1542575597
| 15> H -1.8923087117 -1.1030141166 1.0987336615
| 16> H -1.2868785485 0.5757446102 1.2550483205
| 17> H 2.2097829014 -0.5671054102 -1.4372468352
| 18> H 2.1722309635 -1.5648500315 0.0231194377
| 19> H 2.9943008239 0.0240431038 0.0285486414
| 20> *
| 21>
| 22>                          ****END OF INPUT****

CARTESIAN COORDINATES (ANGSTROEM)
---------------------------------
  C     -2.182766    0.134216   -0.660237
  C     -1.401139   -0.277905    0.578871
  O     -0.104856   -0.772806    0.238452
  C      0.864315    0.128920    0.045904
  O      0.715594    1.315131    0.171856
  C      2.151445   -0.546159   -0.350528
  H     -2.255699   -0.699711   -1.354313
  H     -3.182608    0.446616   -0.373070
  H     -1.683169    0.963916   -1.154258
  H     -1.892309   -1.103014    1.098734
  H     -1.286879    0.575745    1.255048
  H      2.209783   -0.567105   -1.437247
  H      2.172231   -1.564850    0.023119
  H      2.994301    0.024043    0.028549

 Total Charge           Charge          ....    0
 Multiplicity           Mult            ....    1
 Number of Electrons    NEL             ....   48
 Basis Dimension        Dim             ....  100

ORBITAL ENERGIES
----------------

  NO   OCC          E(Eh)            E(eV)
   0   2.0000     -18.795788      -511.4594
   1   2.0000     -18.733219      -509.7568
   2   2.0000     -10.008018      -272.3320
   3   2.0000      -9.944298      -270.5981
   4   2.0000      -9.892894      -269.1993
   5   2.0000      -9.884953      -268.9832
   6   2.0000      -1.004146       -27.3242
   7   2.0000      -0.914392       -24.8819
   8   2.0000      -0.709003       -19.2930
   9   2.0000      -0.660851       -17.9827
  10   2.0000      -0.586923       -15.9710
  11   2.0000      -0.495594       -13.4858
  12   2.0000      -0.449156       -12.2222
  13   2.0000      -0.429445       -11.6858
  14   2.0000      -0.415101       -11.2955
  15   2.0000      -0.384213       -10.4550
  16   2.0000      -0.379799       -10.3349
  17   2.0000      -0.361487        -9.8366
  18   2.0000      -0.350599        -9.5403
  19   2.0000      -0.329400        -8.9634
  20   2.0000      -0.319985        -8.7072
  21   2.0000      -0.291738        -7.9386
  22   2.0000      -0.256145        -6.9701
  23   2.0000      -0.220233        -5.9929
  24   0.0000      -0.018458        -0.5023
  25   0.0000       0.046910         1.2765
  26   0.0000       0.061994         1.6869
  27   0.0000       0.084977         2.3123
  28   0.0000       0.093240         2.5372

MULLIKEN ATOMIC CHARGES
-----------------------
   0 C :   -0.306878
   1 C :   -0.014280
   2 O :   -0.243851
   3 C :    0.083572
   4 O :   -0.199244
   5 C :   -0.253979
   6 H :    0.110963
   7 H :    0.111018
   8 H :    0.126091
   9 H :    0.100028
  10 H :    0.105021
  11 H :    0.134738
  12 H :    0.120165
  13 H :    0.126638
Sum of atomic charges:   -0.0000000

LOEWDIN ATOMIC CHARGES
----------------------
   0 C :   -0.357590
   1 C :   -0.117098
   2 O :   -0.075501
   3 C :    0.030008
   4 O :   -0.160647
   5 C :   -0.360807
   6 H :    0.123025
   7 H :    0.129461
   8 H :    0.129528
   9 H :    0.115770
  10 H :    0.117578
  11 H :    0.148688
  12 H :    0.136161
  13 H :    0.141425

  Mayer bond orders larger than 0.100000
B(  0-C ,  1-C ) :   1.1698 B(  0-C ,  6-H ) :   0.9495 B(  0-C ,  7-H ) :   0.9450
B(  0-C ,  8-H ) :   0.9461 B(  1-C ,  2-O ) :   0.9333 B(  1-C ,  9-H ) :   0.9373
B(  1-C , 10-H ) :   0.9147 B(  2-O ,  3-C ) :   1.1938 B(  3-C ,  4-O ) :   2.0575
B(  3-C ,  5-C ) :   1.0788 B(  5-C , 11-H ) :   0.9268 B(  5-C , 12-H ) :   0.9372
B(  5-C , 13-H ) :   0.9386

Dispersion correction           -0.009151270
FINAL SINGLE POINT ENERGY      -307.031696281725

DIPOLE MOMENT
-------------

Method             : SCF
Type of density    : Electron Density
Multiplicity       :   1
Irrep              :   0
Energy             :  -307.0861822725810839 Eh
Relativity type    :
Basis              : AO
                                X                 Y                 Z
Electronic contribution:      2.505450636       1.176614765       1.691315415
Nuclear contribution   :     -2.734475695      -1.797334513      -1.789043050
                        -----------------------------------------
Total Dipole Moment    :     -0.229025059      -0.620719749      -0.097727636
                        -----------------------------------------
Magnitude (a.u.)       :      0.668802045
Magnitude (Debye)      :      1.699959700

Rotational constants in cm-1:             0.246091             0.077938             0.069069
Rotational constants in MHz :          7377.619561          2336.513963          2070.634969

                             ****ORCA TERMINATED NORMALLY****
TOTAL RUN TIME: 0 days 0 hours 0 minutes 12 seconds 803 msec
