                         Program Version 6.0.1  -  RELEASE   -
|  1> ! pbe def2-sv(p) def2/J RI DEFGRID1 loosescf d4 GCP(DFT/SV(P)) printgap
|  2> %output
|  3>     printlevel normal
|  4> end
|  5> * xyz 0 1
|  6> C 1.5714661728 -0.5989918166 0.8775626633
|  7> C 0.7217121743 0.1782935496 -0.0822555711
|  8> C 1.2018709294 1.1229643128 -0.874002677
|  9> C -0.7217530924 -0.1777835048 -0.0821636839
| 10> C -1.200762436 -1.1229302818 -0.8740629336
| 11> C -1.5724859501 0.5986015598 0.8775469589
| 12> H 1.2212165048 -0.4500494787 1.8986319327
| 13> H 2.6121030701 -0.2915147196 0.8144364677
| 14> H 1.4997317603 -1.6635428122 0.6569180356
| 15> H 0.5687290594 1.6629466211 -1.557710698
| 16> H 2.2457325698 1.3898742243 -0.8742015428
| 17> H -2.24459307 -1.3898549933 -0.875972737
| 18> H -0.5663879998 -1.6629093335 -1.5566762503
| 19> H -1.2222459817 0.449980654 1.8986798501
| 20> H -1.5020850628 1.66322744 0.6571255968
| 21> H -2.6127704527 0.2900093593 0.8141875891
| 22> *
| 23>
| 24>                          ****END OF INPUT****

CARTESIAN COORDINATES (ANGSTROEM)
---------------------------------
  C      1.571466   -0.598992    0.877563
  C      0.721712    0.178294   -0.082256
  C      1.201871    1.122964   -0.874003
  C     -0.721753   -0.177784   -0.082164
  C     -1.200762   -1.122930   -0.874063
  C     -1.572486    0.598602    0.877547
  H      1.221217   -0.450049    1.898632
  H      2.612103   -0.291515    0.814436
  H      1.499732   -1.663543    0.656918
  H      0.568729    1.662947   -1.557711
  H      2.245733    1.389874   -0.874202
  H     -2.244593   -1.389855   -0.875973
  H     -0.566388   -1.662909   -1.556676
  H     -1.222246    0.449981    1.898680
  H     -1.502085    1.663227    0.657126
  H     -2.612770    0.290009    0.814188

 Total Charge           Charge          ....    0
 Multiplicity           Mult            ....    1
 Number of Electrons    NEL             ....   46
 Basis Dimension        Dim             ....  104

ORBITAL ENERGIES
----------------

  NO   OCC          E(Eh)            E(eV)
   0   2.0000      -9.900292      -269.4006
   1   2.0000      -9.900244      -269.3993
   2   2.0000      -9.883360      -268.9399
   3   2.0000      -9.883329      -268.9391
   4   2.0000      -9.873471      -268.6708
   5   2.0000      -9.873457      -268.6704
   6   2.0000      -0.748001       -20.3541
   7   2.0000      -0.679208       -18.4822
   8   2.0000      -0.615126       -16.7384
   9   2.0000      -0.613335       -16.6897
  10   2.0000      -0.524360       -14.2686
  11   2.0000      -0.445226       -12.1152
  12   2.0000      -0.419206       -11.4072
  13   2.0000      -0.394597       -10.7375
  14   2.0000      -0.394519       -10.7354
  15   2.0000      -0.368929       -10.0391
  16   2.0000      -0.362649        -9.8682
  17   2.0000      -0.354900        -9.6573
  18   2.0000      -0.325675        -8.8621
  19   2.0000      -0.320009        -8.7079
  20   2.0000      -0.283892        -7.7251
  21   2.0000      -0.225616        -6.1393
  22   2.0000      -0.217405        -5.9159
  23   0.0000      -0.014822        -0.4033
  24   0.0000      -0.011065        -0.3011
  25   0.0000       0.041330         1.1246
  26   0.0000       0.072458         1.9717
  27   0.0000       0.085281         2.3206

MULLIKEN ATOMIC CHARGES
-----------------------
   0 C :   -0.194808
   1 C :   -0.090989
   2 C :   -0.201202
   3 C :   -0.090958
   4 C :   -0.201249
   5 C :   -0.194791
   6 H :    0.107288
   7 H :    0.097479
   8 H :    0.110411
   9 H :    0.089046
  10 H :    0.082735
  11 H :    0.082735
  12 H :    0.089091
  13 H :    0.107315
  14 H :    0.110408
  15 H :    0.097490
Sum of atomic charges:   -0.0000000

LOEWDIN ATOMIC CHARGES
----------------------
   0 C :   -0.316138
   1 C :   -0.048248
   2 C :   -0.256567
   3 C :   -0.048248
   4 C :   -0.256542
   5 C :   -0.316154
   6 H :    0.128169
   7 H :    0.123486
   8 H :    0.131176
   9 H :    0.120542
  10 H :    0.117562
  11 H :    0.117543
  12 H :    0.120544
  13 H :    0.128184
  14 H :    0.131174
  15 H :    0.123517

  Mayer bond orders larger than 0.100000
B(  0-C ,  1-C ) :   1.1157 B(  0-C ,  6-H ) :   0.9298 B(  0-C ,  7-H ) :   0.9394
B(  0-C ,  8-H ) :   0.9309 B(  1-C ,  2-C ) :   2.0472 B(  1-C ,  3-C ) :   0.9716
B(  2-C ,  9-H ) :   0.9134 B(  2-C , 10-H ) :   0.9066 B(  3-C ,  4-C ) :   2.0471
B(  3-C ,  5-C ) :   1.1158 B(  4-C , 11-H ) :   0.9066 B(  4-C , 12-H ) :   0.9134
B(  5-C , 13-H ) :   0.9298 B(  5-C , 14-H ) :   0.9310 B(  5-C , 15-H ) :   0.9394

Dispersion correction           -0.012800547
FINAL SINGLE POINT ENERGY      -234.038428366173

DIPOLE MOMENT
-------------

Method             : SCF
Type of density    : Electron Density
Multiplicity       :   1
Irrep              :   0
Energy             :  -234.0848006005682578 Eh
Relativity type    :
Basis              : AO
                                X                 Y                 Z
Electronic contribution:      0.000226699       0.001776170      -1.526136806
Nuclear contribution   :     -0.000534381      -0.001719693       1.759451748
                        -----------------------------------------
Total Dipole Moment    :     -0.000307682       0.000056477       0.233314942
                        -----------------------------------------
Magnitude (a.u.)       :      0.233315152
Magnitude (Debye)      :      0.593039987

Rotational constants in cm-1:             0.158868             0.087037             0.086915
Rotational constants in MHz :          4762.739740          2609.300897          2605.648708

                             ****ORCA TERMINATED NORMALLY****
TOTAL RUN TIME: 0 days 0 hours 0 minutes 11 seconds 983 msec
