                         Program Version 6.0.1  -  RELEASE   -
|  1> ! r2scan-3c def2/J RI DEFGRID2 scfconv6 printgap
|  2> %output
|  3>     printlevel normal
|  4> end
|  5> * xyz 0 1
|  6> C -2.1040997433 -0.8906892041 -0.4077352613
|  7> C -1.2451796163 -0.3237652955 0.7394574395
|  8> H -1.886171991 -0.378158157 1.6310068708
|  9> C -0.7728737885 1.1311864435 0.6145596
| 10> H -1.6132144938 1.7790493833 0.3416533922
| 11> C 0.3585421851 1.3242504987 -0.4211246136
| 12> H 0.8010183043 2.3114052051 -0.2261253639
| 13> C 1.4844910196 0.2934294511 -0.1625001274
| 14> H 2.0556312837 0.1553896617 -1.0873418
| 15> C 1.0001724537 -1.1129808744 0.2690036941
| 16> H 1.7957597126 -1.54049826 0.8977326944
| 17> O -0.1318194791 -1.1443749373 1.0993049032
| 18> O 0.8205487223 -1.9127139249 -0.8757315115
| 19> O 2.3836194148 0.7790439933 0.8051159181
| 20> O -0.0813279054 1.3839290529 -1.7385686605
| 21> O -0.3063249897 1.5519877459 1.8854773461
| 22> O -1.5340997134 -0.8853043205 -1.6877246597
| 23> H -3.0121436984 -0.2866738712 -0.4765457593
| 24> H -2.385668669 -1.9146063565 -0.1237010432
| 25> H 0.7152758049 -2.8332141389 -0.6052844647
| 26> H 1.8911988047 1.2888069174 1.4633606139
| 27> H -0.6664603852 0.6246847709 -1.9333008897
| 28> H -0.0263647179 0.7671179077 2.3759600781
| 29> H -0.6923822626 -1.3851754531 -1.6553284974
| 30> *
| 31>
| 32>                          ****END OF INPUT****

CARTESIAN COORDINATES (ANGSTROEM)
---------------------------------
  C     -2.104100   -0.890689   -0.407735
  C     -1.245180   -0.323765    0.739457
  H     -1.886172   -0.378158    1.631007
  C     -0.772874    1.131186    0.614560
  H     -1.613214    1.779049    0.341653
  C      0.358542    1.324250   -0.421125
  H      0.801018    2.311405   -0.226125
  C      1.484491    0.293429   -0.162500
  H      2.055631    0.155390   -1.087342
  C      1.000172   -1.112981    0.269004
  H      1.795760   -1.540498    0.897733
  O     -0.131819   -1.144375    1.099305
  O      0.820549   -1.912714   -0.875732
  O      2.383619    0.779044    0.805116
  O     -0.081328    1.383929   -1.738569
  O     -0.306325    1.551988    1.885477
  O     -1.534100   -0.885304   -1.687725
  H     -3.012144   -0.286674   -0.476546
  H     -2.385669   -1.914606   -0.123701
  H      0.715276   -2.833214   -0.605284
  H      1.891199    1.288807    1.463361
  H     -0.666460    0.624685   -1.933301
  H     -0.026365    0.767118    2.375960
  H     -0.692382   -1.385175   -1.655328

 Total Charge           Charge          ....    0
 Multiplicity           Mult            ....    1
 Number of Electrons    NEL             ....   96
 Basis Dimension        Dim             ....  318

ORBITAL ENERGIES
----------------

  NO   OCC          E(Eh)            E(eV)
   0   2.0000     -18.998632      -516.9790
   1   2.0000     -18.990874      -516.7680
   2   2.0000     -18.971636      -516.2445
   3   2.0000     -18.968636      -516.1628
   4   2.0000     -18.956789      -515.8405
   5   2.0000     -18.936768      -515.2957
   6   2.0000     -10.152418      -276.2613
   7   2.0000     -10.110338      -275.1163
   8   2.0000     -10.100523      -274.8492
   9   2.0000     -10.099907      -274.8324
  10   2.0000     -10.092905      -274.6419
  11   2.0000     -10.088103      -274.5112
  12   2.0000      -1.071386       -29.1539
  13   2.0000      -1.020847       -27.7787
  14   2.0000      -1.011197       -27.5161
  15   2.0000      -1.000869       -27.2350
  16   2.0000      -0.996522       -27.1167
  17   2.0000      -0.979618       -26.6568
  18   2.0000      -0.760136       -20.6843
  19   2.0000      -0.735899       -20.0248
  20   2.0000      -0.676550       -18.4099
  21   2.0000      -0.631472       -17.1832
  22   2.0000      -0.624706       -16.9991
  23   2.0000      -0.559208       -15.2168
  24   2.0000      -0.530391       -14.4327
  25   2.0000      -0.522730       -14.2242
  26   2.0000      -0.507477       -13.8092
  27   2.0000      -0.483268       -13.1504
  28   2.0000      -0.467638       -12.7251
  29   2.0000      -0.461944       -12.5701
  30   2.0000      -0.447289       -12.1714
  31   2.0000      -0.438716       -11.9381
  32   2.0000      -0.426471       -11.6049
  33   2.0000      -0.402330       -10.9479
  34   2.0000      -0.396182       -10.7807
  35   2.0000      -0.383563       -10.4373
  36   2.0000      -0.368099       -10.0165
  37   2.0000      -0.349216        -9.5026
  38   2.0000      -0.333770        -9.0823
  39   2.0000      -0.331282        -9.0146
  40   2.0000      -0.311244        -8.4694
  41   2.0000      -0.306201        -8.3321
  42   2.0000      -0.290091        -7.8938
  43   2.0000      -0.284459        -7.7405
  44   2.0000      -0.271513        -7.3883
  45   2.0000      -0.251184        -6.8351
  46   2.0000      -0.242760        -6.6058
  47   2.0000      -0.222274        -6.0484
  48   0.0000       0.018512         0.5037
  49   0.0000       0.038688         1.0527
  50   0.0000       0.056009         1.5241
  51   0.0000       0.069215         1.8834
  52   0.0000       0.083316         2.2671

MULLIKEN ATOMIC CHARGES
-----------------------
   0 C :   -0.232624
   1 C :   -0.005457
   2 H :    0.161348
   3 C :   -0.058756
   4 H :    0.171969
   5 C :   -0.093826
   6 H :    0.170712
   7 C :    0.027211
   8 H :    0.168272
   9 C :   -0.095514
  10 H :    0.152121
  11 O :   -0.222477
  12 O :   -0.418165
  13 O :   -0.410463
  14 O :   -0.412738
  15 O :   -0.445927
  16 O :   -0.469404
  17 H :    0.154134
  18 H :    0.150119
  19 H :    0.316629
  20 H :    0.316163
  21 H :    0.370078
  22 H :    0.330939
  23 H :    0.375659
Sum of atomic charges:   -0.0000000

LOEWDIN ATOMIC CHARGES
----------------------
   0 C :    0.026064
   1 C :    0.095544
   2 H :    0.205649
   3 C :    0.111477
   4 H :    0.196480
   5 C :    0.110544
   6 H :    0.208107
   7 C :    0.127400
   8 H :    0.209895
   9 C :    0.293821
  10 H :    0.212907
  11 O :   -0.671446
  12 O :   -0.532146
  13 O :   -0.579407
  14 O :   -0.576370
  15 O :   -0.585865
  16 O :   -0.612828
  17 H :    0.189105
  18 H :    0.173726
  19 H :    0.278042
  20 H :    0.275636
  21 H :    0.281868
  22 H :    0.277632
  23 H :    0.284167

  Mayer bond orders larger than 0.100000
B(  0-C ,  1-C ) :   0.9175 B(  0-C , 16-O ) :   0.9848 B(  0-C , 17-H ) :   0.9747
B(  0-C , 18-H ) :   0.9797 B(  1-C ,  2-H ) :   0.9417 B(  1-C ,  3-C ) :   0.8839
B(  1-C , 11-O ) :   0.9004 B(  3-C ,  4-H ) :   0.9712 B(  3-C ,  5-C ) :   0.8286
B(  3-C , 15-O ) :   0.9299 B(  5-C ,  6-H ) :   1.0086 B(  5-C ,  7-C ) :   0.8830
B(  5-C , 14-O ) :   1.0373 B(  7-C ,  8-H ) :   0.9636 B(  7-C ,  9-C ) :   0.8998
B(  7-C , 13-O ) :   0.9600 B(  9-C , 10-H ) :   0.9697 B(  9-C , 11-O ) :   0.9902
B(  9-C , 12-O ) :   0.9248 B( 12-O , 19-H ) :   0.8878 B( 13-O , 20-H ) :   0.8561
B( 14-O , 21-H ) :   0.7781 B( 15-O , 22-H ) :   0.8502 B( 16-O , 23-H ) :   0.7856

Dispersion correction           -0.008899197
FINAL SINGLE POINT ENERGY      -687.072957883400

DIPOLE MOMENT
-------------

Method             : SCF
Type of density    : Electron Density
Multiplicity       :   1
Irrep              :   0
Energy             :  -687.0870830040196324 Eh
Relativity type    :
Basis              : AO
                                X                 Y                 Z
Electronic contribution:      2.255195663       0.001155852       0.211587440
Nuclear contribution   :     -2.819532785      -1.327945782       0.557272039
                        -----------------------------------------
Total Dipole Moment    :     -0.564337122      -1.326789931       0.768859479
                        -----------------------------------------
Magnitude (a.u.)       :      1.634011263
Magnitude (Debye)      :      4.153326559

Rotational constants in cm-1:             0.039208             0.031059             0.028204
Rotational constants in MHz :          1175.438580           931.121320           845.549046

                             ****ORCA TERMINATED NORMALLY****
TOTAL RUN TIME: 0 days 0 hours 0 minutes 41 seconds 435 msec
