                         Program Version 6.0.1  -  RELEASE   -
|  1> ! pbe def2-sv(p) def2/J RI DEFGRID1 loosescf d4 GCP(DFT/SV(P)) printgap
|  2> %output
|  3>     printlevel normal
|  4> end
|  5> * xyz 0 1
|  6> C -2.3664042528 0.8344572532 -0.8676688649
|  7> N -1.5972418494 0.0855211973 0.0971567154
|  8> C -2.3427773017 -0.9434366692 0.7752743901
|  9> C -0.2203057037 0.0310141902 0.0312241362
| 10> C 0.516275251 1.1436874715 -0.3965047639
| 11> C 1.8950306564 1.1131806734 -0.431133969
| 12> C 2.5891272842 -0.0163526276 -0.0302928884
| 13> C 1.8756597234 -1.1173848011 0.4089311444
| 14> C 0.4946712326 -1.1013182357 0.4388613207
| 15> H -3.0569214428 0.1692926916 -1.3970368328
| 16> H -1.7163956447 1.2953893352 -1.6064008155
| 17> H -2.9531973456 1.617015947 -0.3752217237
| 18> H -3.3354331085 -0.5543451744 1.0051394546
| 19> H -1.8542400835 -1.2000823549 1.7140944531
| 20> H -2.4604745883 -1.854592966 0.1720290974
| 21> H 0.0061363744 2.0507111396 -0.6833348189
| 22> H 2.434724698 1.9878717719 -0.7655751582
| 23> H 3.6679915366 -0.0356080739 -0.0564318202
| 24> H 2.3992169502 -2.0086807112 0.7251492221
| 25> H -0.0270213004 -1.9862881353 0.7671954273
| 26> *
| 27>
| 28>                          ****END OF INPUT****

CARTESIAN COORDINATES (ANGSTROEM)
---------------------------------
  C     -2.366404    0.834457   -0.867669
  N     -1.597242    0.085521    0.097157
  C     -2.342777   -0.943437    0.775274
  C     -0.220306    0.031014    0.031224
  C      0.516275    1.143687   -0.396505
  C      1.895031    1.113181   -0.431134
  C      2.589127   -0.016353   -0.030293
  C      1.875660   -1.117385    0.408931
  C      0.494671   -1.101318    0.438861
  H     -3.056921    0.169293   -1.397037
  H     -1.716396    1.295389   -1.606401
  H     -2.953197    1.617016   -0.375222
  H     -3.335433   -0.554345    1.005139
  H     -1.854240   -1.200082    1.714094
  H     -2.460475   -1.854593    0.172029
  H      0.006136    2.050711   -0.683335
  H      2.434725    1.987872   -0.765575
  H      3.667992   -0.035608   -0.056432
  H      2.399217   -2.008681    0.725149
  H     -0.027021   -1.986288    0.767195

 Total Charge           Charge          ....    0
 Multiplicity           Mult            ....    1
 Number of Electrons    NEL             ....   66
 Basis Dimension        Dim             ....  148

ORBITAL ENERGIES
----------------

  NO   OCC          E(Eh)            E(eV)
   0   2.0000     -14.004912      -381.0930
   1   2.0000      -9.922716      -270.0108
   2   2.0000      -9.915120      -269.8041
   3   2.0000      -9.914581      -269.7895
   4   2.0000      -9.880522      -268.8627
   5   2.0000      -9.880485      -268.8617
   6   2.0000      -9.876473      -268.7525
   7   2.0000      -9.876357      -268.7493
   8   2.0000      -9.871606      -268.6201
   9   2.0000      -0.860313       -23.4103
  10   2.0000      -0.756766       -20.5926
  11   2.0000      -0.666785       -18.1441
  12   2.0000      -0.666230       -18.1290
  13   2.0000      -0.643718       -17.5165
  14   2.0000      -0.586751       -15.9663
  15   2.0000      -0.530980       -14.4487
  16   2.0000      -0.509068       -13.8524
  17   2.0000      -0.476071       -12.9545
  18   2.0000      -0.428469       -11.6592
  19   2.0000      -0.419801       -11.4234
  20   2.0000      -0.419106       -11.4045
  21   2.0000      -0.389802       -10.6071
  22   2.0000      -0.372900       -10.1471
  23   2.0000      -0.367122        -9.9899
  24   2.0000      -0.357881        -9.7384
  25   2.0000      -0.349060        -9.4984
  26   2.0000      -0.337258        -9.1772
  27   2.0000      -0.321368        -8.7449
  28   2.0000      -0.304820        -8.2946
  29   2.0000      -0.287264        -7.8169
  30   2.0000      -0.245285        -6.6745
  31   2.0000      -0.217385        -5.9153
  32   2.0000      -0.159083        -4.3289
  33   0.0000      -0.022985        -0.6255
  34   0.0000      -0.007935        -0.2159
  35   0.0000       0.035468         0.9651
  36   0.0000       0.058260         1.5853
  37   0.0000       0.071015         1.9324

MULLIKEN ATOMIC CHARGES
-----------------------
   0 C :   -0.177938
   1 N :   -0.251224
   2 C :   -0.175212
   3 C :    0.237409
   4 C :   -0.155346
   5 C :   -0.059611
   6 C :   -0.053052
   7 C :   -0.056111
   8 C :   -0.170655
   9 H :    0.100615
  10 H :    0.127372
  11 H :    0.107459
  12 H :    0.110805
  13 H :    0.123622
  14 H :    0.098526
  15 H :    0.034179
  16 H :    0.044649
  17 H :    0.040972
  18 H :    0.044835
  19 H :    0.028706
Sum of atomic charges:   -0.0000000

LOEWDIN ATOMIC CHARGES
----------------------
   0 C :   -0.247604
   1 N :   -0.075819
   2 C :   -0.251080
   3 C :    0.004666
   4 C :   -0.160946
   5 C :   -0.119131
   6 C :   -0.159668
   7 C :   -0.117725
   8 C :   -0.169559
   9 H :    0.111741
  10 H :    0.125284
  11 H :    0.111285
  12 H :    0.118791
  13 H :    0.123515
  14 H :    0.104220
  15 H :    0.120815
  16 H :    0.120478
  17 H :    0.118757
  18 H :    0.120427
  19 H :    0.121552

  Mayer bond orders larger than 0.100000
B(  0-C ,  1-N ) :   1.0287 B(  0-C ,  9-H ) :   0.9420 B(  0-C , 10-H ) :   0.9409
B(  0-C , 11-H ) :   0.9530 B(  1-N ,  2-C ) :   1.0511 B(  1-N ,  3-C ) :   1.1227
B(  2-C , 12-H ) :   0.9479 B(  2-C , 13-H ) :   0.9432 B(  2-C , 14-H ) :   0.9354
B(  3-C ,  4-C ) :   1.3155 B(  3-C ,  8-C ) :   1.3195 B(  4-C ,  5-C ) :   1.4077
B(  4-C , 15-H ) :   0.9514 B(  5-C ,  6-C ) :   1.3568 B(  5-C , 16-H ) :   0.9600
B(  6-C ,  7-C ) :   1.3738 B(  6-C , 17-H ) :   0.9679 B(  7-C ,  8-C ) :   1.3782
B(  7-C , 18-H ) :   0.9604 B(  8-C , 19-H ) :   0.9566

Dispersion correction           -0.020369480
FINAL SINGLE POINT ENERGY      -365.377922578305

DIPOLE MOMENT
-------------

Method             : SCF
Type of density    : Electron Density
Multiplicity       :   1
Irrep              :   0
Energy             :  -365.4388987330647751 Eh
Relativity type    :
Basis              : AO
                                X                 Y                 Z
Electronic contribution:      5.707830501       0.449575039       0.393390418
Nuclear contribution   :     -6.477998263      -0.486737347      -0.468920606
                        -----------------------------------------
Total Dipole Moment    :     -0.770167762      -0.037162308      -0.075530188
                        -----------------------------------------
Magnitude (a.u.)       :      0.774754302
Magnitude (Debye)      :      1.969268935

Rotational constants in cm-1:             0.119613             0.040420             0.031126
Rotational constants in MHz :          3585.911512          1211.756477           933.120787

                             ****ORCA TERMINATED NORMALLY****
TOTAL RUN TIME: 0 days 0 hours 0 minutes 9 seconds 113 msec
