                         Program Version 6.0.1  -  RELEASE   -
|  1> ! pbe def2-sv(p) def2/J RI DEFGRID1 loosescf d4 GCP(DFT/SV(P)) printgap
|  2> %output
|  3>     printlevel normal
|  4> end
|  5> * xyz 0 1
|  6> C -2.0267997325 -0.5962829052 -0.6639148924
|  7> C -1.203062859 -0.0643846051 0.5369153028
|  8> H -1.853927 0.0174150097 1.4163003428
|  9> C -0.6257728824 1.332906962 0.2686926325
| 10> H -1.3643297121 1.8997529837 -0.3194897728
| 11> C 0.698027219 1.2897721721 -0.5365982213
| 12> H 1.1578671533 2.2877812209 -0.4729859632
| 13> C 1.6580718487 0.2686187564 0.1013655441
| 14> H 2.5436328999 0.1560616118 -0.531968957
| 15> C 0.9416556473 -1.0940120848 0.1912485915
| 16> H 1.5712961236 -1.7977163482 0.7606749516
| 17> O -0.2279599548 -1.0081024034 0.9552641544
| 18> O 0.7170754495 -1.5739123569 -1.1061614123
| 19> O 2.1056955302 0.6803950343 1.3600422208
| 20> O 0.4727318292 1.0347280206 -1.8948312783
| 21> O -0.4329997106 1.9363204952 1.5319047904
| 22> O -2.0197218554 -2.0040529103 -0.7085937407
| 23> H -1.6036363538 -0.2627395069 -1.6128846767
| 24> H -3.0524161926 -0.2131022777 -0.5865171168
| 25> H -0.0766319247 -2.1394647478 -1.089531999
| 26> H 1.3295928095 0.7921084926 1.9318053977
| 27> H 0.557293423 0.0753276619 -2.0342021691
| 28> H -0.0585576537 2.8168387127 1.4101538455
| 29> H -2.2616687608 -2.3409612886 0.1629794243
| 30> *
| 31>
| 32>                          ****END OF INPUT****

CARTESIAN COORDINATES (ANGSTROEM)
---------------------------------
  C     -2.026800   -0.596283   -0.663915
  C     -1.203063   -0.064385    0.536915
  H     -1.853927    0.017415    1.416300
  C     -0.625773    1.332907    0.268693
  H     -1.364330    1.899753   -0.319490
  C      0.698027    1.289772   -0.536598
  H      1.157867    2.287781   -0.472986
  C      1.658072    0.268619    0.101366
  H      2.543633    0.156062   -0.531969
  C      0.941656   -1.094012    0.191249
  H      1.571296   -1.797716    0.760675
  O     -0.227960   -1.008102    0.955264
  O      0.717075   -1.573912   -1.106161
  O      2.105696    0.680395    1.360042
  O      0.472732    1.034728   -1.894831
  O     -0.433000    1.936320    1.531905
  O     -2.019722   -2.004053   -0.708594
  H     -1.603636   -0.262740   -1.612885
  H     -3.052416   -0.213102   -0.586517
  H     -0.076632   -2.139465   -1.089532
  H      1.329593    0.792108    1.931805
  H      0.557293    0.075328   -2.034202
  H     -0.058558    2.816839    1.410154
  H     -2.261669   -2.340961    0.162979

 Total Charge           Charge          ....    0
 Multiplicity           Mult            ....    1
 Number of Electrons    NEL             ....   96
 Basis Dimension        Dim             ....  192

ORBITAL ENERGIES
----------------

  NO   OCC          E(Eh)            E(eV)
   0   2.0000     -18.780911      -511.0546
   1   2.0000     -18.778311      -510.9838
   2   2.0000     -18.774101      -510.8693
   3   2.0000     -18.772211      -510.8178
   4   2.0000     -18.745207      -510.0830
   5   2.0000     -18.744674      -510.0685
   6   2.0000      -9.988806      -271.8092
   7   2.0000      -9.957787      -270.9652
   8   2.0000      -9.954706      -270.8813
   9   2.0000      -9.948000      -270.6988
  10   2.0000      -9.945528      -270.6316
  11   2.0000      -9.941426      -270.5200
  12   2.0000      -0.997705       -27.1489
  13   2.0000      -0.953327       -25.9413
  14   2.0000      -0.948871       -25.8201
  15   2.0000      -0.929157       -25.2836
  16   2.0000      -0.924478       -25.1563
  17   2.0000      -0.915515       -24.9124
  18   2.0000      -0.714679       -19.4474
  19   2.0000      -0.686495       -18.6805
  20   2.0000      -0.630671       -17.1614
  21   2.0000      -0.592744       -16.1294
  22   2.0000      -0.589948       -16.0533
  23   2.0000      -0.529773       -14.4159
  24   2.0000      -0.511703       -13.9242
  25   2.0000      -0.493967       -13.4415
  26   2.0000      -0.478017       -13.0075
  27   2.0000      -0.461266       -12.5517
  28   2.0000      -0.443494       -12.0681
  29   2.0000      -0.433297       -11.7906
  30   2.0000      -0.421466       -11.4687
  31   2.0000      -0.411004       -11.1840
  32   2.0000      -0.407526       -11.0893
  33   2.0000      -0.383318       -10.4306
  34   2.0000      -0.366848        -9.9824
  35   2.0000      -0.360536        -9.8107
  36   2.0000      -0.348777        -9.4907
  37   2.0000      -0.330103        -8.9826
  38   2.0000      -0.318391        -8.6639
  39   2.0000      -0.307845        -8.3769
  40   2.0000      -0.282988        -7.7005
  41   2.0000      -0.276424        -7.5219
  42   2.0000      -0.259336        -7.0569
  43   2.0000      -0.253386        -6.8950
  44   2.0000      -0.246718        -6.7135
  45   2.0000      -0.242108        -6.5881
  46   2.0000      -0.217318        -5.9135
  47   2.0000      -0.201876        -5.4933
  48   0.0000       0.009172         0.2496
  49   0.0000       0.015275         0.4156
  50   0.0000       0.046455         1.2641
  51   0.0000       0.049870         1.3570
  52   0.0000       0.068262         1.8575

MULLIKEN ATOMIC CHARGES
-----------------------
   0 C :    0.004517
   1 C :    0.016905
   2 H :    0.083240
   3 C :    0.029088
   4 H :    0.080214
   5 C :    0.032211
   6 H :    0.065150
   7 C :    0.035016
   8 H :    0.091901
   9 C :    0.186319
  10 H :    0.075358
  11 O :   -0.311383
  12 O :   -0.433418
  13 O :   -0.424805
  14 O :   -0.418272
  15 O :   -0.415013
  16 O :   -0.429023
  17 H :    0.096626
  18 H :    0.093798
  19 H :    0.315609
  20 H :    0.297076
  21 H :    0.313017
  22 H :    0.307323
  23 H :    0.308546
Sum of atomic charges:    0.0000000

LOEWDIN ATOMIC CHARGES
----------------------
   0 C :   -0.150782
   1 C :   -0.073332
   2 H :    0.120811
   3 C :   -0.076827
   4 H :    0.110215
   5 C :   -0.077342
   6 H :    0.106651
   7 C :   -0.085789
   8 H :    0.123836
   9 C :   -0.002902
  10 H :    0.102249
  11 O :   -0.138232
  12 O :   -0.321474
  13 O :   -0.313134
  14 O :   -0.321584
  15 O :   -0.309685
  16 O :   -0.316590
  17 H :    0.114460
  18 H :    0.109673
  19 H :    0.279981
  20 H :    0.269563
  21 H :    0.272909
  22 H :    0.288873
  23 H :    0.288451

  Mayer bond orders larger than 0.100000
B(  0-C ,  1-C ) :   1.0300 B(  0-C , 16-O ) :   1.0278 B(  0-C , 17-H ) :   0.9046
B(  0-C , 18-H ) :   0.9137 B(  1-C ,  2-H ) :   0.8913 B(  1-C ,  3-C ) :   1.0057
B(  1-C , 11-O ) :   1.0273 B(  3-C ,  4-H ) :   0.8923 B(  3-C ,  5-C ) :   0.9542
B(  3-C , 15-O ) :   1.0240 B(  5-C ,  6-H ) :   0.9040 B(  5-C ,  7-C ) :   0.9769
B(  5-C , 14-O ) :   1.0900 B(  7-C ,  8-H ) :   0.8939 B(  7-C ,  9-C ) :   0.9822
B(  7-C , 13-O ) :   1.0642 B(  9-C , 10-H ) :   0.9070 B(  9-C , 11-O ) :   1.0509
B(  9-C , 12-O ) :   1.0643 B( 12-O , 19-H ) :   0.7742 B( 12-O , 21-H ) :   0.1197
B( 13-O , 20-H ) :   0.8129 B( 14-O , 21-H ) :   0.7838 B( 15-O , 22-H ) :   0.8382
B( 16-O , 19-H ) :   0.1213 B( 16-O , 23-H ) :   0.8407

Dispersion correction           -0.026689263
FINAL SINGLE POINT ENERGY      -685.703212634731

DIPOLE MOMENT
-------------

Method             : SCF
Type of density    : Electron Density
Multiplicity       :   1
Irrep              :   0
Energy             :  -685.8399751990579034 Eh
Relativity type    :
Basis              : AO
                                X                 Y                 Z
Electronic contribution:      1.923907806      -1.111922525       1.312601442
Nuclear contribution   :     -2.909994162       1.197614522      -0.903920795
                        -----------------------------------------
Total Dipole Moment    :     -0.986086355       0.085691997       0.408680648
                        -----------------------------------------
Magnitude (a.u.)       :      1.070854467
Magnitude (Debye)      :      2.721895744

Rotational constants in cm-1:             0.043019             0.029453             0.026337
Rotational constants in MHz :          1289.677517           882.963928           789.557196

                             ****ORCA TERMINATED NORMALLY****
TOTAL RUN TIME: 0 days 0 hours 0 minutes 8 seconds 447 msec
