                         Program Version 6.0.1  -  RELEASE   -
|  1> ! pbe def2-sv(p) def2/J RI DEFGRID1 loosescf d4 GCP(DFT/SV(P)) printgap
|  2> %output
|  3>     printlevel normal
|  4> end
|  5> * xyz 0 1
|  6> C -2.8612996143 -0.3959404333 0.1151608411
|  7> N -1.8191240136 0.5679034119 -0.1348810127
|  8> C -0.4815534324 0.2489993588 -0.039026596
|  9> C -0.0208551722 -1.0688440613 -0.0467278173
| 10> C 1.3351468931 -1.3350984729 -0.013546915
| 11> C 2.2599067205 -0.3068299673 0.0306607909
| 12> C 1.8117338215 1.004628764 0.0417389302
| 13> C 0.4613066067 1.2811112936 0.0098051189
| 14> H -3.8260380788 0.0977062972 0.0164888194
| 15> H -2.7959267904 -0.8436115421 1.1155391045
| 16> H -2.8108089196 -1.194750418 -0.6262785057
| 17> H -2.0382393892 1.5137068507 0.1391593649
| 18> H -0.7203590395 -1.8891940291 -0.0784772717
| 19> H 1.6713570321 -2.3622496267 -0.0194732392
| 20> H 3.3171610691 -0.5227075256 0.0585034436
| 21> H 2.5215939509 1.8185243905 0.0796984198
| 22> H 0.1170635218 2.3065970463 0.0206508974
| 23> *
| 24>
| 25>                          ****END OF INPUT****

CARTESIAN COORDINATES (ANGSTROEM)
---------------------------------
  C     -2.861300   -0.395940    0.115161
  N     -1.819124    0.567903   -0.134881
  C     -0.481553    0.248999   -0.039027
  C     -0.020855   -1.068844   -0.046728
  C      1.335147   -1.335098   -0.013547
  C      2.259907   -0.306830    0.030661
  C      1.811734    1.004629    0.041739
  C      0.461307    1.281111    0.009805
  H     -3.826038    0.097706    0.016489
  H     -2.795927   -0.843612    1.115539
  H     -2.810809   -1.194750   -0.626279
  H     -2.038239    1.513707    0.139159
  H     -0.720359   -1.889194   -0.078477
  H      1.671357   -2.362250   -0.019473
  H      3.317161   -0.522708    0.058503
  H      2.521594    1.818524    0.079698
  H      0.117064    2.306597    0.020651

 Total Charge           Charge          ....    0
 Multiplicity           Mult            ....    1
 Number of Electrons    NEL             ....   58
 Basis Dimension        Dim             ....  130

ORBITAL ENERGIES
----------------

  NO   OCC          E(Eh)            E(eV)
   0   2.0000     -13.997997      -380.9049
   1   2.0000      -9.922802      -270.0132
   2   2.0000      -9.917592      -269.8714
   3   2.0000      -9.881767      -268.8965
   4   2.0000      -9.881605      -268.8921
   5   2.0000      -9.877883      -268.7908
   6   2.0000      -9.876898      -268.7641
   7   2.0000      -9.872315      -268.6394
   8   2.0000      -0.847345       -23.0574
   9   2.0000      -0.754774       -20.5384
  10   2.0000      -0.666044       -18.1240
  11   2.0000      -0.658428       -17.9167
  12   2.0000      -0.607709       -16.5366
  13   2.0000      -0.542612       -14.7652
  14   2.0000      -0.519629       -14.1398
  15   2.0000      -0.477533       -12.9943
  16   2.0000      -0.442619       -12.0443
  17   2.0000      -0.414459       -11.2780
  18   2.0000      -0.395782       -10.7698
  19   2.0000      -0.385458       -10.4889
  20   2.0000      -0.371793       -10.1170
  21   2.0000      -0.364804        -9.9268
  22   2.0000      -0.345815        -9.4101
  23   2.0000      -0.326908        -8.8956
  24   2.0000      -0.305285        -8.3072
  25   2.0000      -0.289156        -7.8683
  26   2.0000      -0.256704        -6.9853
  27   2.0000      -0.218268        -5.9394
  28   2.0000      -0.165007        -4.4901
  29   0.0000      -0.023154        -0.6300
  30   0.0000      -0.005876        -0.1599
  31   0.0000       0.033262         0.9051
  32   0.0000       0.053277         1.4497
  33   0.0000       0.059336         1.6146

MULLIKEN ATOMIC CHARGES
-----------------------
   0 C :   -0.181282
   1 N :   -0.283033
   2 C :    0.208130
   3 C :   -0.163110
   4 C :   -0.057005
   5 C :   -0.054387
   6 C :   -0.062574
   7 C :   -0.135617
   8 H :    0.109531
   9 H :    0.103493
  10 H :    0.120994
  11 H :    0.215444
  12 H :    0.025667
  13 H :    0.045898
  14 H :    0.041658
  15 H :    0.046278
  16 H :    0.019913
Sum of atomic charges:   -0.0000000

LOEWDIN ATOMIC CHARGES
----------------------
   0 C :   -0.261398
   1 N :   -0.182953
   2 C :   -0.000341
   3 C :   -0.170643
   4 C :   -0.115786
   5 C :   -0.160843
   6 C :   -0.118868
   7 C :   -0.159786
   8 H :    0.121574
   9 H :    0.105892
  10 H :    0.119352
  11 H :    0.225854
  12 H :    0.121075
  13 H :    0.120831
  14 H :    0.118886
  15 H :    0.121036
  16 H :    0.116116

  Mayer bond orders larger than 0.100000
B(  0-C ,  1-N ) :   1.0655 B(  0-C ,  8-H ) :   0.9585 B(  0-C ,  9-H ) :   0.9423
B(  0-C , 10-H ) :   0.9449 B(  1-N ,  2-C ) :   1.1893 B(  1-N , 11-H ) :   0.8673
B(  2-C ,  3-C ) :   1.3250 B(  2-C ,  7-C ) :   1.3117 B(  3-C ,  4-C ) :   1.3741
B(  3-C , 12-H ) :   0.9603 B(  4-C ,  5-C ) :   1.3810 B(  4-C , 13-H ) :   0.9608
B(  5-C ,  6-C ) :   1.3544 B(  5-C , 14-H ) :   0.9671 B(  6-C ,  7-C ) :   1.4100
B(  6-C , 15-H ) :   0.9610 B(  7-C , 16-H ) :   0.9588

Dispersion correction           -0.016411024
FINAL SINGLE POINT ENERGY      -326.172912038790

DIPOLE MOMENT
-------------

Method             : SCF
Type of density    : Electron Density
Multiplicity       :   1
Irrep              :   0
Energy             :  -326.2248420922472292 Eh
Relativity type    :
Basis              : AO
                                X                 Y                 Z
Electronic contribution:      3.518995962       1.218290087      -0.464438531
Nuclear contribution   :     -4.291959918      -1.006335409       0.661430148
                        -----------------------------------------
Total Dipole Moment    :     -0.772963956       0.211954678       0.196991617
                        -----------------------------------------
Magnitude (a.u.)       :      0.825350689
Magnitude (Debye)      :      2.097874729

Rotational constants in cm-1:             0.168420             0.051079             0.039594
Rotational constants in MHz :          5049.103340          1531.303532          1186.994752

                             ****ORCA TERMINATED NORMALLY****
TOTAL RUN TIME: 0 days 0 hours 0 minutes 5 seconds 649 msec
