                         Program Version 6.0.1  -  RELEASE   -
|  1> ! r2scan-3c def2/J RI DEFGRID2 scfconv6 printgap
|  2> %output
|  3>     printlevel normal
|  4> end
|  5> * xyz 0 1
|  6> C 0.4087245609 -1.2858074336 3.9783e-06
|  7> C 1.7598876757 -0.9760056267 -0.0002188659
|  8> N 2.2205888554 0.2628183393 -0.0001515622
|  9> C 1.352368544 1.2601558466 8.27083e-05
| 10> C -0.0201067814 1.0716906078 0.0002434191
| 11> C -0.5076416763 -0.235446564 0.0002248436
| 12> C -1.9597773735 -0.4922059305 0.0003954894
| 13> O -2.8103246017 0.3569719475 -0.0005108742
| 14> H 0.0725562069 -2.3118026408 -2.30581e-05
| 15> H 2.5125090137 -1.7534041322 -0.0004054159
| 16> H 1.78249175 2.2528362423 0.0001208902
| 17> H -0.7115286025 1.899854569 0.0003922765
| 18> H -2.2198163305 -1.5696663925 0.0014131216
| 19> *
| 20>
| 21>                          ****END OF INPUT****

CARTESIAN COORDINATES (ANGSTROEM)
---------------------------------
  C      0.408725   -1.285807    0.000004
  C      1.759888   -0.976006   -0.000219
  N      2.220589    0.262818   -0.000152
  C      1.352369    1.260156    0.000083
  C     -0.020107    1.071691    0.000243
  C     -0.507642   -0.235447    0.000225
  C     -1.959777   -0.492206    0.000395
  O     -2.810325    0.356972   -0.000511
  H      0.072556   -2.311803   -0.000023
  H      2.512509   -1.753404   -0.000405
  H      1.782492    2.252836    0.000121
  H     -0.711529    1.899855    0.000392
  H     -2.219816   -1.569666    0.001413

 Total Charge           Charge          ....    0
 Multiplicity           Mult            ....    1
 Number of Electrons    NEL             ....   56
 Basis Dimension        Dim             ....  187

ORBITAL ENERGIES
----------------

  NO   OCC          E(Eh)            E(eV)
   0   2.0000     -18.965932      -516.0893
   1   2.0000     -14.175259      -385.7284
   2   2.0000     -10.135721      -275.8070
   3   2.0000     -10.087104      -274.4841
   4   2.0000     -10.085251      -274.4336
   5   2.0000     -10.076985      -274.2087
   6   2.0000     -10.070802      -274.0404
   7   2.0000     -10.064634      -273.8726
   8   2.0000      -1.033018       -28.1098
   9   2.0000      -0.935998       -25.4698
  10   2.0000      -0.806004       -21.9325
  11   2.0000      -0.753567       -20.5056
  12   2.0000      -0.658381       -17.9154
  13   2.0000      -0.625327       -17.0160
  14   2.0000      -0.567490       -15.4422
  15   2.0000      -0.506412       -13.7802
  16   2.0000      -0.476787       -12.9740
  17   2.0000      -0.457557       -12.4508
  18   2.0000      -0.425279       -11.5724
  19   2.0000      -0.417115       -11.3503
  20   2.0000      -0.410666       -11.1748
  21   2.0000      -0.408164       -11.1067
  22   2.0000      -0.379536       -10.3277
  23   2.0000      -0.349796        -9.5184
  24   2.0000      -0.290750        -7.9117
  25   2.0000      -0.268872        -7.3164
  26   2.0000      -0.247024        -6.7219
  27   2.0000      -0.238546        -6.4912
  28   0.0000      -0.118827        -3.2335
  29   0.0000      -0.060931        -1.6580
  30   0.0000      -0.014947        -0.4067
  31   0.0000       0.073811         2.0085
  32   0.0000       0.088090         2.3970

MULLIKEN ATOMIC CHARGES
-----------------------
   0 C :   -0.153341
   1 C :   -0.100076
   2 N :   -0.157898
   3 C :   -0.112188
   4 C :   -0.091330
   5 C :    0.202253
   6 C :    0.019050
   7 O :   -0.325104
   8 H :    0.157360
   9 H :    0.136894
  10 H :    0.137637
  11 H :    0.180796
  12 H :    0.105948
Sum of atomic charges:    0.0000000

LOEWDIN ATOMIC CHARGES
----------------------
   0 C :   -0.117163
   1 C :    0.087761
   2 N :   -0.596366
   3 C :    0.089806
   4 C :   -0.085955
   5 C :   -0.069669
   6 C :    0.222027
   7 O :   -0.430214
   8 H :    0.176270
   9 H :    0.187928
  10 H :    0.188499
  11 H :    0.189190
  12 H :    0.157884

  Mayer bond orders larger than 0.100000
B(  0-C ,  1-C ) :   1.3514 B(  0-C ,  5-C ) :   1.3423 B(  0-C ,  8-H ) :   0.9243
B(  1-C ,  2-N ) :   1.4739 B(  1-C ,  9-H ) :   0.9911 B(  2-N ,  3-C ) :   1.4379
B(  3-C ,  4-C ) :   1.3424 B(  3-C , 10-H ) :   0.9931 B(  4-C ,  5-C ) :   1.3156
B(  4-C , 11-H ) :   0.9500 B(  5-C ,  6-C ) :   0.8211 B(  5-C ,  7-O ) :  -0.1074
B(  5-C , 12-H ) :  -0.1091 B(  6-C ,  7-O ) :   1.9732 B(  6-C , 12-H ) :   1.0308

Dispersion correction           -0.004112521
FINAL SINGLE POINT ENERGY      -361.521010519383

DIPOLE MOMENT
-------------

Method             : SCF
Type of density    : Electron Density
Multiplicity       :   1
Irrep              :   0
Energy             :  -361.5228347696391893 Eh
Relativity type    :
Basis              : AO
                                X                 Y                 Z
Electronic contribution:     -1.039876450       0.766674683      -0.000714936
Nuclear contribution   :      1.318000487      -1.383812584       0.001396810
                        -----------------------------------------
Total Dipole Moment    :      0.278124037      -0.617137901       0.000681875
                        -----------------------------------------
Magnitude (a.u.)       :      0.676914052
Magnitude (Debye)      :      1.720578783

Rotational constants in cm-1:             0.186327             0.052535             0.040981
Rotational constants in MHz :          5585.939031          1574.973857          1228.573582

                             ****ORCA TERMINATED NORMALLY****
TOTAL RUN TIME: 0 days 0 hours 0 minutes 15 seconds 207 msec
