                         Program Version 6.0.1  -  RELEASE   -
|  1> ! r2scan-3c def2/J RI DEFGRID2 scfconv6 printgap
|  2> %output
|  3>     printlevel normal
|  4> end
|  5> * xyz 0 1
|  6> C -0.7510161272 -1.1574149271 0.0875459942
|  7> N 5.2098e-06 -5.0687e-06 -0.348928377
|  8> C -0.626873369 1.2290883331 0.0875478343
|  9> C 1.3778840709 -0.0716695193 0.0875483538
| 10> H -0.2804308011 -2.0574566638 -0.3056462874
| 11> H -1.7643549183 -1.0949460807 -0.3066274405
| 12> H -0.8060864199 -1.241233772 1.1853579834
| 13> H -0.6723271177 1.3185365842 1.1853608954
| 14> H -1.6414815588 1.2717335291 -0.3060378845
| 15> H -0.0658673778 2.0754396342 -0.306297698
| 16> H 1.4780561778 -0.0772503643 1.1853573985
| 17> H 1.9220832028 0.7857896387 -0.3058437533
| 18> H 1.8304010647 -0.9805883839 -0.3064647198
| 19> *
| 20>
| 21>                          ****END OF INPUT****

CARTESIAN COORDINATES (ANGSTROEM)
---------------------------------
  C     -0.751016   -1.157415    0.087546
  N      0.000005   -0.000005   -0.348928
  C     -0.626873    1.229088    0.087548
  C      1.377884   -0.071670    0.087548
  H     -0.280431   -2.057457   -0.305646
  H     -1.764355   -1.094946   -0.306627
  H     -0.806086   -1.241234    1.185358
  H     -0.672327    1.318537    1.185361
  H     -1.641482    1.271734   -0.306038
  H     -0.065867    2.075440   -0.306298
  H      1.478056   -0.077250    1.185357
  H      1.922083    0.785790   -0.305844
  H      1.830401   -0.980588   -0.306465

 Total Charge           Charge          ....    0
 Multiplicity           Mult            ....    1
 Number of Electrons    NEL             ....   34
 Basis Dimension        Dim             ....  126

ORBITAL ENERGIES
----------------

  NO   OCC          E(Eh)            E(eV)
   0   2.0000     -14.148730      -385.0065
   1   2.0000     -10.041826      -273.2520
   2   2.0000     -10.041823      -273.2519
   3   2.0000     -10.041821      -273.2518
   4   2.0000      -0.886921       -24.1343
   5   2.0000      -0.669451       -18.2167
   6   2.0000      -0.669446       -18.2166
   7   2.0000      -0.554545       -15.0899
   8   2.0000      -0.433717       -11.8020
   9   2.0000      -0.433716       -11.8020
  10   2.0000      -0.431366       -11.7381
  11   2.0000      -0.359715        -9.7883
  12   2.0000      -0.359709        -9.7882
  13   2.0000      -0.334564        -9.1040
  14   2.0000      -0.327106        -8.9010
  15   2.0000      -0.327102        -8.9009
  16   2.0000      -0.180988        -4.9249
  17   0.0000       0.075442         2.0529
  18   0.0000       0.117121         3.1870
  19   0.0000       0.136315         3.7093
  20   0.0000       0.136317         3.7094
  21   0.0000       0.151524         4.1232

MULLIKEN ATOMIC CHARGES
-----------------------
   0 C :   -0.348701
   1 N :   -0.186777
   2 C :   -0.348783
   3 C :   -0.348642
   4 H :    0.142289
   5 H :    0.142328
   6 H :    0.126364
   7 H :    0.126352
   8 H :    0.142294
   9 H :    0.142322
  10 H :    0.126340
  11 H :    0.142283
  12 H :    0.142330
Sum of atomic charges:    0.0000000

LOEWDIN ATOMIC CHARGES
----------------------
   0 C :   -0.152379
   1 N :   -1.033586
   2 C :   -0.152383
   3 C :   -0.152376
   4 H :    0.172945
   5 H :    0.172944
   6 H :    0.151021
   7 H :    0.151019
   8 H :    0.172944
   9 H :    0.172943
  10 H :    0.151022
  11 H :    0.172944
  12 H :    0.172941

  Mayer bond orders larger than 0.100000
B(  0-C ,  1-N ) :   0.9601 B(  0-C ,  4-H ) :   0.9723 B(  0-C ,  5-H ) :   0.9724
B(  0-C ,  6-H ) :   0.9487 B(  1-N ,  2-C ) :   0.9601 B(  1-N ,  3-C ) :   0.9602
B(  2-C ,  7-H ) :   0.9487 B(  2-C ,  8-H ) :   0.9723 B(  2-C ,  9-H ) :   0.9724
B(  3-C , 10-H ) :   0.9487 B(  3-C , 11-H ) :   0.9723 B(  3-C , 12-H ) :   0.9724

Dispersion correction           -0.002540558
FINAL SINGLE POINT ENERGY      -174.401625770285

DIPOLE MOMENT
-------------

Method             : SCF
Type of density    : Electron Density
Multiplicity       :   1
Irrep              :   0
Energy             :  -174.4129241043825402 Eh
Relativity type    :
Basis              : AO
                                X                 Y                 Z
Electronic contribution:      0.000036637      -0.000050974      -1.361738810
Nuclear contribution   :     -0.000007241       0.000022602       1.610942917
                        -----------------------------------------
Total Dipole Moment    :      0.000029397      -0.000028372       0.249204106
                        -----------------------------------------
Magnitude (a.u.)       :      0.249204110
Magnitude (Debye)      :      0.633426507

Rotational constants in cm-1:             0.293460             0.293448             0.166419
Rotational constants in MHz :          8797.719849          8797.335084          4989.110157

                             ****ORCA TERMINATED NORMALLY****
TOTAL RUN TIME: 0 days 0 hours 0 minutes 16 seconds 766 msec
