                         Program Version 6.0.0  -   RELEASE  -
|  1> ! r2SCAN-3c DEF2-TZVP FREQ
|  2> * xyzfile 0 1 censo.xyz
|  3>
|  4>                          ****END OF INPUT****

CARTESIAN COORDINATES (ANGSTROEM)
---------------------------------
  C      0.236052    1.378171   -0.000304
  C      1.311532    0.484893   -0.000269
  C      1.075311   -0.893280   -0.000186
  C     -0.236072   -1.378102   -0.000157
  C     -1.311550   -0.484814   -0.000192
  C     -1.075318    0.893357   -0.000254
  Cl    -2.404191    1.997094   -0.000284
  Cl    -2.931897   -1.083551   -0.000139
  Cl    -0.527603   -3.080826   -0.000050
  Cl     2.404202   -1.997030   -0.000141
  Cl     2.931913    1.083524   -0.000290
  Cl     0.527553    3.080872   -0.000334

 Total Charge           Charge          ....    0
 Multiplicity           Mult            ....    1
 Number of Electrons    NEL             ....  138
 Basis Dimension        Dim             ....  408

ORBITAL ENERGIES
----------------

  NO   OCC          E(Eh)            E(eV)
   0   2.0000    -101.221898     -2754.3879
   1   2.0000    -101.221894     -2754.3878
   2   2.0000    -101.221887     -2754.3876
   3   2.0000    -101.221883     -2754.3875
   4   2.0000    -101.221862     -2754.3869
   5   2.0000    -101.221856     -2754.3867
   6   2.0000     -10.147702      -276.1330
   7   2.0000     -10.147537      -276.1285
   8   2.0000     -10.147532      -276.1284
   9   2.0000     -10.147118      -276.1171
  10   2.0000     -10.147113      -276.1170
  11   2.0000     -10.146908      -276.1114
  12   2.0000      -9.397653      -255.7231
  13   2.0000      -9.397650      -255.7231
  14   2.0000      -9.397642      -255.7228
  15   2.0000      -9.397638      -255.7227
  16   2.0000      -9.397619      -255.7222
  17   2.0000      -9.397613      -255.7221
  18   2.0000      -7.143062      -194.3726
  19   2.0000      -7.143061      -194.3726
  20   2.0000      -7.143053      -194.3723
  21   2.0000      -7.143051      -194.3723
  22   2.0000      -7.143029      -194.3717
  23   2.0000      -7.143027      -194.3716
  24   2.0000      -7.132672      -194.0899
  25   2.0000      -7.132672      -194.0899
  26   2.0000      -7.132663      -194.0896
  27   2.0000      -7.132661      -194.0896
  28   2.0000      -7.132640      -194.0890
  29   2.0000      -7.132639      -194.0890
  30   2.0000      -7.131568      -194.0598
  31   2.0000      -7.131566      -194.0598
  32   2.0000      -7.131561      -194.0596
  33   2.0000      -7.131558      -194.0596
  34   2.0000      -7.131536      -194.0590
  35   2.0000      -7.131534      -194.0589
  36   2.0000      -0.940134       -25.5823
  37   2.0000      -0.890988       -24.2450
  38   2.0000      -0.890961       -24.2443
  39   2.0000      -0.843598       -22.9555
  40   2.0000      -0.843582       -22.9550
  41   2.0000      -0.822840       -22.3906
  42   2.0000      -0.799138       -21.7457
  43   2.0000      -0.713184       -19.4067
  44   2.0000      -0.713107       -19.4046
  45   2.0000      -0.604459       -16.4482
  46   2.0000      -0.604427       -16.4473
  47   2.0000      -0.532655       -14.4943
  48   2.0000      -0.509896       -13.8750
  49   2.0000      -0.471695       -12.8355
  50   2.0000      -0.451430       -12.2840
  51   2.0000      -0.450511       -12.2590
  52   2.0000      -0.450448       -12.2573
  53   2.0000      -0.415010       -11.2930
  54   2.0000      -0.414971       -11.2919
  55   2.0000      -0.389266       -10.5925
  56   2.0000      -0.389240       -10.5917
  57   2.0000      -0.339326        -9.2335
  58   2.0000      -0.339310        -9.2331
  59   2.0000      -0.331347        -9.0164
  60   2.0000      -0.331342        -9.0163
  61   2.0000      -0.328813        -8.9475
  62   2.0000      -0.325970        -8.8701
  63   2.0000      -0.305814        -8.3216
  64   2.0000      -0.305788        -8.3209
  65   2.0000      -0.298506        -8.1228
  66   2.0000      -0.279649        -7.6096
  67   2.0000      -0.247264        -6.7284
  68   2.0000      -0.247222        -6.7273
  69   0.0000      -0.089093        -2.4243
  70   0.0000      -0.086113        -2.3432
  71   0.0000      -0.086074        -2.3422
  72   0.0000      -0.021808        -0.5934
  73   0.0000      -0.021759        -0.5921

MULLIKEN ATOMIC CHARGES
-----------------------
   0 C :    0.032795
   1 C :    0.032739
   2 C :    0.033085
   3 C :    0.032771
   4 C :    0.032754
   5 C :    0.033072
   6 Cl:   -0.032915
   7 Cl:   -0.032820
   8 Cl:   -0.032871
   9 Cl:   -0.032921
  10 Cl:   -0.032821
  11 Cl:   -0.032867
Sum of atomic charges:   -0.0000000

LOEWDIN ATOMIC CHARGES
----------------------
   0 C :   -0.453742
   1 C :   -0.453743
   2 C :   -0.453613
   3 C :   -0.453715
   4 C :   -0.453738
   5 C :   -0.453634
   6 Cl:    0.453667
   7 Cl:    0.453755
   8 Cl:    0.453664
   9 Cl:    0.453642
  10 Cl:    0.453762
  11 Cl:    0.453696

  Mayer bond orders larger than 0.100000
B(  0-C ,  1-C ) :   1.2875 B(  0-C ,  5-C ) :   1.2873 B(  0-C , 11-Cl) :   1.2146
B(  1-C ,  2-C ) :   1.2871 B(  1-C , 10-Cl) :   1.2146 B(  2-C ,  3-C ) :   1.2873
B(  2-C ,  9-Cl) :   1.2144 B(  3-C ,  4-C ) :   1.2875 B(  3-C ,  8-Cl) :   1.2145
B(  4-C ,  5-C ) :   1.2871 B(  4-C ,  7-Cl) :   1.2146 B(  5-C ,  6-Cl) :   1.2144

Dispersion correction           -0.008317873
FINAL SINGLE POINT ENERGY     -2989.692870318108

DIPOLE MOMENT
-------------

Method             : SCF
Type of density    : Electron Density
Multiplicity       :   1
Irrep              :   0
Energy             : -2989.6944929899118506 Eh
Relativity type    :
Basis              : AO
                                X                 Y                 Z
Electronic contribution:     -0.000000529       0.000001945       0.000042619
Nuclear contribution   :     -0.000007683       0.000048377      -0.000042385
                        -----------------------------------------
Total Dipole Moment    :     -0.000008212       0.000050322       0.000000234
                        -----------------------------------------
Magnitude (a.u.)       :      0.000050988
Magnitude (Debye)      :      0.000129602

VIBRATIONAL FREQUENCIES
-----------------------

Scaling factor for frequencies =  1.000000000  (already applied!)

     0:       0.00 cm**-1
     1:       0.00 cm**-1
     2:       0.00 cm**-1
     3:       0.00 cm**-1
     4:       0.00 cm**-1
     5:       0.00 cm**-1
     6:      72.36 cm**-1
     7:      72.59 cm**-1
     8:      99.31 cm**-1
     9:     178.63 cm**-1
    10:     220.16 cm**-1
    11:     220.48 cm**-1
    12:     224.06 cm**-1
    13:     224.27 cm**-1
    14:     239.40 cm**-1
    15:     320.37 cm**-1
    16:     320.42 cm**-1
    17:     337.67 cm**-1
    18:     338.04 cm**-1
    19:     364.50 cm**-1
    20:     389.05 cm**-1
    21:     601.45 cm**-1
    22:     601.97 cm**-1
    23:     622.04 cm**-1
    24:     679.42 cm**-1
    25:     679.70 cm**-1
    26:     727.66 cm**-1
    27:     866.98 cm**-1
    28:     867.46 cm**-1
    29:    1080.87 cm**-1
    30:    1198.67 cm**-1
    31:    1294.67 cm**-1
    32:    1339.60 cm**-1
    33:    1340.57 cm**-1
    34:    1530.01 cm**-1
    35:    1530.64 cm**-1

IR SPECTRUM
-----------

 Mode   freq       eps      Int      T**2         TX        TY        TZ
       cm**-1   L/(mol*cm) km/mol    a.u.
----------------------------------------------------------------------------
  6:     72.36   0.000000    0.00  0.000000  (-0.000005  0.000000 -0.000009)
  7:     72.59   0.000000    0.00  0.000000  (-0.000000 -0.000004 -0.000000)
  8:     99.31   0.000000    0.00  0.000000  (-0.000000 -0.000001 -0.000000)
  9:    178.63   0.000000    0.00  0.000000  (-0.000001 -0.000008 -0.000680)
 10:    220.16   0.000054    0.27  0.000076  ( 0.008706 -0.000683 -0.000000)
 11:    220.48   0.000054    0.27  0.000076  (-0.000655 -0.008703  0.000000)
 12:    224.06   0.000000    0.00  0.000000  ( 0.000008 -0.000012  0.000000)
 13:    224.27   0.000000    0.00  0.000000  ( 0.000016  0.000011  0.000000)
 14:    239.40   0.000000    0.00  0.000000  ( 0.000007 -0.000067 -0.000000)
 15:    320.37   0.000000    0.00  0.000000  ( 0.000003  0.000000 -0.000000)
 16:    320.42   0.000000    0.00  0.000000  ( 0.000000  0.000003  0.000000)
 17:    337.67   0.000000    0.00  0.000000  (-0.000001  0.000001 -0.000000)
 18:    338.04   0.000000    0.00  0.000000  (-0.000001 -0.000002 -0.000001)
 19:    364.50   0.000000    0.00  0.000000  (-0.000001  0.000005 -0.000000)
 20:    389.05   0.000000    0.00  0.000000  (-0.000013 -0.000041  0.000000)
 21:    601.45   0.000000    0.00  0.000000  (-0.000006 -0.000001 -0.000072)
 22:    601.97   0.000000    0.00  0.000000  ( 0.000001 -0.000007 -0.000012)
 23:    622.04   0.000000    0.00  0.000000  (-0.000003 -0.000001  0.000000)
 24:    679.42   0.016355   82.65  0.007512  ( 0.077529 -0.038746  0.000001)
 25:    679.70   0.016331   82.53  0.007498  (-0.038775 -0.077423  0.000004)
 26:    727.66   0.000000    0.00  0.000000  (-0.000007  0.000011 -0.000000)
 27:    866.98   0.000000    0.00  0.000000  ( 0.000002 -0.000004 -0.000000)
 28:    867.46   0.000000    0.00  0.000000  ( 0.000002 -0.000005 -0.000001)
 29:   1080.87   0.000000    0.00  0.000000  (-0.000036  0.000086  0.000000)
 30:   1198.67   0.000000    0.00  0.000000  ( 0.000002 -0.000011  0.000001)
 31:   1294.67   0.000004    0.02  0.000001  ( 0.000905  0.000208 -0.000000)
 32:   1339.60   0.036289  183.39  0.008454  (-0.074232  0.054250 -0.000002)
 33:   1340.57   0.036367  183.79  0.008466  (-0.054327 -0.074258  0.000004)
 34:   1530.01   0.000000    0.00  0.000000  ( 0.000002  0.000006  0.000001)
 35:   1530.64   0.000000    0.00  0.000000  (-0.000005  0.000006  0.000000)

--------------------------
THERMOCHEMISTRY AT 298.15K
--------------------------

Temperature         ...   298.15 K
Pressure            ...     1.00 atm
Total Mass          ...   284.78 AMU
Quasi RRHO          ...     True
Cut-Off Frequency   ...     1.00 cm^-1

Throughout the following assumptions are being made:
  (1) The electronic state is orbitally nondegenerate
  (2) There are no thermally accessible electronically excited states
  (3) Hindered rotations indicated by low frequency modes are not
      treated as such but are treated as vibrations and this may
      cause some error
  (4) All equations used are the standard statistical mechanics
      equations for an ideal gas
  (5) All vibrations are strictly harmonic

freq.      72.36  E(vib)   ...       0.50
freq.      72.59  E(vib)   ...       0.49
freq.      99.31  E(vib)   ...       0.46
freq.     178.63  E(vib)   ...       0.37
freq.     220.16  E(vib)   ...       0.33
freq.     220.48  E(vib)   ...       0.33
freq.     224.06  E(vib)   ...       0.33
freq.     224.27  E(vib)   ...       0.33
freq.     239.40  E(vib)   ...       0.31
freq.     320.37  E(vib)   ...       0.25
freq.     320.42  E(vib)   ...       0.25
freq.     337.67  E(vib)   ...       0.24
freq.     338.04  E(vib)   ...       0.24
freq.     364.50  E(vib)   ...       0.22
freq.     389.05  E(vib)   ...       0.20
freq.     601.45  E(vib)   ...       0.10
freq.     601.97  E(vib)   ...       0.10
freq.     622.04  E(vib)   ...       0.09
freq.     679.42  E(vib)   ...       0.08
freq.     679.70  E(vib)   ...       0.08
freq.     727.66  E(vib)   ...       0.06
freq.     866.98  E(vib)   ...       0.04
freq.     867.46  E(vib)   ...       0.04
freq.    1080.87  E(vib)   ...       0.02
freq.    1198.67  E(vib)   ...       0.01
freq.    1294.67  E(vib)   ...       0.01
freq.    1339.60  E(vib)   ...       0.01
freq.    1340.57  E(vib)   ...       0.01
freq.    1530.01  E(vib)   ...       0.00
freq.    1530.64  E(vib)   ...       0.00

------------
INNER ENERGY
------------

The inner energy is: U= E(el) + E(ZPE) + E(vib) + E(rot) + E(trans)
    E(el)   - is the total energy from the electronic structure calculation
              = E(kin-el) + E(nuc-el) + E(el-el) + E(nuc-nuc)
    E(ZPE)  - the the zero temperature vibrational energy from the frequency calculation
    E(vib)  - the the finite temperature correction to E(ZPE) due to population
              of excited vibrational states
    E(rot)  - is the rotational thermal energy
    E(trans)- is the translational thermal energy

Summary of contributions to the inner energy U:
Electronic energy                ...  -2989.69287032 Eh
Zero point energy                ...      0.04233524 Eh      26.57 kcal/mol
Thermal vibrational correction   ...      0.00873869 Eh       5.48 kcal/mol
Thermal rotational correction    ...      0.00141627 Eh       0.89 kcal/mol
Thermal translational correction ...      0.00141627 Eh       0.89 kcal/mol
-----------------------------------------------------------------------
Total thermal energy                  -2989.63896385 Eh

Summary of corrections to the electronic energy:
(perhaps to be used in another calculation)
Total thermal correction                  0.01157123 Eh       7.26 kcal/mol
Non-thermal (ZPE) correction              0.04233524 Eh      26.57 kcal/mol
-----------------------------------------------------------------------
Total correction                          0.05390647 Eh      33.83 kcal/mol

--------
ENTHALPY
--------

The enthalpy is H = U + kB*T
                kB is Boltzmann's constant
Total thermal energy              ...  -2989.63896385 Eh
Thermal Enthalpy correction       ...      0.00094421 Eh       0.59 kcal/mol
-----------------------------------------------------------------------
Total Enthalpy                    ...  -2989.63801964 Eh

Note: Rotational entropy computed according to Herzberg
Infrared and Raman Spectra, Chapter V,1, Van Nostrand Reinhold, 1945
Point Group:  C2h, Symmetry Number:   2
Rotational constants in cm-1:     0.015195     0.015193     0.007597

Vibrational entropy computed according to the QRRHO of S. Grimme
Chem.Eur.J. 2012 18 9955 using a reference frequency of 100.0 cm-1

-------
ENTROPY
-------

The entropy contributions are T*S = T*(S(el)+S(vib)+S(rot)+S(trans))
     S(el)   - electronic entropy
     S(vib)  - vibrational entropy
     S(rot)  - rotational entropy
     S(trans)- translational entropy
The entropies will be listed as multiplied by the temperature to get
units of energy

Electronic entropy                ...      0.00000000 Eh      0.00 kcal/mol
Vibrational entropy               ...      0.01510494 Eh      9.48 kcal/mol
Rotational entropy                ...      0.01511333 Eh      9.48 kcal/mol
Translational entropy             ...      0.02035346 Eh     12.77 kcal/mol
-----------------------------------------------------------------------
Final entropy term                ...      0.05057172 Eh     31.73 kcal/mol

In case the symmetry of your molecule has not been determined correctly
or in case you have a reason to use a different symmetry number we print
out the resulting rotational entropy values for sn=1,12:

 non-linear molecules -----------------------------------
|  sn= 1 | S(rot)=       0.01576779 Eh      9.89 kcal/mol|
|  sn= 2 | S(rot)=       0.01511333 Eh      9.48 kcal/mol|
|  sn= 3 | S(rot)=       0.01473050 Eh      9.24 kcal/mol|
|  sn= 4 | S(rot)=       0.01445887 Eh      9.07 kcal/mol|
|  sn= 5 | S(rot)=       0.01424819 Eh      8.94 kcal/mol|
|  sn= 6 | S(rot)=       0.01407604 Eh      8.83 kcal/mol|
|  sn= 7 | S(rot)=       0.01393050 Eh      8.74 kcal/mol|
|  sn= 8 | S(rot)=       0.01380442 Eh      8.66 kcal/mol|
|  sn= 9 | S(rot)=       0.01369321 Eh      8.59 kcal/mol|
|  sn=10 | S(rot)=       0.01359373 Eh      8.53 kcal/mol|
|  sn=11 | S(rot)=       0.01350374 Eh      8.47 kcal/mol|
|  sn=12 | S(rot)=       0.01342158 Eh      8.42 kcal/mol|
 linear molecules ---------------------------------------
|  Dinfh | S(rot)=       0.00993343 Eh      6.23 kcal/mol|
|  Cinfv | S(rot)=       0.01058788 Eh      6.64 kcal/mol|
 --------------------------------------------------------

-------------------
GIBBS FREE ENERGY
-------------------

The Gibbs free energy is G = H - T*S

Total enthalpy                    ...  -2989.63801964 Eh
Total entropy correction          ...     -0.05057172 Eh    -31.73 kcal/mol
-----------------------------------------------------------------------
Final Gibbs free energy         ...  -2989.68859136 Eh

For completeness - the Gibbs free energy minus the electronic energy
G-E(el)                           ...      0.00427895 Eh      2.69 kcal/mol

                             ****ORCA TERMINATED NORMALLY****
TOTAL RUN TIME: 0 days 0 hours 13 minutes 12 seconds 610 msec
