                         Program Version 6.0.0  -   RELEASE  -
|  1> ! r2SCAN-3c DEF2-TZVP FREQ
|  2> * xyzfile 0 1 vacuum_censo.xyz
|  3>
|  4>                          ****END OF INPUT****

CARTESIAN COORDINATES (ANGSTROEM)
---------------------------------
  C      0.257500   -1.376151    0.000005
  C     -1.062858   -0.911016    0.000000
  C     -1.320422    0.465102    0.000007
  C     -0.257506    1.376150    0.000003
  C      1.062857    0.911015    0.000004
  C      1.320418   -0.465100    0.000012
  Cl     2.948199   -1.038331    0.000034
  Cl     2.373388    2.033855   -0.000010
  Cl    -0.574791    3.072497   -0.000005
  Cl    -2.948178    1.038394    0.000023
  Cl    -2.373349   -2.033902   -0.000015
  Cl     0.574731   -3.072506   -0.000002

 Total Charge           Charge          ....    0
 Multiplicity           Mult            ....    1
 Number of Electrons    NEL             ....  138
 Basis Dimension        Dim             ....  408

ORBITAL ENERGIES
----------------

  NO   OCC          E(Eh)            E(eV)
   0   2.0000    -101.221900     -2754.3879
   1   2.0000    -101.221896     -2754.3878
   2   2.0000    -101.221882     -2754.3874
   3   2.0000    -101.221880     -2754.3874
   4   2.0000    -101.221875     -2754.3873
   5   2.0000    -101.221868     -2754.3871
   6   2.0000     -10.147711      -276.1332
   7   2.0000     -10.147549      -276.1288
   8   2.0000     -10.147543      -276.1287
   9   2.0000     -10.147136      -276.1176
  10   2.0000     -10.147130      -276.1175
  11   2.0000     -10.146929      -276.1120
  12   2.0000      -9.397676      -255.7238
  13   2.0000      -9.397673      -255.7237
  14   2.0000      -9.397660      -255.7233
  15   2.0000      -9.397659      -255.7233
  16   2.0000      -9.397654      -255.7232
  17   2.0000      -9.397647      -255.7230
  18   2.0000      -7.143072      -194.3729
  19   2.0000      -7.143071      -194.3728
  20   2.0000      -7.143056      -194.3724
  21   2.0000      -7.143056      -194.3724
  22   2.0000      -7.143050      -194.3723
  23   2.0000      -7.143049      -194.3722
  24   2.0000      -7.132699      -194.0906
  25   2.0000      -7.132699      -194.0906
  26   2.0000      -7.132684      -194.0902
  27   2.0000      -7.132684      -194.0902
  28   2.0000      -7.132680      -194.0901
  29   2.0000      -7.132680      -194.0901
  30   2.0000      -7.131596      -194.0606
  31   2.0000      -7.131595      -194.0606
  32   2.0000      -7.131579      -194.0601
  33   2.0000      -7.131577      -194.0601
  34   2.0000      -7.131575      -194.0600
  35   2.0000      -7.131573      -194.0600
  36   2.0000      -0.939695       -25.5704
  37   2.0000      -0.891144       -24.2493
  38   2.0000      -0.891130       -24.2489
  39   2.0000      -0.843946       -22.9649
  40   2.0000      -0.843932       -22.9646
  41   2.0000      -0.823216       -22.4008
  42   2.0000      -0.798523       -21.7289
  43   2.0000      -0.712514       -19.3885
  44   2.0000      -0.712467       -19.3872
  45   2.0000      -0.604006       -16.4358
  46   2.0000      -0.603992       -16.4355
  47   2.0000      -0.532202       -14.4820
  48   2.0000      -0.509679       -13.8691
  49   2.0000      -0.472089       -12.8462
  50   2.0000      -0.450967       -12.2714
  51   2.0000      -0.450460       -12.2577
  52   2.0000      -0.450423       -12.2566
  53   2.0000      -0.415223       -11.2988
  54   2.0000      -0.415208       -11.2984
  55   2.0000      -0.389289       -10.5931
  56   2.0000      -0.389273       -10.5927
  57   2.0000      -0.339509        -9.2385
  58   2.0000      -0.339497        -9.2382
  59   2.0000      -0.331232        -9.0133
  60   2.0000      -0.331224        -9.0131
  61   2.0000      -0.328531        -8.9398
  62   2.0000      -0.326138        -8.8747
  63   2.0000      -0.305956        -8.3255
  64   2.0000      -0.305929        -8.3248
  65   2.0000      -0.298148        -8.1130
  66   2.0000      -0.279783        -7.6133
  67   2.0000      -0.246797        -6.7157
  68   2.0000      -0.246771        -6.7150
  69   0.0000      -0.088067        -2.3964
  70   0.0000      -0.086172        -2.3448
  71   0.0000      -0.086151        -2.3443
  72   0.0000      -0.020945        -0.5700
  73   0.0000      -0.020915        -0.5691

MULLIKEN ATOMIC CHARGES
-----------------------
   0 C :    0.032339
   1 C :    0.032576
   2 C :    0.032492
   3 C :    0.032359
   4 C :    0.032561
   5 C :    0.032504
   6 Cl:   -0.032480
   7 Cl:   -0.032495
   8 Cl:   -0.032442
   9 Cl:   -0.032479
  10 Cl:   -0.032495
  11 Cl:   -0.032440
Sum of atomic charges:   -0.0000000

LOEWDIN ATOMIC CHARGES
----------------------
   0 C :   -0.455204
   1 C :   -0.455151
   2 C :   -0.455144
   3 C :   -0.455201
   4 C :   -0.455151
   5 C :   -0.455141
   6 Cl:    0.455162
   7 Cl:    0.455154
   8 Cl:    0.455177
   9 Cl:    0.455165
  10 Cl:    0.455154
  11 Cl:    0.455180

  Mayer bond orders larger than 0.100000
B(  0-C ,  1-C ) :   1.2867 B(  0-C ,  5-C ) :   1.2868 B(  0-C , 11-Cl) :   1.2150
B(  1-C ,  2-C ) :   1.2865 B(  1-C , 10-Cl) :   1.2148 B(  2-C ,  3-C ) :   1.2868
B(  2-C ,  9-Cl) :   1.2149 B(  3-C ,  4-C ) :   1.2867 B(  3-C ,  8-Cl) :   1.2150
B(  4-C ,  5-C ) :   1.2865 B(  4-C ,  7-Cl) :   1.2148 B(  5-C ,  6-Cl) :   1.2149

Dispersion correction           -0.008315633
FINAL SINGLE POINT ENERGY     -2989.692987939022

DIPOLE MOMENT
-------------

Method             : SCF
Type of density    : Electron Density
Multiplicity       :   1
Irrep              :   0
Energy             : -2989.6946142970546134 Eh
Relativity type    :
Basis              : AO
                                X                 Y                 Z
Electronic contribution:      0.000000278       0.000000019      -0.000001698
Nuclear contribution   :     -0.000003236      -0.000001939       0.000001729
                        -----------------------------------------
Total Dipole Moment    :     -0.000002958      -0.000001920       0.000000031
                        -----------------------------------------
Magnitude (a.u.)       :      0.000003526
Magnitude (Debye)      :      0.000008964

VIBRATIONAL FREQUENCIES
-----------------------

Scaling factor for frequencies =  1.000000000  (already applied!)

     0:       0.00 cm**-1
     1:       0.00 cm**-1
     2:       0.00 cm**-1
     3:       0.00 cm**-1
     4:       0.00 cm**-1
     5:       0.00 cm**-1
     6:      72.15 cm**-1
     7:      72.53 cm**-1
     8:      99.02 cm**-1
     9:     177.30 cm**-1
    10:     219.94 cm**-1
    11:     220.22 cm**-1
    12:     223.77 cm**-1
    13:     223.99 cm**-1
    14:     239.06 cm**-1
    15:     320.67 cm**-1
    16:     320.70 cm**-1
    17:     338.59 cm**-1
    18:     339.20 cm**-1
    19:     364.80 cm**-1
    20:     389.93 cm**-1
    21:     602.78 cm**-1
    22:     603.29 cm**-1
    23:     623.00 cm**-1
    24:     681.71 cm**-1
    25:     681.93 cm**-1
    26:     728.40 cm**-1
    27:     869.54 cm**-1
    28:     869.95 cm**-1
    29:    1083.72 cm**-1
    30:    1196.96 cm**-1
    31:    1284.90 cm**-1
    32:    1336.20 cm**-1
    33:    1336.81 cm**-1
    34:    1523.34 cm**-1
    35:    1523.79 cm**-1

IR SPECTRUM
-----------

 Mode   freq       eps      Int      T**2         TX        TY        TZ
       cm**-1   L/(mol*cm) km/mol    a.u.
----------------------------------------------------------------------------
  6:     72.15   0.000000    0.00  0.000000  (-0.000000  0.000000 -0.000006)
  7:     72.53   0.000000    0.00  0.000000  ( 0.000000 -0.000000  0.000002)
  8:     99.02   0.000000    0.00  0.000000  ( 0.000001 -0.000000  0.000000)
  9:    177.30   0.000000    0.00  0.000001  ( 0.000000 -0.000000 -0.000912)
 10:    219.94   0.000053    0.27  0.000075  (-0.008517 -0.001484 -0.000000)
 11:    220.22   0.000053    0.27  0.000075  ( 0.001564 -0.008503  0.000000)
 12:    223.77   0.000000    0.00  0.000000  (-0.000003 -0.000023  0.000000)
 13:    223.99   0.000000    0.00  0.000000  ( 0.000021 -0.000004 -0.000000)
 14:    239.06   0.000000    0.00  0.000000  ( 0.000036  0.000069 -0.000000)
 15:    320.67   0.000000    0.00  0.000000  (-0.000000 -0.000001  0.000000)
 16:    320.70   0.000000    0.00  0.000000  ( 0.000001 -0.000000 -0.000000)
 17:    338.59   0.000000    0.00  0.000000  (-0.000000 -0.000001 -0.000000)
 18:    339.20   0.000000    0.00  0.000000  (-0.000001  0.000000 -0.000000)
 19:    364.80   0.000000    0.00  0.000000  (-0.000000 -0.000000 -0.000000)
 20:    389.93   0.000000    0.00  0.000000  (-0.000106 -0.000012 -0.000000)
 21:    602.78   0.000000    0.00  0.000000  (-0.000000  0.000000  0.000065)
 22:    603.29   0.000000    0.00  0.000000  ( 0.000000  0.000000  0.000018)
 23:    623.00   0.000000    0.00  0.000000  (-0.000000  0.000000  0.000000)
 24:    681.71   0.016256   82.15  0.007442  (-0.072017 -0.047490 -0.000000)
 25:    681.93   0.016268   82.21  0.007445  ( 0.047577 -0.071979  0.000000)
 26:    728.40   0.000000    0.00  0.000000  (-0.000000  0.000000 -0.000000)
 27:    869.54   0.000000    0.00  0.000000  (-0.000000  0.000005  0.000001)
 28:    869.95   0.000000    0.00  0.000000  ( 0.000004 -0.000000  0.000000)
 29:   1083.72   0.000000    0.00  0.000000  (-0.000052 -0.000078 -0.000000)
 30:   1196.96   0.000000    0.00  0.000000  ( 0.000000  0.000000 -0.000000)
 31:   1284.90   0.000002    0.01  0.000000  ( 0.000610 -0.000110  0.000000)
 32:   1336.20   0.036642  185.17  0.008558  (-0.084152 -0.038419 -0.000000)
 33:   1336.81   0.036700  185.47  0.008567  ( 0.038489 -0.084177  0.000000)
 34:   1523.34   0.000000    0.00  0.000000  ( 0.000002  0.000001  0.000000)
 35:   1523.79   0.000000    0.00  0.000000  (-0.000001  0.000003  0.000001)

--------------------------
THERMOCHEMISTRY AT 298.15K
--------------------------

Temperature         ...   298.15 K
Pressure            ...     1.00 atm
Total Mass          ...   284.78 AMU
Quasi RRHO          ...     True
Cut-Off Frequency   ...     1.00 cm^-1

Throughout the following assumptions are being made:
  (1) The electronic state is orbitally nondegenerate
  (2) There are no thermally accessible electronically excited states
  (3) Hindered rotations indicated by low frequency modes are not
      treated as such but are treated as vibrations and this may
      cause some error
  (4) All equations used are the standard statistical mechanics
      equations for an ideal gas
  (5) All vibrations are strictly harmonic

freq.      72.15  E(vib)   ...       0.50
freq.      72.53  E(vib)   ...       0.49
freq.      99.02  E(vib)   ...       0.46
freq.     177.30  E(vib)   ...       0.37
freq.     219.94  E(vib)   ...       0.33
freq.     220.22  E(vib)   ...       0.33
freq.     223.77  E(vib)   ...       0.33
freq.     223.99  E(vib)   ...       0.33
freq.     239.06  E(vib)   ...       0.32
freq.     320.67  E(vib)   ...       0.25
freq.     320.70  E(vib)   ...       0.25
freq.     338.59  E(vib)   ...       0.23
freq.     339.20  E(vib)   ...       0.23
freq.     364.80  E(vib)   ...       0.22
freq.     389.93  E(vib)   ...       0.20
freq.     602.78  E(vib)   ...       0.10
freq.     603.29  E(vib)   ...       0.10
freq.     623.00  E(vib)   ...       0.09
freq.     681.71  E(vib)   ...       0.08
freq.     681.93  E(vib)   ...       0.08
freq.     728.40  E(vib)   ...       0.06
freq.     869.54  E(vib)   ...       0.04
freq.     869.95  E(vib)   ...       0.04
freq.    1083.72  E(vib)   ...       0.02
freq.    1196.96  E(vib)   ...       0.01
freq.    1284.90  E(vib)   ...       0.01
freq.    1336.20  E(vib)   ...       0.01
freq.    1336.81  E(vib)   ...       0.01
freq.    1523.34  E(vib)   ...       0.00
freq.    1523.79  E(vib)   ...       0.00

------------
INNER ENERGY
------------

The inner energy is: U= E(el) + E(ZPE) + E(vib) + E(rot) + E(trans)
    E(el)   - is the total energy from the electronic structure calculation
              = E(kin-el) + E(nuc-el) + E(el-el) + E(nuc-nuc)
    E(ZPE)  - the the zero temperature vibrational energy from the frequency calculation
    E(vib)  - the the finite temperature correction to E(ZPE) due to population
              of excited vibrational states
    E(rot)  - is the rotational thermal energy
    E(trans)- is the translational thermal energy

Summary of contributions to the inner energy U:
Electronic energy                ...  -2989.69298794 Eh
Zero point energy                ...      0.04230140 Eh      26.54 kcal/mol
Thermal vibrational correction   ...      0.00873532 Eh       5.48 kcal/mol
Thermal rotational correction    ...      0.00141627 Eh       0.89 kcal/mol
Thermal translational correction ...      0.00141627 Eh       0.89 kcal/mol
-----------------------------------------------------------------------
Total thermal energy                  -2989.63911868 Eh

Summary of corrections to the electronic energy:
(perhaps to be used in another calculation)
Total thermal correction                  0.01156786 Eh       7.26 kcal/mol
Non-thermal (ZPE) correction              0.04230140 Eh      26.54 kcal/mol
-----------------------------------------------------------------------
Total correction                          0.05386926 Eh      33.80 kcal/mol

--------
ENTHALPY
--------

The enthalpy is H = U + kB*T
                kB is Boltzmann's constant
Total thermal energy              ...  -2989.63911868 Eh
Thermal Enthalpy correction       ...      0.00094421 Eh       0.59 kcal/mol
-----------------------------------------------------------------------
Total Enthalpy                    ...  -2989.63817447 Eh

Note: Rotational entropy computed according to Herzberg
Infrared and Raman Spectra, Chapter V,1, Van Nostrand Reinhold, 1945
Point Group:  C2h, Symmetry Number:   2
Rotational constants in cm-1:     0.015191     0.015190     0.007595

Vibrational entropy computed according to the QRRHO of S. Grimme
Chem.Eur.J. 2012 18 9955 using a reference frequency of 100.0 cm-1

-------
ENTROPY
-------

The entropy contributions are T*S = T*(S(el)+S(vib)+S(rot)+S(trans))
     S(el)   - electronic entropy
     S(vib)  - vibrational entropy
     S(rot)  - rotational entropy
     S(trans)- translational entropy
The entropies will be listed as multiplied by the temperature to get
units of energy

Electronic entropy                ...      0.00000000 Eh      0.00 kcal/mol
Vibrational entropy               ...      0.01510388 Eh      9.48 kcal/mol
Rotational entropy                ...      0.01511364 Eh      9.48 kcal/mol
Translational entropy             ...      0.02035346 Eh     12.77 kcal/mol
-----------------------------------------------------------------------
Final entropy term                ...      0.05057098 Eh     31.73 kcal/mol

In case the symmetry of your molecule has not been determined correctly
or in case you have a reason to use a different symmetry number we print
out the resulting rotational entropy values for sn=1,12:

 non-linear molecules -----------------------------------
|  sn= 1 | S(rot)=       0.01576809 Eh      9.89 kcal/mol|
|  sn= 2 | S(rot)=       0.01511364 Eh      9.48 kcal/mol|
|  sn= 3 | S(rot)=       0.01473080 Eh      9.24 kcal/mol|
|  sn= 4 | S(rot)=       0.01445918 Eh      9.07 kcal/mol|
|  sn= 5 | S(rot)=       0.01424849 Eh      8.94 kcal/mol|
|  sn= 6 | S(rot)=       0.01407635 Eh      8.83 kcal/mol|
|  sn= 7 | S(rot)=       0.01393080 Eh      8.74 kcal/mol|
|  sn= 8 | S(rot)=       0.01380472 Eh      8.66 kcal/mol|
|  sn= 9 | S(rot)=       0.01369351 Eh      8.59 kcal/mol|
|  sn=10 | S(rot)=       0.01359403 Eh      8.53 kcal/mol|
|  sn=11 | S(rot)=       0.01350404 Eh      8.47 kcal/mol|
|  sn=12 | S(rot)=       0.01342189 Eh      8.42 kcal/mol|
 linear molecules ---------------------------------------
|  Dinfh | S(rot)=       0.00993363 Eh      6.23 kcal/mol|
|  Cinfv | S(rot)=       0.01058809 Eh      6.64 kcal/mol|
 --------------------------------------------------------

-------------------
GIBBS FREE ENERGY
-------------------

The Gibbs free energy is G = H - T*S

Total enthalpy                    ...  -2989.63817447 Eh
Total entropy correction          ...     -0.05057098 Eh    -31.73 kcal/mol
-----------------------------------------------------------------------
Final Gibbs free energy         ...  -2989.68874545 Eh

For completeness - the Gibbs free energy minus the electronic energy
G-E(el)                           ...      0.00424249 Eh      2.66 kcal/mol

                             ****ORCA TERMINATED NORMALLY****
TOTAL RUN TIME: 0 days 0 hours 13 minutes 5 seconds 631 msec
