                         Program Version 6.0.1  -  RELEASE   -
|  1> ! r2scan-3c def2/J RI DEFGRID2 scfconv6 printgap
|  2> %output
|  3>     printlevel normal
|  4> end
|  5> * xyz 0 1
|  6> C -2.3034091502 0.1878548344 0.2824159713
|  7> C -0.952749839 0.3251411329 -0.4144204865
|  8> C 0.0012363443 -0.7479861122 0.0133246829
|  9> C 1.3076730143 -0.599807358 0.1705019985
| 10> C 2.0604927071 0.6767885082 -0.0536160104
| 11> H -2.9830537371 0.9722922829 -0.0432629252
| 12> H -2.1822518094 0.2632465921 1.360939385
| 13> H -2.7560068541 -0.7750331159 0.0549608557
| 14> H -1.1013936871 0.2558429017 -1.497697046
| 15> H -0.5302301866 1.3084274829 -0.2027186587
| 16> H -0.4493155138 -1.7156938047 0.191686233
| 17> H 1.8996868706 -1.448306502 0.4854490414
| 18> H 3.1309610582 0.5123442036 0.0323926769
| 19> H 1.7708935118 1.4277871399 0.6821490969
| 20> H 1.8512088193 1.0820633877 -1.0425216737
| 21> *
| 22>
| 23>                          ****END OF INPUT****

CARTESIAN COORDINATES (ANGSTROEM)
---------------------------------
  C     -2.303409    0.187855    0.282416
  C     -0.952750    0.325141   -0.414420
  C      0.001236   -0.747986    0.013325
  C      1.307673   -0.599807    0.170502
  C      2.060493    0.676789   -0.053616
  H     -2.983054    0.972292   -0.043263
  H     -2.182252    0.263247    1.360939
  H     -2.756007   -0.775033    0.054961
  H     -1.101394    0.255843   -1.497697
  H     -0.530230    1.308427   -0.202719
  H     -0.449316   -1.715694    0.191686
  H      1.899687   -1.448307    0.485449
  H      3.130961    0.512344    0.032393
  H      1.770894    1.427787    0.682149
  H      1.851209    1.082063   -1.042522

 Total Charge           Charge          ....    0
 Multiplicity           Mult            ....    1
 Number of Electrons    NEL             ....   40
 Basis Dimension        Dim             ....  145

ORBITAL ENERGIES
----------------

  NO   OCC          E(Eh)            E(eV)
   0   2.0000     -10.028163      -272.8802
   1   2.0000     -10.022095      -272.7151
   2   2.0000     -10.021465      -272.6979
   3   2.0000     -10.018901      -272.6282
   4   2.0000     -10.018070      -272.6056
   5   2.0000      -0.772450       -21.0194
   6   2.0000      -0.717912       -19.5354
   7   2.0000      -0.646340       -17.5878
   8   2.0000      -0.581865       -15.8333
   9   2.0000      -0.494774       -13.4635
  10   2.0000      -0.443890       -12.0788
  11   2.0000      -0.409420       -11.1409
  12   2.0000      -0.397423       -10.8144
  13   2.0000      -0.379543       -10.3279
  14   2.0000      -0.349102        -9.4995
  15   2.0000      -0.338496        -9.2109
  16   2.0000      -0.327983        -8.9249
  17   2.0000      -0.311954        -8.4887
  18   2.0000      -0.290530        -7.9057
  19   2.0000      -0.217066        -5.9067
  20   0.0000      -0.004965        -0.1351
  21   0.0000       0.094203         2.5634
  22   0.0000       0.115761         3.1500
  23   0.0000       0.131068         3.5665
  24   0.0000       0.145256         3.9526

MULLIKEN ATOMIC CHARGES
-----------------------
   0 C :   -0.460204
   1 C :   -0.248052
   2 C :   -0.151006
   3 C :   -0.143442
   4 C :   -0.496201
   5 H :    0.144282
   6 H :    0.149307
   7 H :    0.139788
   8 H :    0.153924
   9 H :    0.143062
  10 H :    0.147764
  11 H :    0.152690
  12 H :    0.145321
  13 H :    0.162847
  14 H :    0.159919
Sum of atomic charges:    0.0000000

LOEWDIN ATOMIC CHARGES
----------------------
   0 C :   -0.418704
   1 C :   -0.306056
   2 C :   -0.210411
   3 C :   -0.216278
   4 C :   -0.422491
   5 H :    0.149668
   6 H :    0.152709
   7 H :    0.150034
   8 H :    0.162649
   9 H :    0.158354
  10 H :    0.162932
  11 H :    0.160127
  12 H :    0.155240
  13 H :    0.161760
  14 H :    0.160465

  Mayer bond orders larger than 0.100000
B(  0-C ,  1-C ) :   0.8920 B(  0-C ,  5-H ) :   0.9742 B(  0-C ,  6-H ) :   0.9824
B(  0-C ,  7-H ) :   0.9751 B(  1-C ,  2-C ) :   0.9264 B(  1-C ,  8-H ) :   0.9664
B(  1-C ,  9-H ) :   0.9825 B(  2-C ,  3-C ) :   1.9476 B(  2-C , 10-H ) :   0.9420
B(  3-C ,  4-C ) :   0.8924 B(  3-C , 11-H ) :   0.9500 B(  4-C , 12-H ) :   0.9740
B(  4-C , 13-H ) :   0.9750 B(  4-C , 14-H ) :   0.9807

Dispersion correction           -0.003246727
FINAL SINGLE POINT ENERGY      -196.458932218365

DIPOLE MOMENT
-------------

Method             : SCF
Type of density    : Electron Density
Multiplicity       :   1
Irrep              :   0
Energy             :  -196.4618145122619239 Eh
Relativity type    :
Basis              : AO
                                X                 Y                 Z
Electronic contribution:      1.249178676      -1.626688438      -0.069625037
Nuclear contribution   :     -1.266052456       1.766533392       0.020055097
                        -----------------------------------------
Total Dipole Moment    :     -0.016873780       0.139844954      -0.049569939
                        -----------------------------------------
Magnitude (a.u.)       :      0.149326871
Magnitude (Debye)      :      0.379558742

Rotational constants in cm-1:             0.425525             0.085141             0.076427
Rotational constants in MHz :         12756.913996          2552.461537          2291.232073

                             ****ORCA TERMINATED NORMALLY****
TOTAL RUN TIME: 0 days 0 hours 0 minutes 9 seconds 90 msec
