                         Program Version 6.0.1  -  RELEASE   -
|  1> ! r2scan-3c def2/J RI DEFGRID2 scfconv6 printgap
|  2> %output
|  3>     printlevel normal
|  4> end
|  5> * xyz 0 1
|  6> C 1.581706802 1.3013156455 -0.0001765654
|  7> C 0.2003043642 1.3646238513 -0.0005059883
|  8> C -0.5263956504 0.1738645839 -0.0003820325
|  9> C 0.1891910515 -1.0280207166 -5.18232e-05
| 10> N 1.50491038 -1.0879035417 0.0003183087
| 11> C 2.1828225057 0.048466407 0.0003119322
| 12> C -1.995231449 0.1741615857 -0.0001891234
| 13> O -2.6909248525 -0.8067867919 0.0005195554
| 14> H 2.1815356919 2.1980392974 -0.0001625473
| 15> H -0.3149565789 2.3154737111 -0.0008027217
| 16> H -0.3410869669 -1.9710378614 4.28377e-05
| 17> H 3.2601471453 -0.0529933563 0.0007366133
| 18> H -2.4365699349 1.1921615553 -0.0006445131
| 19> *
| 20>
| 21>                          ****END OF INPUT****

CARTESIAN COORDINATES (ANGSTROEM)
---------------------------------
  C      1.581707    1.301316   -0.000177
  C      0.200304    1.364624   -0.000506
  C     -0.526396    0.173865   -0.000382
  C      0.189191   -1.028021   -0.000052
  N      1.504910   -1.087904    0.000318
  C      2.182823    0.048466    0.000312
  C     -1.995231    0.174162   -0.000189
  O     -2.690925   -0.806787    0.000520
  H      2.181536    2.198039   -0.000163
  H     -0.314957    2.315474   -0.000803
  H     -0.341087   -1.971038    0.000043
  H      3.260147   -0.052993    0.000737
  H     -2.436570    1.192162   -0.000645

 Total Charge           Charge          ....    0
 Multiplicity           Mult            ....    1
 Number of Electrons    NEL             ....   56
 Basis Dimension        Dim             ....  187

ORBITAL ENERGIES
----------------

  NO   OCC          E(Eh)            E(eV)
   0   2.0000     -18.958517      -515.8875
   1   2.0000     -14.174086      -385.6965
   2   2.0000     -10.130707      -275.6706
   3   2.0000     -10.091223      -274.5961
   4   2.0000     -10.088529      -274.5228
   5   2.0000     -10.080598      -274.3070
   6   2.0000     -10.068196      -273.9695
   7   2.0000     -10.066701      -273.9289
   8   2.0000      -1.026464       -27.9315
   9   2.0000      -0.937549       -25.5120
  10   2.0000      -0.804876       -21.9018
  11   2.0000      -0.760324       -20.6895
  12   2.0000      -0.653836       -17.7918
  13   2.0000      -0.622209       -16.9312
  14   2.0000      -0.570492       -15.5239
  15   2.0000      -0.511912       -13.9298
  16   2.0000      -0.482636       -13.1332
  17   2.0000      -0.452482       -12.3127
  18   2.0000      -0.427947       -11.6450
  19   2.0000      -0.412411       -11.2223
  20   2.0000      -0.410473       -11.1695
  21   2.0000      -0.396056       -10.7772
  22   2.0000      -0.374339       -10.1863
  23   2.0000      -0.359019        -9.7694
  24   2.0000      -0.295130        -8.0309
  25   2.0000      -0.268258        -7.2997
  26   2.0000      -0.250809        -6.8249
  27   2.0000      -0.228802        -6.2260
  28   0.0000      -0.109794        -2.9876
  29   0.0000      -0.072179        -1.9641
  30   0.0000      -0.010710        -0.2914
  31   0.0000       0.070280         1.9124
  32   0.0000       0.094571         2.5734

MULLIKEN ATOMIC CHARGES
-----------------------
   0 C :   -0.102045
   1 C :   -0.210133
   2 C :    0.282090
   3 C :   -0.122024
   4 N :   -0.175113
   5 C :   -0.062190
   6 C :    0.005417
   7 O :   -0.331382
   8 H :    0.153286
   9 H :    0.157813
  10 H :    0.164695
  11 H :    0.138820
  12 H :    0.100766
Sum of atomic charges:   -0.0000000

LOEWDIN ATOMIC CHARGES
----------------------
   0 C :   -0.141400
   1 C :   -0.096450
   2 C :   -0.083261
   3 C :    0.141008
   4 N :   -0.598537
   5 C :    0.103782
   6 C :    0.215142
   7 O :   -0.437152
   8 H :    0.173558
   9 H :    0.175953
  10 H :    0.203506
  11 H :    0.188576
  12 H :    0.155275

  Mayer bond orders larger than 0.100000
B(  0-C ,  1-C ) :   1.4203 B(  0-C ,  5-C ) :   1.3506 B(  0-C ,  8-H ) :   0.9414
B(  1-C ,  2-C ) :   1.3370 B(  1-C ,  9-H ) :   0.9278 B(  2-C ,  3-C ) :   1.2389
B(  2-C ,  6-C ) :   0.8255 B(  2-C ,  7-O ) :  -0.1040 B(  2-C , 12-H ) :  -0.1147
B(  3-C ,  4-N ) :   1.4788 B(  3-C , 10-H ) :   0.9995 B(  4-N ,  5-C ) :   1.4412
B(  5-C , 11-H ) :   0.9822 B(  6-C ,  7-O ) :   1.9668 B(  6-C , 12-H ) :   1.0349

Dispersion correction           -0.004110520
FINAL SINGLE POINT ENERGY      -361.521916671650

DIPOLE MOMENT
-------------

Method             : SCF
Type of density    : Electron Density
Multiplicity       :   1
Irrep              :   0
Energy             :  -361.5237153528774456 Eh
Relativity type    :
Basis              : AO
                                X                 Y                 Z
Electronic contribution:     -1.461047801      -2.050785290       0.000202815
Nuclear contribution   :      2.172254069       3.436092410      -0.000769552
                        -----------------------------------------
Total Dipole Moment    :      0.711206268       1.385307120      -0.000566736
                        -----------------------------------------
Magnitude (a.u.)       :      1.557205989
Magnitude (Debye)      :      3.958103069

Rotational constants in cm-1:             0.181179             0.053628             0.041380
Rotational constants in MHz :          5431.599933          1607.712738          1240.526329

                             ****ORCA TERMINATED NORMALLY****
TOTAL RUN TIME: 0 days 0 hours 0 minutes 20 seconds 994 msec
