                         Program Version 6.0.1  -  RELEASE   -
|  1> ! pbe def2-sv(p) def2/J RI DEFGRID1 loosescf d4 GCP(DFT/SV(P)) printgap
|  2> %output
|  3>     printlevel normal
|  4> end
|  5> * xyz 0 1
|  6> C -1.7259197141 0.6539326643 0.5015904529
|  7> C -0.8324213649 0.1858733343 -0.6394084942
|  8> N 0.494070018 -0.1819863965 -0.102081588
|  9> O 0.8473228413 -1.3280152965 -0.2311957243
| 10> O 1.1296443389 0.691771501 0.4338463617
| 11> H -1.9115429748 -0.157707141 1.2013344679
| 12> H -1.2488385316 1.474538481 1.0324122608
| 13> H -2.6780248216 0.9972630906 0.1075263675
| 14> H -0.6810382665 0.997864086 -1.3543581667
| 15> H -1.2415877747 -0.6910258918 -1.1428132697
| 16> *
| 17>
| 18>                          ****END OF INPUT****

CARTESIAN COORDINATES (ANGSTROEM)
---------------------------------
  C     -1.725920    0.653933    0.501590
  C     -0.832421    0.185873   -0.639408
  N      0.494070   -0.181986   -0.102082
  O      0.847323   -1.328015   -0.231196
  O      1.129644    0.691772    0.433846
  H     -1.911543   -0.157707    1.201334
  H     -1.248839    1.474538    1.032412
  H     -2.678025    0.997263    0.107526
  H     -0.681038    0.997864   -1.354358
  H     -1.241588   -0.691026   -1.142813

 Total Charge           Charge          ....    0
 Multiplicity           Mult            ....    1
 Number of Electrons    NEL             ....   40
 Basis Dimension        Dim             ....   80

ORBITAL ENERGIES
----------------

  NO   OCC          E(Eh)            E(eV)
   0   2.0000     -18.783143      -511.1153
   1   2.0000     -18.782608      -511.1008
   2   2.0000     -14.207996      -386.6192
   3   2.0000      -9.949243      -270.7327
   4   2.0000      -9.907243      -269.5898
   5   2.0000      -1.139634       -31.0110
   6   2.0000      -0.971620       -26.4391
   7   2.0000      -0.760030       -20.6815
   8   2.0000      -0.638190       -17.3660
   9   2.0000      -0.533496       -14.5172
  10   2.0000      -0.497578       -13.5398
  11   2.0000      -0.477339       -12.9891
  12   2.0000      -0.457099       -12.4383
  13   2.0000      -0.423539       -11.5251
  14   2.0000      -0.377953       -10.2846
  15   2.0000      -0.358917        -9.7666
  16   2.0000      -0.340815        -9.2741
  17   2.0000      -0.277048        -7.5389
  18   2.0000      -0.253290        -6.8924
  19   2.0000      -0.237278        -6.4567
  20   0.0000      -0.093220        -2.5366
  21   0.0000       0.035143         0.9563
  22   0.0000       0.070395         1.9155
  23   0.0000       0.074762         2.0344
  24   0.0000       0.097324         2.6483

MULLIKEN ATOMIC CHARGES
-----------------------
   0 C :   -0.310702
   1 C :   -0.068252
   2 N :    0.174696
   3 O :   -0.213614
   4 O :   -0.213976
   5 H :    0.125754
   6 H :    0.135755
   7 H :    0.125530
   8 H :    0.129763
   9 H :    0.115046
Sum of atomic charges:   -0.0000000

LOEWDIN ATOMIC CHARGES
----------------------
   0 C :   -0.346077
   1 C :   -0.188360
   2 N :    0.234224
   3 O :   -0.181489
   4 O :   -0.186091
   5 H :    0.130496
   6 H :    0.133569
   7 H :    0.134044
   8 H :    0.139141
   9 H :    0.130542

  Mayer bond orders larger than 0.100000
B(  0-C ,  1-C ) :   1.1523 B(  0-C ,  5-H ) :   0.9490 B(  0-C ,  6-H ) :   0.9408
B(  0-C ,  7-H ) :   0.9464 B(  1-C ,  2-N ) :   0.8928 B(  1-C ,  8-H ) :   0.9155
B(  1-C ,  9-H ) :   0.9211 B(  2-N ,  3-O ) :   1.5696 B(  2-N ,  4-O ) :   1.5471
B(  3-O ,  4-O ) :   0.3090

Dispersion correction           -0.005816497
FINAL SINGLE POINT ENERGY      -283.756595269997

DIPOLE MOMENT
-------------

Method             : SCF
Type of density    : Electron Density
Multiplicity       :   1
Irrep              :   0
Energy             :  -283.7966720136881804 Eh
Relativity type    :
Basis              : AO
                                X                 Y                 Z
Electronic contribution:      6.057574968      -2.080345081      -0.232783445
Nuclear contribution   :     -7.249169592       2.448456357      -0.143817201
                        -----------------------------------------
Total Dipole Moment    :     -1.191594623       0.368111276      -0.376600646
                        -----------------------------------------
Magnitude (a.u.)       :      1.302778455
Magnitude (Debye)      :      3.311399673

Rotational constants in cm-1:             0.323978             0.143379             0.114884
Rotational constants in MHz :          9712.607619          4298.382477          3444.128397

                             ****ORCA TERMINATED NORMALLY****
TOTAL RUN TIME: 0 days 0 hours 0 minutes 8 seconds 792 msec
