                         Program Version 6.0.0  -   RELEASE  -
|  1> ! r2SCAN-3c DEF2-TZVP FREQ
|  2> * xyzfile 0 1 censo.xyz
|  3>
|  4>                          ****END OF INPUT****

CARTESIAN COORDINATES (ANGSTROEM)
---------------------------------
  C     -1.612705   -0.124763    0.475563
  C     -0.663022    0.507340   -0.539027
  C      0.683594   -0.195176   -0.620464
  O      1.443272   -0.103355    0.603128
  H     -1.789145   -1.180899    0.241417
  H     -1.214768   -0.066186    1.494887
  H     -2.580918    0.385376    0.476807
  H     -0.500484    1.565660   -0.299590
  H     -1.113213    0.472068   -1.539349
  H      0.543830   -1.251648   -0.893535
  H      1.308404    0.271844   -1.388019
  H      0.966431   -0.600546    1.279375

 Total Charge           Charge          ....    0
 Multiplicity           Mult            ....    1
 Number of Electrons    NEL             ....   34
 Basis Dimension        Dim             ....  172

ORBITAL ENERGIES
----------------

  NO   OCC          E(Eh)            E(eV)
   0   2.0000     -18.947022      -515.5747
   1   2.0000     -10.075295      -274.1627
   2   2.0000     -10.031668      -272.9756
   3   2.0000     -10.029161      -272.9073
   4   2.0000      -0.974935       -26.5293
   5   2.0000      -0.746907       -20.3244
   6   2.0000      -0.649873       -17.6839
   7   2.0000      -0.558382       -15.1943
   8   2.0000      -0.473194       -12.8763
   9   2.0000      -0.428959       -11.6726
  10   2.0000      -0.406888       -11.0720
  11   2.0000      -0.389203       -10.5908
  12   2.0000      -0.344715        -9.3802
  13   2.0000      -0.327633        -8.9154
  14   2.0000      -0.318217        -8.6591
  15   2.0000      -0.292207        -7.9513
  16   2.0000      -0.238051        -6.4777
  17   0.0000       0.029576         0.8048
  18   0.0000       0.066169         1.8006
  19   0.0000       0.089537         2.4364
  20   0.0000       0.091177         2.4811
  21   0.0000       0.110280         3.0009

MULLIKEN ATOMIC CHARGES
-----------------------
   0 C :   -0.354888
   1 C :   -0.126435
   2 C :    0.008794
   3 O :   -0.471322
   4 H :    0.103950
   5 H :    0.094345
   6 H :    0.112374
   7 H :    0.089546
   8 H :    0.074317
   9 H :    0.077905
  10 H :    0.093322
  11 H :    0.298091
Sum of atomic charges:   -0.0000000

LOEWDIN ATOMIC CHARGES
----------------------
   0 C :   -0.319156
   1 C :   -0.307820
   2 C :   -0.336520
   3 O :   -0.062301
   4 H :    0.117898
   5 H :    0.112834
   6 H :    0.121202
   7 H :    0.134999
   8 H :    0.136349
   9 H :    0.112418
  10 H :    0.125253
  11 H :    0.164844

  Mayer bond orders larger than 0.100000
B(  0-C ,  1-C ) :   0.9671 B(  0-C ,  4-H ) :   0.9723 B(  0-C ,  5-H ) :   0.9748
B(  0-C ,  6-H ) :   0.9756 B(  1-C ,  2-C ) :   0.9755 B(  1-C ,  7-H ) :   0.9631
B(  1-C ,  8-H ) :   0.9519 B(  2-C ,  3-O ) :   0.9644 B(  2-C ,  9-H ) :   0.9702
B(  2-C , 10-H ) :   0.9657 B(  3-O , 11-H ) :   0.9028

Dispersion correction           -0.002126418
FINAL SINGLE POINT ENERGY      -194.310929068206

DIPOLE MOMENT
-------------

Method             : SCF
Type of density    : Electron Density
Multiplicity       :   1
Irrep              :   0
Energy             :  -194.3157240860514605 Eh
Relativity type    :
Basis              : AO
                                X                 Y                 Z
Electronic contribution:      3.399665644       0.150979268       0.578690768
Nuclear contribution   :     -4.031791139      -0.404603186      -0.680590465
                        -----------------------------------------
Total Dipole Moment    :     -0.632125495      -0.253623918      -0.101899697
                        -----------------------------------------
Magnitude (a.u.)       :      0.688688087
Magnitude (Debye)      :      1.750506002

VIBRATIONAL FREQUENCIES
-----------------------

Scaling factor for frequencies =  1.000000000  (already applied!)

     0:       0.00 cm**-1
     1:       0.00 cm**-1
     2:       0.00 cm**-1
     3:       0.00 cm**-1
     4:       0.00 cm**-1
     5:       0.00 cm**-1
     6:     156.39 cm**-1
     7:     258.79 cm**-1
     8:     316.13 cm**-1
     9:     356.36 cm**-1
    10:     481.53 cm**-1
    11:     768.74 cm**-1
    12:     853.19 cm**-1
    13:     908.00 cm**-1
    14:     955.77 cm**-1
    15:    1065.21 cm**-1
    16:    1080.43 cm**-1
    17:    1135.44 cm**-1
    18:    1233.58 cm**-1
    19:    1292.91 cm**-1
    20:    1362.67 cm**-1
    21:    1373.58 cm**-1
    22:    1399.69 cm**-1
    23:    1409.27 cm**-1
    24:    1466.81 cm**-1
    25:    1486.83 cm**-1
    26:    1494.95 cm**-1
    27:    1505.42 cm**-1
    28:    2976.11 cm**-1
    29:    2999.88 cm**-1
    30:    3003.32 cm**-1
    31:    3044.89 cm**-1
    32:    3069.87 cm**-1
    33:    3075.86 cm**-1
    34:    3083.16 cm**-1
    35:    3777.58 cm**-1

IR SPECTRUM
-----------

 Mode   freq       eps      Int      T**2         TX        TY        TZ
       cm**-1   L/(mol*cm) km/mol    a.u.
----------------------------------------------------------------------------
  6:    156.39   0.000477    2.41  0.000951  ( 0.007161 -0.006974 -0.029174)
  7:    258.79   0.001488    7.52  0.001794  ( 0.024664 -0.030799 -0.015406)
  8:    316.13   0.004922   24.87  0.004858  (-0.040038  0.056363  0.008851)
  9:    356.36   0.018552   93.75  0.016246  (-0.078492  0.100031  0.008861)
 10:    481.53   0.000760    3.84  0.000493  ( 0.015333 -0.013316 -0.008961)
 11:    768.74   0.000271    1.37  0.000110  ( 0.001453 -0.010102 -0.002429)
 12:    853.19   0.002879   14.55  0.001053  ( 0.011178  0.011984  0.028009)
 13:    908.00   0.000319    1.61  0.000110  ( 0.007941 -0.006783 -0.000741)
 14:    955.77   0.013424   67.84  0.004383  (-0.046920  0.005166 -0.046421)
 15:   1065.21   0.005625   28.43  0.001648  (-0.026871  0.002675 -0.030310)
 16:   1080.43   0.003947   19.95  0.001140  (-0.017393 -0.003661 -0.028708)
 17:   1135.44   0.000800    4.04  0.000220  (-0.012395  0.007495 -0.003153)
 18:   1233.58   0.002848   14.39  0.000721  ( 0.018818 -0.000495  0.019135)
 19:   1292.91   0.000324    1.64  0.000078  ( 0.003471  0.002527  0.007729)
 20:   1362.67   0.000158    0.80  0.000036  (-0.004174 -0.001846 -0.003919)
 21:   1373.58   0.000265    1.34  0.000060  (-0.006721 -0.003431  0.001829)
 22:   1399.69   0.003155   15.94  0.000703  ( 0.012136 -0.005207  0.023000)
 23:   1409.27   0.004938   24.96  0.001093  ( 0.028791  0.004574  0.015609)
 24:   1466.81   0.000923    4.67  0.000196  ( 0.007460 -0.009767  0.006737)
 25:   1486.83   0.001115    5.63  0.000234  (-0.012798  0.002586 -0.007972)
 26:   1494.95   0.000668    3.38  0.000140  ( 0.008814 -0.000124  0.007864)
 27:   1505.42   0.001814    9.17  0.000376  ( 0.003942 -0.014958 -0.011692)
 28:   2976.11   0.011110   56.15  0.001165  (-0.002930  0.026340  0.021508)
 29:   2999.88   0.003543   17.91  0.000369  ( 0.013254  0.008592 -0.010913)
 30:   3003.32   0.006991   35.33  0.000726  (-0.001334  0.017862 -0.020140)
 31:   3044.89   0.001917    9.69  0.000197  ( 0.001842  0.008961  0.010622)
 32:   3069.87   0.007480   37.80  0.000760  (-0.012377 -0.009536  0.022720)
 33:   3075.86   0.011689   59.07  0.001186  ( 0.017565  0.021910  0.019934)
 34:   3083.16   0.006454   32.61  0.000653  (-0.014279  0.020945 -0.003265)
 35:   3777.58   0.002961   14.96  0.000245  ( 0.001758  0.006706 -0.014018)

--------------------------
THERMOCHEMISTRY AT 298.15K
--------------------------

Temperature         ...   298.15 K
Pressure            ...     1.00 atm
Total Mass          ...    60.10 AMU
Quasi RRHO          ...     True
Cut-Off Frequency   ...     1.00 cm^-1

Throughout the following assumptions are being made:
  (1) The electronic state is orbitally nondegenerate
  (2) There are no thermally accessible electronically excited states
  (3) Hindered rotations indicated by low frequency modes are not
      treated as such but are treated as vibrations and this may
      cause some error
  (4) All equations used are the standard statistical mechanics
      equations for an ideal gas
  (5) All vibrations are strictly harmonic

freq.     156.39  E(vib)   ...       0.40
freq.     258.79  E(vib)   ...       0.30
freq.     316.13  E(vib)   ...       0.25
freq.     356.36  E(vib)   ...       0.22
freq.     481.53  E(vib)   ...       0.15
freq.     768.74  E(vib)   ...       0.06
freq.     853.19  E(vib)   ...       0.04
freq.     908.00  E(vib)   ...       0.03
freq.     955.77  E(vib)   ...       0.03
freq.    1065.21  E(vib)   ...       0.02
freq.    1080.43  E(vib)   ...       0.02
freq.    1135.44  E(vib)   ...       0.01
freq.    1233.58  E(vib)   ...       0.01
freq.    1292.91  E(vib)   ...       0.01
freq.    1362.67  E(vib)   ...       0.01
freq.    1373.58  E(vib)   ...       0.01
freq.    1399.69  E(vib)   ...       0.00
freq.    1409.27  E(vib)   ...       0.00
freq.    1466.81  E(vib)   ...       0.00
freq.    1486.83  E(vib)   ...       0.00
freq.    1494.95  E(vib)   ...       0.00
freq.    1505.42  E(vib)   ...       0.00
freq.    2976.11  E(vib)   ...       0.00
freq.    2999.88  E(vib)   ...       0.00
freq.    3003.32  E(vib)   ...       0.00
freq.    3044.89  E(vib)   ...       0.00
freq.    3069.87  E(vib)   ...       0.00
freq.    3075.86  E(vib)   ...       0.00
freq.    3083.16  E(vib)   ...       0.00
freq.    3777.58  E(vib)   ...       0.00

------------
INNER ENERGY
------------

The inner energy is: U= E(el) + E(ZPE) + E(vib) + E(rot) + E(trans)
    E(el)   - is the total energy from the electronic structure calculation
              = E(kin-el) + E(nuc-el) + E(el-el) + E(nuc-nuc)
    E(ZPE)  - the the zero temperature vibrational energy from the frequency calculation
    E(vib)  - the the finite temperature correction to E(ZPE) due to population
              of excited vibrational states
    E(rot)  - is the rotational thermal energy
    E(trans)- is the translational thermal energy

Summary of contributions to the inner energy U:
Electronic energy                ...   -194.31092907 Eh
Zero point energy                ...      0.10796774 Eh      67.75 kcal/mol
Thermal vibrational correction   ...      0.00250346 Eh       1.57 kcal/mol
Thermal rotational correction    ...      0.00141627 Eh       0.89 kcal/mol
Thermal translational correction ...      0.00141627 Eh       0.89 kcal/mol
-----------------------------------------------------------------------
Total thermal energy                   -194.19762532 Eh

Summary of corrections to the electronic energy:
(perhaps to be used in another calculation)
Total thermal correction                  0.00533600 Eh       3.35 kcal/mol
Non-thermal (ZPE) correction              0.10796774 Eh      67.75 kcal/mol
-----------------------------------------------------------------------
Total correction                          0.11330375 Eh      71.10 kcal/mol

--------
ENTHALPY
--------

The enthalpy is H = U + kB*T
                kB is Boltzmann's constant
Total thermal energy              ...   -194.19762532 Eh
Thermal Enthalpy correction       ...      0.00094421 Eh       0.59 kcal/mol
-----------------------------------------------------------------------
Total Enthalpy                    ...   -194.19668111 Eh

Note: Only C1 symmetry has been detected, increase convergence thresholds
      if your molecule has a higher symmetry. Symmetry factor of 1.0 is
      used for the rotational entropy correction.

Note: Rotational entropy computed according to Herzberg
Infrared and Raman Spectra, Chapter V,1, Van Nostrand Reinhold, 1945
Point Group:  C1, Symmetry Number:   1
Rotational constants in cm-1:     0.472789     0.168183     0.141330

Vibrational entropy computed according to the QRRHO of S. Grimme
Chem.Eur.J. 2012 18 9955 using a reference frequency of 100.0 cm-1

-------
ENTROPY
-------

The entropy contributions are T*S = T*(S(el)+S(vib)+S(rot)+S(trans))
     S(el)   - electronic entropy
     S(vib)  - vibrational entropy
     S(rot)  - rotational entropy
     S(trans)- translational entropy
The entropies will be listed as multiplied by the temperature to get
units of energy

Electronic entropy                ...      0.00000000 Eh      0.00 kcal/mol
Vibrational entropy               ...      0.00401825 Eh      2.52 kcal/mol
Rotational entropy                ...      0.01162977 Eh      7.30 kcal/mol
Translational entropy             ...      0.01815004 Eh     11.39 kcal/mol
-----------------------------------------------------------------------
Final entropy term                ...      0.03379806 Eh     21.21 kcal/mol

In case the symmetry of your molecule has not been determined correctly
or in case you have a reason to use a different symmetry number we print
out the resulting rotational entropy values for sn=1,12:

 non-linear molecules -----------------------------------
|  sn= 1 | S(rot)=       0.01162977 Eh      7.30 kcal/mol|
|  sn= 2 | S(rot)=       0.01097532 Eh      6.89 kcal/mol|
|  sn= 3 | S(rot)=       0.01059248 Eh      6.65 kcal/mol|
|  sn= 4 | S(rot)=       0.01032086 Eh      6.48 kcal/mol|
|  sn= 5 | S(rot)=       0.01011017 Eh      6.34 kcal/mol|
|  sn= 6 | S(rot)=       0.00993803 Eh      6.24 kcal/mol|
|  sn= 7 | S(rot)=       0.00979248 Eh      6.14 kcal/mol|
|  sn= 8 | S(rot)=       0.00966640 Eh      6.07 kcal/mol|
|  sn= 9 | S(rot)=       0.00955519 Eh      6.00 kcal/mol|
|  sn=10 | S(rot)=       0.00945572 Eh      5.93 kcal/mol|
|  sn=11 | S(rot)=       0.00936573 Eh      5.88 kcal/mol|
|  sn=12 | S(rot)=       0.00928357 Eh      5.83 kcal/mol|
 linear molecules ---------------------------------------
|  Dinfh | S(rot)=       0.00717324 Eh      4.50 kcal/mol|
|  Cinfv | S(rot)=       0.00782770 Eh      4.91 kcal/mol|
 --------------------------------------------------------

-------------------
GIBBS FREE ENERGY
-------------------

The Gibbs free energy is G = H - T*S

Total enthalpy                    ...   -194.19668111 Eh
Total entropy correction          ...     -0.03379806 Eh    -21.21 kcal/mol
-----------------------------------------------------------------------
Final Gibbs free energy         ...   -194.23047918 Eh

For completeness - the Gibbs free energy minus the electronic energy

                             ****ORCA TERMINATED NORMALLY****
TOTAL RUN TIME: 0 days 0 hours 3 minutes 47 seconds 510 msec
