                         Program Version 6.0.0  -   RELEASE  -
|  1> ! r2SCAN-3c DEF2-TZVP FREQ
|  2> * xyzfile 0 1 vacuum_censo.xyz
|  3>
|  4>                          ****END OF INPUT****

CARTESIAN COORDINATES (ANGSTROEM)
---------------------------------
  C     -1.566617    0.066642   -0.554581
  C     -0.664130   -0.448095    0.564850
  C      0.661360    0.288628    0.641392
  O      1.367530    0.063141   -0.585212
  H     -1.074921   -0.037231   -1.524802
  H     -2.509276   -0.487693   -0.586625
  H     -1.803604    1.126444   -0.408475
  H     -0.460118   -1.516424    0.423981
  H     -1.165321   -0.344078    1.535218
  H      0.479398    1.365844    0.790855
  H      1.246445   -0.081537    1.497926
  H      2.186940    0.566561   -0.557372

 Total Charge           Charge          ....    0
 Multiplicity           Mult            ....    1
 Number of Electrons    NEL             ....   34
 Basis Dimension        Dim             ....  172

ORBITAL ENERGIES
----------------

  NO   OCC          E(Eh)            E(eV)
   0   2.0000     -18.947624      -515.5911
   1   2.0000     -10.075147      -274.1587
   2   2.0000     -10.026377      -272.8316
   3   2.0000     -10.013673      -272.4859
   4   2.0000      -0.979022       -26.6405
   5   2.0000      -0.741498       -20.1772
   6   2.0000      -0.639774       -17.4091
   7   2.0000      -0.546922       -14.8825
   8   2.0000      -0.484462       -13.1829
   9   2.0000      -0.429124       -11.6770
  10   2.0000      -0.388597       -10.5743
  11   2.0000      -0.383714       -10.4414
  12   2.0000      -0.339321        -9.2334
  13   2.0000      -0.318888        -8.6774
  14   2.0000      -0.306553        -8.3417
  15   2.0000      -0.291386        -7.9290
  16   2.0000      -0.237391        -6.4597
  17   0.0000       0.037493         1.0202
  18   0.0000       0.068161         1.8548
  19   0.0000       0.091434         2.4880
  20   0.0000       0.096833         2.6350
  21   0.0000       0.121546         3.3074

MULLIKEN ATOMIC CHARGES
-----------------------
   0 C :   -0.326973
   1 C :   -0.111914
   2 C :   -0.013861
   3 O :   -0.464713
   4 H :    0.122905
   5 H :    0.103712
   6 H :    0.088379
   7 H :    0.082284
   8 H :    0.076831
   9 H :    0.069866
  10 H :    0.076452
  11 H :    0.297033
Sum of atomic charges:   -0.0000000

LOEWDIN ATOMIC CHARGES
----------------------
   0 C :   -0.311851
   1 C :   -0.300230
   2 C :   -0.348549
   3 O :   -0.053188
   4 H :    0.122732
   5 H :    0.116406
   6 H :    0.115801
   7 H :    0.135514
   8 H :    0.134812
   9 H :    0.111144
  10 H :    0.111074
  11 H :    0.166337

  Mayer bond orders larger than 0.100000
B(  0-C ,  1-C ) :   0.9840 B(  0-C ,  4-H ) :   0.9736 B(  0-C ,  5-H ) :   0.9756
B(  0-C ,  6-H ) :   0.9725 B(  1-C ,  2-C ) :   0.9877 B(  1-C ,  7-H ) :   0.9647
B(  1-C ,  8-H ) :   0.9614 B(  2-C ,  3-O ) :   1.0300 B(  2-C ,  9-H ) :   0.9581
B(  2-C , 10-H ) :   0.9620 B(  3-O , 11-H ) :   0.9054

Dispersion correction           -0.002097898
FINAL SINGLE POINT ENERGY      -194.311152201430

DIPOLE MOMENT
-------------

Method             : SCF
Type of density    : Electron Density
Multiplicity       :   1
Irrep              :   0
Energy             :  -194.3158929905362413 Eh
Relativity type    :
Basis              : AO
                                X                 Y                 Z
Electronic contribution:      3.093899106      -0.158837983      -0.703609242
Nuclear contribution   :     -2.876531046       0.494671742       1.134175320
                        -----------------------------------------
Total Dipole Moment    :      0.217368060       0.335833759       0.430566078
                        -----------------------------------------
Magnitude (a.u.)       :      0.587724710
Magnitude (Debye)      :      1.493877492

VIBRATIONAL FREQUENCIES
-----------------------

Scaling factor for frequencies =  1.000000000  (already applied!)

     0:       0.00 cm**-1
     1:       0.00 cm**-1
     2:       0.00 cm**-1
     3:       0.00 cm**-1
     4:       0.00 cm**-1
     5:       0.00 cm**-1
     6:     150.02 cm**-1
     7:     238.04 cm**-1
     8:     260.07 cm**-1
     9:     331.94 cm**-1
    10:     482.32 cm**-1
    11:     775.19 cm**-1
    12:     865.05 cm**-1
    13:     923.89 cm**-1
    14:     970.61 cm**-1
    15:    1056.63 cm**-1
    16:    1107.41 cm**-1
    17:    1156.94 cm**-1
    18:    1246.65 cm**-1
    19:    1265.34 cm**-1
    20:    1322.95 cm**-1
    21:    1369.40 cm**-1
    22:    1398.10 cm**-1
    23:    1437.88 cm**-1
    24:    1467.79 cm**-1
    25:    1487.96 cm**-1
    26:    1501.21 cm**-1
    27:    1509.22 cm**-1
    28:    2944.34 cm**-1
    29:    2981.23 cm**-1
    30:    3010.43 cm**-1
    31:    3012.21 cm**-1
    32:    3051.80 cm**-1
    33:    3083.38 cm**-1
    34:    3106.39 cm**-1
    35:    3822.54 cm**-1

IR SPECTRUM
-----------

 Mode   freq       eps      Int      T**2         TX        TY        TZ
       cm**-1   L/(mol*cm) km/mol    a.u.
----------------------------------------------------------------------------
  6:    150.02   0.001645    8.31  0.003422  ( 0.034503 -0.043514  0.018385)
  7:    238.04   0.001065    5.38  0.001396  ( 0.031426 -0.020139  0.001814)
  8:    260.07   0.020150  101.83  0.024179  (-0.065820  0.122772 -0.069090)
  9:    331.94   0.001481    7.48  0.001392  (-0.027934  0.024552 -0.003014)
 10:    482.32   0.001657    8.37  0.001072  (-0.021985  0.000435  0.024259)
 11:    775.19   0.000229    1.16  0.000092  (-0.002262 -0.004095  0.008379)
 12:    865.05   0.000296    1.50  0.000107  ( 0.008864  0.003928 -0.003595)
 13:    923.89   0.000702    3.55  0.000237  (-0.005344  0.011453  0.008790)
 14:    970.61   0.012268   62.00  0.003944  ( 0.042346 -0.001185 -0.046364)
 15:   1056.63   0.008301   41.95  0.002452  (-0.027957  0.006042  0.040418)
 16:   1107.41   0.000758    3.83  0.000213  ( 0.005768 -0.002355 -0.013216)
 17:   1156.94   0.000727    3.67  0.000196  ( 0.000551  0.000530 -0.013983)
 18:   1246.65   0.006403   32.36  0.001603  ( 0.016918 -0.012654 -0.034008)
 19:   1265.34   0.000036    0.18  0.000009  (-0.000691 -0.002527  0.001404)
 20:   1322.95   0.003748   18.94  0.000884  (-0.012410  0.007839  0.025856)
 21:   1369.40   0.000227    1.15  0.000052  ( 0.006891  0.000615 -0.001945)
 22:   1398.10   0.000668    3.38  0.000149  (-0.008147  0.006167 -0.006691)
 23:   1437.88   0.000787    3.98  0.000171  (-0.011047 -0.003069 -0.006266)
 24:   1467.79   0.000647    3.27  0.000138  ( 0.004575  0.009648 -0.004856)
 25:   1487.96   0.001637    8.27  0.000343  (-0.010489  0.005913  0.014081)
 26:   1501.21   0.001595    8.06  0.000332  ( 0.010542  0.014844 -0.000304)
 27:   1509.22   0.000514    2.60  0.000106  ( 0.007194  0.007390  0.000033)
 28:   2944.34   0.014152   71.52  0.001500  ( 0.007219  0.023807  0.029682)
 29:   2981.23   0.008590   43.41  0.000899  ( 0.017638 -0.018962  0.015117)
 30:   3010.43   0.005050   25.52  0.000524  (-0.018074  0.009573 -0.010258)
 31:   3012.21   0.011243   56.82  0.001165  ( 0.004234 -0.021056  0.026524)
 32:   3051.80   0.003958   20.00  0.000405  ( 0.011133 -0.013726 -0.009614)
 33:   3083.38   0.009456   47.78  0.000957  (-0.009019 -0.028681 -0.007282)
 34:   3106.39   0.004987   25.20  0.000501  (-0.014687  0.004295  0.016334)
 35:   3822.54   0.004693   23.71  0.000383  ( 0.017214  0.007822 -0.005059)

--------------------------
THERMOCHEMISTRY AT 298.15K
--------------------------

Temperature         ...   298.15 K
Pressure            ...     1.00 atm
Total Mass          ...    60.10 AMU
Quasi RRHO          ...     True
Cut-Off Frequency   ...     1.00 cm^-1

Throughout the following assumptions are being made:
  (1) The electronic state is orbitally nondegenerate
  (2) There are no thermally accessible electronically excited states
  (3) Hindered rotations indicated by low frequency modes are not
      treated as such but are treated as vibrations and this may
      cause some error
  (4) All equations used are the standard statistical mechanics
      equations for an ideal gas
  (5) All vibrations are strictly harmonic

freq.     150.02  E(vib)   ...       0.40
freq.     238.04  E(vib)   ...       0.32
freq.     260.07  E(vib)   ...       0.30
freq.     331.94  E(vib)   ...       0.24
freq.     482.32  E(vib)   ...       0.15
freq.     775.19  E(vib)   ...       0.05
freq.     865.05  E(vib)   ...       0.04
freq.     923.89  E(vib)   ...       0.03
freq.     970.61  E(vib)   ...       0.03
freq.    1056.63  E(vib)   ...       0.02
freq.    1107.41  E(vib)   ...       0.02
freq.    1156.94  E(vib)   ...       0.01
freq.    1246.65  E(vib)   ...       0.01
freq.    1265.34  E(vib)   ...       0.01
freq.    1322.95  E(vib)   ...       0.01
freq.    1369.40  E(vib)   ...       0.01
freq.    1398.10  E(vib)   ...       0.00
freq.    1437.88  E(vib)   ...       0.00
freq.    1467.79  E(vib)   ...       0.00
freq.    1487.96  E(vib)   ...       0.00
freq.    1501.21  E(vib)   ...       0.00
freq.    1509.22  E(vib)   ...       0.00
freq.    2944.34  E(vib)   ...       0.00
freq.    2981.23  E(vib)   ...       0.00
freq.    3010.43  E(vib)   ...       0.00
freq.    3012.21  E(vib)   ...       0.00
freq.    3051.80  E(vib)   ...       0.00
freq.    3083.38  E(vib)   ...       0.00
freq.    3106.39  E(vib)   ...       0.00
freq.    3822.54  E(vib)   ...       0.00

------------
INNER ENERGY
------------

The inner energy is: U= E(el) + E(ZPE) + E(vib) + E(rot) + E(trans)
    E(el)   - is the total energy from the electronic structure calculation
              = E(kin-el) + E(nuc-el) + E(el-el) + E(nuc-nuc)
    E(ZPE)  - the the zero temperature vibrational energy from the frequency calculation
    E(vib)  - the the finite temperature correction to E(ZPE) due to population
              of excited vibrational states
    E(rot)  - is the rotational thermal energy
    E(trans)- is the translational thermal energy

Summary of contributions to the inner energy U:
Electronic energy                ...   -194.31115220 Eh
Zero point energy                ...      0.10784141 Eh      67.67 kcal/mol
Thermal vibrational correction   ...      0.00263009 Eh       1.65 kcal/mol
Thermal rotational correction    ...      0.00141627 Eh       0.89 kcal/mol
Thermal translational correction ...      0.00141627 Eh       0.89 kcal/mol
-----------------------------------------------------------------------
Total thermal energy                   -194.19784815 Eh

Summary of corrections to the electronic energy:
(perhaps to be used in another calculation)
Total thermal correction                  0.00546264 Eh       3.43 kcal/mol
Non-thermal (ZPE) correction              0.10784141 Eh      67.67 kcal/mol
-----------------------------------------------------------------------
Total correction                          0.11330405 Eh      71.10 kcal/mol

--------
ENTHALPY
--------

The enthalpy is H = U + kB*T
                kB is Boltzmann's constant
Total thermal energy              ...   -194.19784815 Eh
Thermal Enthalpy correction       ...      0.00094421 Eh       0.59 kcal/mol
-----------------------------------------------------------------------
Total Enthalpy                    ...   -194.19690394 Eh

Note: Only C1 symmetry has been detected, increase convergence thresholds
      if your molecule has a higher symmetry. Symmetry factor of 1.0 is
      used for the rotational entropy correction.

Note: Rotational entropy computed according to Herzberg
Infrared and Raman Spectra, Chapter V,1, Van Nostrand Reinhold, 1945
Point Group:  C1, Symmetry Number:   1
Rotational constants in cm-1:     0.475931     0.171540     0.144443

Vibrational entropy computed according to the QRRHO of S. Grimme
Chem.Eur.J. 2012 18 9955 using a reference frequency of 100.0 cm-1

-------
ENTROPY
-------

The entropy contributions are T*S = T*(S(el)+S(vib)+S(rot)+S(trans))
     S(el)   - electronic entropy
     S(vib)  - vibrational entropy
     S(rot)  - rotational entropy
     S(trans)- translational entropy
The entropies will be listed as multiplied by the temperature to get
units of energy

Electronic entropy                ...      0.00000000 Eh      0.00 kcal/mol
Vibrational entropy               ...      0.00431575 Eh      2.71 kcal/mol
Rotational entropy                ...      0.01160703 Eh      7.28 kcal/mol
Translational entropy             ...      0.01815004 Eh     11.39 kcal/mol
-----------------------------------------------------------------------
Final entropy term                ...      0.03407282 Eh     21.38 kcal/mol

In case the symmetry of your molecule has not been determined correctly
or in case you have a reason to use a different symmetry number we print
out the resulting rotational entropy values for sn=1,12:

 non-linear molecules -----------------------------------
|  sn= 1 | S(rot)=       0.01160703 Eh      7.28 kcal/mol|
|  sn= 2 | S(rot)=       0.01095257 Eh      6.87 kcal/mol|
|  sn= 3 | S(rot)=       0.01056974 Eh      6.63 kcal/mol|
|  sn= 4 | S(rot)=       0.01029812 Eh      6.46 kcal/mol|
|  sn= 5 | S(rot)=       0.01008743 Eh      6.33 kcal/mol|
|  sn= 6 | S(rot)=       0.00991529 Eh      6.22 kcal/mol|
|  sn= 7 | S(rot)=       0.00976974 Eh      6.13 kcal/mol|
|  sn= 8 | S(rot)=       0.00964366 Eh      6.05 kcal/mol|
|  sn= 9 | S(rot)=       0.00953245 Eh      5.98 kcal/mol|
|  sn=10 | S(rot)=       0.00943297 Eh      5.92 kcal/mol|
|  sn=11 | S(rot)=       0.00934298 Eh      5.86 kcal/mol|
|  sn=12 | S(rot)=       0.00926083 Eh      5.81 kcal/mol|
 linear molecules ---------------------------------------
|  Dinfh | S(rot)=       0.00715268 Eh      4.49 kcal/mol|
|  Cinfv | S(rot)=       0.00780713 Eh      4.90 kcal/mol|
 --------------------------------------------------------

-------------------
GIBBS FREE ENERGY
-------------------

The Gibbs free energy is G = H - T*S

Total enthalpy                    ...   -194.19690394 Eh
Total entropy correction          ...     -0.03407282 Eh    -21.38 kcal/mol
-----------------------------------------------------------------------
Final Gibbs free energy         ...   -194.23097676 Eh

For completeness - the Gibbs free energy minus the electronic energy

                             ****ORCA TERMINATED NORMALLY****
TOTAL RUN TIME: 0 days 0 hours 3 minutes 45 seconds 45 msec
