                         Program Version 6.0.1  -  RELEASE   -
|  1> ! pbe def2-sv(p) def2/J RI DEFGRID1 loosescf d4 GCP(DFT/SV(P)) printgap
|  2> %output
|  3>     printlevel normal
|  4> end
|  5> * xyz 0 1
|  6> C -2.5821948316 0.0114571867 -0.0187876296
|  7> C -1.8847621793 1.1888296125 0.1959412099
|  8> C -0.5012276152 1.1872388253 0.2082109619
|  9> C 0.1957561891 -0.0006416197 0.009795981
| 10> C -0.511900292 -1.1834877261 -0.1828308613
| 11> C -1.8938090992 -1.1762936916 -0.2047029369
| 12> C 1.6862217578 -0.0748897898 0.0279797017
| 13> O 2.2910718125 -1.0619012499 0.3900154913
| 14> N 2.327874992 1.046036672 -0.3904080194
| 15> H -3.6621409079 0.0194975727 -0.0320343805
| 16> H -2.4214455516 2.1123509359 0.3575943335
| 17> H 0.0291953444 2.1083657213 0.4039962042
| 18> H 0.0436171338 -2.0998299642 -0.3137875942
| 19> H -2.4359028009 -2.0969057817 -0.3619749233
| 20> H 1.8411237462 1.8174833899 -0.8084050782
| 21> H 3.3331876371 1.0284449073 -0.4353425622
| 22> *
| 23>
| 24>                          ****END OF INPUT****

CARTESIAN COORDINATES (ANGSTROEM)
---------------------------------
  C     -2.582195    0.011457   -0.018788
  C     -1.884762    1.188830    0.195941
  C     -0.501228    1.187239    0.208211
  C      0.195756   -0.000642    0.009796
  C     -0.511900   -1.183488   -0.182831
  C     -1.893809   -1.176294   -0.204703
  C      1.686222   -0.074890    0.027980
  O      2.291072   -1.061901    0.390015
  N      2.327875    1.046037   -0.390408
  H     -3.662141    0.019498   -0.032034
  H     -2.421446    2.112351    0.357594
  H      0.029195    2.108366    0.403996
  H      0.043617   -2.099830   -0.313788
  H     -2.435903   -2.096906   -0.361975
  H      1.841124    1.817483   -0.808405
  H      3.333188    1.028445   -0.435343

 Total Charge           Charge          ....    0
 Multiplicity           Mult            ....    1
 Number of Electrons    NEL             ....   64
 Basis Dimension        Dim             ....  140

ORBITAL ENERGIES
----------------

  NO   OCC          E(Eh)            E(eV)
   0   2.0000     -18.713184      -509.2116
   1   2.0000     -14.008466      -381.1897
   2   2.0000      -9.984642      -271.6959
   3   2.0000      -9.907714      -269.6026
   4   2.0000      -9.906417      -269.5673
   5   2.0000      -9.902479      -269.4602
   6   2.0000      -9.901862      -269.4434
   7   2.0000      -9.899354      -269.3751
   8   2.0000      -9.897628      -269.3282
   9   2.0000      -0.934549       -25.4304
  10   2.0000      -0.819191       -22.2913
  11   2.0000      -0.784041       -21.3348
  12   2.0000      -0.688234       -18.7278
  13   2.0000      -0.678884       -18.4734
  14   2.0000      -0.580650       -15.8003
  15   2.0000      -0.551620       -15.0103
  16   2.0000      -0.523627       -14.2486
  17   2.0000      -0.503671       -13.7056
  18   2.0000      -0.466896       -12.7049
  19   2.0000      -0.427516       -11.6333
  20   2.0000      -0.410735       -11.1767
  21   2.0000      -0.392259       -10.6739
  22   2.0000      -0.383298       -10.4301
  23   2.0000      -0.367620       -10.0034
  24   2.0000      -0.352893        -9.6027
  25   2.0000      -0.332322        -9.0429
  26   2.0000      -0.317896        -8.6504
  27   2.0000      -0.307320        -8.3626
  28   2.0000      -0.239789        -6.5250
  29   2.0000      -0.237625        -6.4661
  30   2.0000      -0.229893        -6.2557
  31   2.0000      -0.200708        -5.4615
  32   0.0000      -0.062816        -1.7093
  33   0.0000      -0.043620        -1.1870
  34   0.0000       0.023292         0.6338
  35   0.0000       0.029440         0.8011
  36   0.0000       0.049888         1.3575

MULLIKEN ATOMIC CHARGES
-----------------------
   0 C :   -0.043846
   1 C :   -0.050596
   2 C :   -0.119783
   3 C :    0.043096
   4 C :   -0.091358
   5 C :   -0.043003
   6 C :    0.081467
   7 O :   -0.190441
   8 N :   -0.326526
   9 H :    0.058995
  10 H :    0.055513
  11 H :    0.041372
  12 H :    0.063999
  13 H :    0.059321
  14 H :    0.230580
  15 H :    0.231211
Sum of atomic charges:   -0.0000000

LOEWDIN ATOMIC CHARGES
----------------------
   0 C :   -0.114365
   1 C :   -0.120554
   2 C :   -0.122043
   3 C :   -0.069092
   4 C :   -0.090993
   5 C :   -0.117513
   6 C :    0.019941
   7 O :   -0.185333
   8 N :   -0.296907
   9 H :    0.125704
  10 H :    0.125044
  11 H :    0.119831
  12 H :    0.134683
  13 H :    0.126737
  14 H :    0.230996
  15 H :    0.233863

  Mayer bond orders larger than 0.100000
B(  0-C ,  1-C ) :   1.3870 B(  0-C ,  5-C ) :   1.3673 B(  0-C ,  9-H ) :   0.9648
B(  1-C ,  2-C ) :   1.3840 B(  1-C , 10-H ) :   0.9621 B(  2-C ,  3-C ) :   1.3602
B(  2-C , 11-H ) :   0.9542 B(  3-C ,  4-C ) :   1.3992 B(  3-C ,  6-C ) :   0.8986
B(  4-C ,  5-C ) :   1.3572 B(  4-C , 12-H ) :   0.9609 B(  5-C , 13-H ) :   0.9666
B(  6-C ,  7-O ) :   2.1309 B(  6-C ,  8-N ) :   1.2727 B(  8-N , 14-H ) :   0.8653
B(  8-N , 15-H ) :   0.8672

Dispersion correction           -0.016685517
FINAL SINGLE POINT ENERGY      -400.106927929726

DIPOLE MOMENT
-------------

Method             : SCF
Type of density    : Electron Density
Multiplicity       :   1
Irrep              :   0
Energy             :  -400.1548600275241938 Eh
Relativity type    :
Basis              : AO
                                X                 Y                 Z
Electronic contribution:      2.577474734      -1.537430961       0.552028959
Nuclear contribution   :     -3.023324245       2.700772811      -1.112747243
                        -----------------------------------------
Total Dipole Moment    :     -0.445849511       1.163341850      -0.560718283
                        -----------------------------------------
Magnitude (a.u.)       :      1.366217786
Magnitude (Debye)      :      3.472649636

Rotational constants in cm-1:             0.128801             0.040683             0.031834
Rotational constants in MHz :          3861.367678          1219.650034           954.348943

                             ****ORCA TERMINATED NORMALLY****
TOTAL RUN TIME: 0 days 0 hours 0 minutes 14 seconds 530 msec
