                         Program Version 6.0.1  -  RELEASE   -
|  1> ! pbe def2-sv(p) def2/J RI DEFGRID1 loosescf d4 GCP(DFT/SV(P)) printgap
|  2> %output
|  3>     printlevel normal
|  4> end
|  5> * xyz 0 1
|  6> C 3.4890575784 -0.4771568266 -0.3692117618
|  7> C 2.1958100267 -0.351842851 0.4332458736
|  8> H 2.4538135296 -0.383345954 1.4970863817
|  9> C 1.2325877629 -1.5115762264 0.137144718
| 10> C 0.2713268207 -1.1660347535 -0.9963423571
| 11> C -0.6588952491 0.017595217 -0.6564970065
| 12> H -0.7626323888 0.6286197414 -1.5647188627
| 13> C 0.0033666142 0.9247026272 0.3992922526
| 14> H -0.1671944525 0.5405372952 1.4077570122
| 15> C 1.5121453184 0.9872717134 0.1345892837
| 16> O -0.5508403775 2.2231463586 0.4249967817
| 17> C -2.0883654715 -0.4507349131 -0.3044514172
| 18> C -2.1777087572 -1.2689627389 0.9815421492
| 19> C -3.0598549114 0.7270488781 -0.2347049283
| 20> H 4.1352816555 0.3782002729 -0.1839736227
| 21> H 4.0277760781 -1.3798887886 -0.0894845205
| 22> H 3.2760857872 -0.5213842781 -1.4352075879
| 23> H 1.8046001677 -2.4018763074 -0.132068824
| 24> H 0.6623695677 -1.7491790113 1.0348788028
| 25> H 0.8592580226 -0.9259400123 -1.8845413628
| 26> H -0.3312628983 -2.0422973017 -1.2421851346
| 27> H 1.6700094421 1.2616120939 -0.9125154884
| 28> H 1.9458164603 1.7769631453 0.7511317351
| 29> H -0.4417228033 2.6181966285 -0.4477550896
| 30> H -2.4096876714 -1.0978997748 -1.1317556074
| 31> H -1.5291433616 -2.1398017055 0.9419332784
| 32> H -3.1993318658 -1.6174188082 1.1196468735
| 33> H -1.9114511369 -0.6675604911 1.8466607748
| 34> H -3.0684969298 1.2759125511 -1.1745021777
| 35> H -2.7751051787 1.4103041614 0.5598899744
| 36> H -4.0687621775 0.3686577189 -0.0414809004
| 37> *
| 38>
| 39>                          ****END OF INPUT****

CARTESIAN COORDINATES (ANGSTROEM)
---------------------------------
  C      3.489058   -0.477157   -0.369212
  C      2.195810   -0.351843    0.433246
  H      2.453814   -0.383346    1.497086
  C      1.232588   -1.511576    0.137145
  C      0.271327   -1.166035   -0.996342
  C     -0.658895    0.017595   -0.656497
  H     -0.762632    0.628620   -1.564719
  C      0.003367    0.924703    0.399292
  H     -0.167194    0.540537    1.407757
  C      1.512145    0.987272    0.134589
  O     -0.550840    2.223146    0.424997
  C     -2.088365   -0.450735   -0.304451
  C     -2.177709   -1.268963    0.981542
  C     -3.059855    0.727049   -0.234705
  H      4.135282    0.378200   -0.183974
  H      4.027776   -1.379889   -0.089485
  H      3.276086   -0.521384   -1.435208
  H      1.804600   -2.401876   -0.132069
  H      0.662370   -1.749179    1.034879
  H      0.859258   -0.925940   -1.884541
  H     -0.331263   -2.042297   -1.242185
  H      1.670009    1.261612   -0.912515
  H      1.945816    1.776963    0.751132
  H     -0.441723    2.618197   -0.447755
  H     -2.409688   -1.097900   -1.131756
  H     -1.529143   -2.139802    0.941933
  H     -3.199332   -1.617419    1.119647
  H     -1.911451   -0.667560    1.846661
  H     -3.068497    1.275913   -1.174502
  H     -2.775105    1.410304    0.559890
  H     -4.068762    0.368658   -0.041481

 Total Charge           Charge          ....    0
 Multiplicity           Mult            ....    1
 Number of Electrons    NEL             ....   88
 Basis Dimension        Dim             ....  194

ORBITAL ENERGIES
----------------

  NO   OCC          E(Eh)            E(eV)
   0   2.0000     -18.738107      -509.8898
   1   2.0000      -9.931836      -270.2590
   2   2.0000      -9.893587      -269.2182
   3   2.0000      -9.890439      -269.1325
   4   2.0000      -9.889571      -269.1089
   5   2.0000      -9.882953      -268.9288
   6   2.0000      -9.880645      -268.8660
   7   2.0000      -9.878605      -268.8105
   8   2.0000      -9.873446      -268.6701
   9   2.0000      -9.869952      -268.5751
  10   2.0000      -9.859664      -268.2951
  11   2.0000      -0.919500       -25.0209
  12   2.0000      -0.759479       -20.6665
  13   2.0000      -0.719625       -19.5820
  14   2.0000      -0.667207       -18.1556
  15   2.0000      -0.653216       -17.7749
  16   2.0000      -0.608610       -16.5611
  17   2.0000      -0.599617       -16.3164
  18   2.0000      -0.559649       -15.2288
  19   2.0000      -0.538377       -14.6500
  20   2.0000      -0.496250       -13.5037
  21   2.0000      -0.482439       -13.1278
  22   2.0000      -0.441183       -12.0052
  23   2.0000      -0.434348       -11.8192
  24   2.0000      -0.419432       -11.4133
  25   2.0000      -0.397547       -10.8178
  26   2.0000      -0.383570       -10.4375
  27   2.0000      -0.374255       -10.1840
  28   2.0000      -0.369212       -10.0468
  29   2.0000      -0.352430        -9.5901
  30   2.0000      -0.342889        -9.3305
  31   2.0000      -0.338253        -9.2043
  32   2.0000      -0.335770        -9.1368
  33   2.0000      -0.330594        -8.9959
  34   2.0000      -0.322565        -8.7774
  35   2.0000      -0.309807        -8.4303
  36   2.0000      -0.297754        -8.1023
  37   2.0000      -0.288645        -7.8544
  38   2.0000      -0.283825        -7.7233
  39   2.0000      -0.279020        -7.5925
  40   2.0000      -0.266749        -7.2586
  41   2.0000      -0.262075        -7.1314
  42   2.0000      -0.247662        -6.7392
  43   2.0000      -0.203057        -5.5255
  44   0.0000       0.022764         0.6194
  45   0.0000       0.034394         0.9359
  46   0.0000       0.044256         1.2043
  47   0.0000       0.054745         1.4897
  48   0.0000       0.075820         2.0632

MULLIKEN ATOMIC CHARGES
-----------------------
   0 C :   -0.242703
   1 C :   -0.182333
   2 H :    0.067902
   3 C :   -0.115956
   4 C :   -0.105488
   5 C :   -0.118983
   6 H :    0.036044
   7 C :    0.034904
   8 H :    0.066328
   9 C :   -0.071722
  10 O :   -0.409007
  11 C :   -0.140039
  12 C :   -0.272594
  13 C :   -0.240472
  14 H :    0.100362
  15 H :    0.098352
  16 H :    0.095704
  17 H :    0.077164
  18 H :    0.081551
  19 H :    0.071148
  20 H :    0.080330
  21 H :    0.046568
  22 H :    0.084907
  23 H :    0.289903
  24 H :    0.064830
  25 H :    0.111365
  26 H :    0.097734
  27 H :    0.106800
  28 H :    0.080407
  29 H :    0.118849
  30 H :    0.088142
Sum of atomic charges:   -0.0000000

LOEWDIN ATOMIC CHARGES
----------------------
   0 C :   -0.328786
   1 C :   -0.150648
   2 H :    0.116473
   3 C :   -0.222172
   4 C :   -0.217624
   5 C :   -0.146023
   6 H :    0.109288
   7 C :   -0.049565
   8 H :    0.112741
   9 C :   -0.229121
  10 O :   -0.310970
  11 C :   -0.145523
  12 C :   -0.333701
  13 C :   -0.338232
  14 H :    0.118093
  15 H :    0.116577
  16 H :    0.114558
  17 H :    0.117414
  18 H :    0.115460
  19 H :    0.115733
  20 H :    0.117609
  21 H :    0.109116
  22 H :    0.120362
  23 H :    0.277481
  24 H :    0.111318
  25 H :    0.116463
  26 H :    0.120264
  27 H :    0.117860
  28 H :    0.110147
  29 H :    0.123296
  30 H :    0.112112

  Mayer bond orders larger than 0.100000
B(  0-C ,  1-C ) :   1.1168 B(  0-C , 14-H ) :   0.9493 B(  0-C , 15-H ) :   0.9466
B(  0-C , 16-H ) :   0.9452 B(  1-C ,  2-H ) :   0.8947 B(  1-C ,  3-C ) :   1.0912
B(  1-C ,  9-C ) :   1.0827 B(  3-C ,  4-C ) :   1.1945 B(  3-C , 17-H ) :   0.9138
B(  3-C , 18-H ) :   0.8932 B(  4-C ,  5-C ) :   1.0632 B(  4-C , 19-H ) :   0.8954
B(  4-C , 20-H ) :   0.9056 B(  5-C ,  6-H ) :   0.8659 B(  5-C ,  7-C ) :   1.0192
B(  5-C , 11-C ) :   1.0558 B(  7-C ,  8-H ) :   0.8741 B(  7-C ,  9-C ) :   1.1357
B(  7-C , 10-O ) :   1.0272 B(  9-C , 21-H ) :   0.8815 B(  9-C , 22-H ) :   0.9045
B( 10-O , 23-H ) :   0.8502 B( 11-C , 12-C ) :   1.1167 B( 11-C , 13-C ) :   1.1197
B( 11-C , 24-H ) :   0.8947 B( 12-C , 25-H ) :   0.9380 B( 12-C , 26-H ) :   0.9445
B( 12-C , 27-H ) :   0.9413 B( 13-C , 28-H ) :   0.9474 B( 13-C , 29-H ) :   0.9339
B( 13-C , 30-H ) :   0.9453

Dispersion correction           -0.032472494
FINAL SINGLE POINT ENERGY      -467.188223896318

DIPOLE MOMENT
-------------

Method             : SCF
Type of density    : Electron Density
Multiplicity       :   1
Irrep              :   0
Energy             :  -467.3004473416240216 Eh
Relativity type    :
Basis              : AO
                                X                 Y                 Z
Electronic contribution:      0.130852596       4.118359612       0.585074416
Nuclear contribution   :      0.151521180      -4.345980034      -1.008041594
                        -----------------------------------------
Total Dipole Moment    :      0.282373777      -0.227620423      -0.422967177
                        -----------------------------------------
Magnitude (a.u.)       :      0.557177925
Magnitude (Debye)      :      1.416233734

Rotational constants in cm-1:             0.060680             0.025152             0.020518
Rotational constants in MHz :          1819.127117           754.036553           615.103242

                             ****ORCA TERMINATED NORMALLY****
TOTAL RUN TIME: 0 days 0 hours 0 minutes 11 seconds 905 msec
