                         Program Version 6.0.1  -  RELEASE   -
|  1> ! r2scan-3c def2/J RI DEFGRID2 scfconv6 printgap
|  2> %output
|  3>     printlevel normal
|  4> end
|  5> * xyz 0 1
|  6> C -1.4913991309 -0.1733062926 1.2432336109
|  7> C -0.6383449932 -0.4312784914 0.0002906098
|  8> C -1.4904446307 -0.1748778759 -1.2436185537
|  9> C 0.6383578222 0.4313092979 0.0003805298
| 10> C 1.4913463333 0.1731272496 1.2433289408
| 11> C 1.4904859446 0.175036064 -1.2435443587
| 12> H -1.7233886181 0.8863556477 1.3301827033
| 13> H -2.428271185 -0.7222009704 1.1736512749
| 14> H -0.9853560261 -0.4942300398 2.1489780157
| 15> H -0.3375578941 -1.4856210114 0.0010598542
| 16> H -2.4278834844 -0.7227235983 -1.1734306938
| 17> H -1.7213493285 0.8848310439 -1.3327971786
| 18> H -0.984197591 -0.4981332063 -2.1484200284
| 19> H 0.337602753 1.4856586805 0.0012654361
| 20> H 0.9855707403 0.4946106974 2.1490244278
| 21> H 1.7226814019 -0.8866551708 1.3305503112
| 22> H 2.4285559489 0.721412345 1.1735414916
| 23> H 1.7215655005 -0.8846367476 -1.3327013956
| 24> H 2.4278396145 0.7230295063 -1.173403351
| 25> H 0.984172137 0.4981842318 -2.1483443282
| 26> *
| 27>
| 28>                          ****END OF INPUT****

CARTESIAN COORDINATES (ANGSTROEM)
---------------------------------
  C     -1.491399   -0.173306    1.243234
  C     -0.638345   -0.431278    0.000291
  C     -1.490445   -0.174878   -1.243619
  C      0.638358    0.431309    0.000381
  C      1.491346    0.173127    1.243329
  C      1.490486    0.175036   -1.243544
  H     -1.723389    0.886356    1.330183
  H     -2.428271   -0.722201    1.173651
  H     -0.985356   -0.494230    2.148978
  H     -0.337558   -1.485621    0.001060
  H     -2.427883   -0.722724   -1.173431
  H     -1.721349    0.884831   -1.332797
  H     -0.984198   -0.498133   -2.148420
  H      0.337603    1.485659    0.001265
  H      0.985571    0.494611    2.149024
  H      1.722681   -0.886655    1.330550
  H      2.428556    0.721412    1.173541
  H      1.721566   -0.884637   -1.332701
  H      2.427840    0.723030   -1.173403
  H      0.984172    0.498184   -2.148344

 Total Charge           Charge          ....    0
 Multiplicity           Mult            ....    1
 Number of Electrons    NEL             ....   50
 Basis Dimension        Dim             ....  184

ORBITAL ENERGIES
----------------

  NO   OCC          E(Eh)            E(eV)
   0   2.0000     -10.029430      -272.9147
   1   2.0000     -10.029311      -272.9114
   2   2.0000     -10.011684      -272.4318
   3   2.0000     -10.011679      -272.4316
   4   2.0000     -10.011678      -272.4316
   5   2.0000     -10.011675      -272.4315
   6   2.0000      -0.785781       -21.3822
   7   2.0000      -0.714089       -19.4314
   8   2.0000      -0.657541       -17.8926
   9   2.0000      -0.633023       -17.2254
  10   2.0000      -0.572709       -15.5842
  11   2.0000      -0.514775       -14.0078
  12   2.0000      -0.425199       -11.5703
  13   2.0000      -0.423810       -11.5325
  14   2.0000      -0.399287       -10.8652
  15   2.0000      -0.390297       -10.6205
  16   2.0000      -0.360376        -9.8063
  17   2.0000      -0.358105        -9.7445
  18   2.0000      -0.346110        -9.4181
  19   2.0000      -0.329456        -8.9650
  20   2.0000      -0.321063        -8.7366
  21   2.0000      -0.308072        -8.3831
  22   2.0000      -0.287155        -7.8139
  23   2.0000      -0.278800        -7.5865
  24   2.0000      -0.275904        -7.5077
  25   0.0000       0.085179         2.3178
  26   0.0000       0.117394         3.1944
  27   0.0000       0.119457         3.2506
  28   0.0000       0.122307         3.3281
  29   0.0000       0.122906         3.3445

MULLIKEN ATOMIC CHARGES
-----------------------
   0 C :   -0.510703
   1 C :   -0.027213
   2 C :   -0.510642
   3 C :   -0.027162
   4 C :   -0.510769
   5 C :   -0.510612
   6 H :    0.152216
   7 H :    0.142322
   8 H :    0.154289
   9 H :    0.150753
  10 H :    0.142295
  11 H :    0.152269
  12 H :    0.154406
  13 H :    0.150751
  14 H :    0.154297
  15 H :    0.152236
  16 H :    0.142311
  17 H :    0.152254
  18 H :    0.142300
  19 H :    0.154405
Sum of atomic charges:    0.0000000

LOEWDIN ATOMIC CHARGES
----------------------
   0 C :   -0.416989
   1 C :   -0.242948
   2 C :   -0.417000
   3 C :   -0.242944
   4 C :   -0.416997
   5 C :   -0.416998
   6 H :    0.154795
   7 H :    0.152342
   8 H :    0.153031
   9 H :    0.156568
  10 H :    0.152348
  11 H :    0.154805
  12 H :    0.153050
  13 H :    0.156569
  14 H :    0.153027
  15 H :    0.154798
  16 H :    0.152343
  17 H :    0.154804
  18 H :    0.152343
  19 H :    0.153051

  Mayer bond orders larger than 0.100000
B(  0-C ,  1-C ) :   0.8881 B(  0-C ,  6-H ) :   0.9875 B(  0-C ,  7-H ) :   0.9745
B(  0-C ,  8-H ) :   0.9768 B(  1-C ,  2-C ) :   0.8877 B(  1-C ,  3-C ) :   0.8772
B(  1-C ,  9-H ) :   0.9707 B(  2-C , 10-H ) :   0.9745 B(  2-C , 11-H ) :   0.9874
B(  2-C , 12-H ) :   0.9767 B(  3-C ,  4-C ) :   0.8880 B(  3-C ,  5-C ) :   0.8877
B(  3-C , 13-H ) :   0.9707 B(  4-C , 14-H ) :   0.9768 B(  4-C , 15-H ) :   0.9875
B(  4-C , 16-H ) :   0.9745 B(  5-C , 17-H ) :   0.9874 B(  5-C , 18-H ) :   0.9745
B(  5-C , 19-H ) :   0.9767

Dispersion correction           -0.005249427
FINAL SINGLE POINT ENERGY      -236.988521441254

DIPOLE MOMENT
-------------

Method             : SCF
Type of density    : Electron Density
Multiplicity       :   1
Irrep              :   0
Energy             :  -236.9930674558899568 Eh
Relativity type    :
Basis              : AO
                                X                 Y                 Z
Electronic contribution:      0.000020952       0.000115467       0.000763953
Nuclear contribution   :     -0.000015040      -0.000111258      -0.000791302
                        -----------------------------------------
Total Dipole Moment    :      0.000005912       0.000004208      -0.000027349
                        -----------------------------------------
Magnitude (a.u.)       :      0.000028296
Magnitude (Debye)      :      0.000071922

Rotational constants in cm-1:             0.142199             0.097393             0.063438
Rotational constants in MHz :          4263.016662          2919.781850          1901.813707

                             ****ORCA TERMINATED NORMALLY****
TOTAL RUN TIME: 0 days 0 hours 0 minutes 13 seconds 395 msec
