                         Program Version 6.0.0  -   RELEASE  -
|  1> ! r2SCAN-3c DEF2-TZVP FREQ
|  2> * xyzfile 0 1 censo.xyz
|  3>
|  4>                          ****END OF INPUT****

CARTESIAN COORDINATES (ANGSTROEM)
---------------------------------
  C     -4.003499   -0.678614   -0.000620
  C     -3.998041    0.718358   -0.001150
  C     -2.795074    1.406358   -0.000698
  C     -1.583733    0.704969    0.000030
  C     -1.586524   -0.702288    0.000478
  C     -2.808206   -1.382417    0.000251
  C     -0.324289   -1.476385    0.000737
  O     -0.377149   -2.729134    0.001674
  C      0.925364   -0.748137    0.000257
  C      2.168568   -1.433978   -0.000294
  C      3.374175   -0.671167   -0.001320
  C      3.360969    0.691936   -0.001342
  C      2.135023    1.391995   -0.000415
  C      0.921697    0.685936    0.000118
  C     -0.315694    1.437970    0.000042
  O     -0.313219    2.699744    0.000702
  O      2.186054    2.735957   -0.000437
  N      2.271241   -2.775682   -0.000027
  H     -4.945753   -1.216564   -0.000912
  H     -4.934891    1.265301   -0.001931
  H     -2.779831    2.490277   -0.001162
  H     -2.808963   -2.466352    0.000593
  H      4.319500   -1.206033   -0.002011
  H      4.284970    1.260215   -0.002061
  H      1.219600    3.028084    0.000088
  H      1.424081   -3.327282    0.000325
  H      3.182609   -3.205131   -0.001268

 Total Charge           Charge          ....    0
 Multiplicity           Mult            ....    1
 Number of Electrons    NEL             ....  124
 Basis Dimension        Dim             ....  612

ORBITAL ENERGIES
----------------

  NO   OCC          E(Eh)            E(eV)
   0   2.0000     -18.976769      -516.3841
   1   2.0000     -18.950373      -515.6659
   2   2.0000     -18.935608      -515.2641
   3   2.0000     -14.190129      -386.1330
   4   2.0000     -10.128501      -275.6105
   5   2.0000     -10.120248      -275.3860
   6   2.0000     -10.116848      -275.2934
   7   2.0000     -10.108575      -275.0683
   8   2.0000     -10.066723      -273.9294
   9   2.0000     -10.061721      -273.7933
  10   2.0000     -10.061508      -273.7875
  11   2.0000     -10.061289      -273.7816
  12   2.0000     -10.059595      -273.7355
  13   2.0000     -10.058878      -273.7160
  14   2.0000     -10.056115      -273.6408
  15   2.0000     -10.055386      -273.6210
  16   2.0000     -10.053563      -273.5714
  17   2.0000     -10.051382      -273.5120
  18   2.0000      -1.033352       -28.1189
  19   2.0000      -0.995428       -27.0870
  20   2.0000      -0.992509       -27.0075
  21   2.0000      -0.915897       -24.9228
  22   2.0000      -0.847655       -23.0659
  23   2.0000      -0.826476       -22.4896
  24   2.0000      -0.775935       -21.1143
  25   2.0000      -0.737259       -20.0618
  26   2.0000      -0.733863       -19.9694
  27   2.0000      -0.714263       -19.4361
  28   2.0000      -0.656123       -17.8540
  29   2.0000      -0.631192       -17.1756
  30   2.0000      -0.618055       -16.8181
  31   2.0000      -0.581379       -15.8201
  32   2.0000      -0.557863       -15.1802
  33   2.0000      -0.542636       -14.7659
  34   2.0000      -0.519304       -14.1310
  35   2.0000      -0.506841       -13.7919
  36   2.0000      -0.497202       -13.5296
  37   2.0000      -0.468203       -12.7405
  38   2.0000      -0.452494       -12.3130
  39   2.0000      -0.446940       -12.1619
  40   2.0000      -0.441004       -12.0003
  41   2.0000      -0.425065       -11.5666
  42   2.0000      -0.410381       -11.1670
  43   2.0000      -0.406502       -11.0615
  44   2.0000      -0.405811       -11.0427
  45   2.0000      -0.397910       -10.8277
  46   2.0000      -0.391282       -10.6473
  47   2.0000      -0.384471       -10.4620
  48   2.0000      -0.381287       -10.3753
  49   2.0000      -0.366700        -9.9784
  50   2.0000      -0.348157        -9.4738
  51   2.0000      -0.341838        -9.3019
  52   2.0000      -0.338808        -9.2194
  53   2.0000      -0.338575        -9.2131
  54   2.0000      -0.325059        -8.8453
  55   2.0000      -0.281005        -7.6465
  56   2.0000      -0.264068        -7.1856
  57   2.0000      -0.253225        -6.8906
  58   2.0000      -0.251623        -6.8470
  59   2.0000      -0.241053        -6.5594
  60   2.0000      -0.226227        -6.1560
  61   2.0000      -0.192039        -5.2256
  62   0.0000      -0.131069        -3.5666
  63   0.0000      -0.082686        -2.2500
  64   0.0000      -0.056622        -1.5408
  65   0.0000      -0.026760        -0.7282
  66   0.0000       0.018128         0.4933

MULLIKEN ATOMIC CHARGES
-----------------------
   0 C :   -0.062602
   1 C :   -0.070957
   2 C :   -0.183155
   3 C :    0.062140
   4 C :    0.081545
   5 C :   -0.181530
   6 C :    0.207479
   7 O :   -0.469930
   8 C :   -0.048448
   9 C :    0.228901
  10 C :   -0.192545
  11 C :   -0.210084
  12 C :    0.236975
  13 C :   -0.056461
  14 C :    0.279728
  15 O :   -0.453976
  16 O :   -0.388252
  17 N :   -0.373079
  18 H :    0.119090
  19 H :    0.119112
  20 H :    0.137404
  21 H :    0.137357
  22 H :    0.096807
  23 H :    0.122858
  24 H :    0.353404
  25 H :    0.278425
  26 H :    0.229794
Sum of atomic charges:    0.0000000

LOEWDIN ATOMIC CHARGES
----------------------
   0 C :   -0.117562
   1 C :   -0.120718
   2 C :   -0.068902
   3 C :   -0.071229
   4 C :   -0.061600
   5 C :   -0.071065
   6 C :   -0.247357
   7 O :    0.055407
   8 C :   -0.066769
   9 C :   -0.186203
  10 C :   -0.096615
  11 C :   -0.090096
  12 C :   -0.222092
  13 C :   -0.073119
  14 C :   -0.229107
  15 O :    0.069139
  16 O :    0.114489
  17 N :    0.049173
  18 H :    0.146659
  19 H :    0.146633
  20 H :    0.157401
  21 H :    0.157345
  22 H :    0.147727
  23 H :    0.156574
  24 H :    0.178188
  25 H :    0.174393
  26 H :    0.169304

  Mayer bond orders larger than 0.100000
B(  0-C ,  1-C ) :   1.3327 B(  0-C ,  5-C ) :   1.3989 B(  0-C , 18-H ) :   0.9704
B(  1-C ,  2-C ) :   1.4112 B(  1-C , 19-H ) :   0.9707 B(  2-C ,  3-C ) :   1.3198
B(  2-C , 20-H ) :   0.9650 B(  3-C ,  4-C ) :   1.2805 B(  3-C , 14-C ) :   1.0520
B(  3-C , 15-O ) :  -0.1284 B(  4-C ,  5-C ) :   1.3387 B(  4-C ,  6-C ) :   1.0277
B(  4-C ,  7-O ) :  -0.1505 B(  5-C , 21-H ) :   0.9621 B(  6-C ,  7-O ) :   1.8120
B(  6-C ,  8-C ) :   1.0660 B(  8-C ,  9-C ) :   1.2509 B(  8-C , 13-C ) :   1.0816
B(  9-C , 10-C ) :   1.1941 B(  9-C , 17-N ) :   1.2761 B( 10-C , 11-C ) :   1.5624
B( 10-C , 22-H ) :   0.9780 B( 11-C , 12-C ) :   1.2902 B( 11-C , 23-H ) :   0.9727
B( 12-C , 13-C ) :   1.2000 B( 12-C , 16-O ) :   1.2840 B( 13-C , 14-C ) :   1.0472
B( 14-C , 15-O ) :   1.7428 B( 15-O , 24-H ) :   0.1921 B( 16-O , 24-H ) :   0.7229
B( 17-N , 25-H ) :   0.8471 B( 17-N , 26-H ) :   0.9080

Dispersion correction           -0.013241870
FINAL SINGLE POINT ENERGY      -819.283093872475

DIPOLE MOMENT
-------------

Method             : SCF
Type of density    : Electron Density
Multiplicity       :   1
Irrep              :   0
Energy             :  -819.2827579597844760 Eh
Relativity type    :
Basis              : AO
                                X                 Y                 Z
Electronic contribution:      1.344801092       2.196632926       0.004543541
Nuclear contribution   :     -0.950301932      -3.156455349      -0.006910447
                        -----------------------------------------
Total Dipole Moment    :      0.394499159      -0.959822423      -0.002366906
                        -----------------------------------------
Magnitude (a.u.)       :      1.037735165
Magnitude (Debye)      :      2.637713167

VIBRATIONAL FREQUENCIES
-----------------------

Scaling factor for frequencies =  1.000000000  (already applied!)

     0:       0.00 cm**-1
     1:       0.00 cm**-1
     2:       0.00 cm**-1
     3:       0.00 cm**-1
     4:       0.00 cm**-1
     5:       0.00 cm**-1
     6:      60.65 cm**-1
     7:      82.61 cm**-1
     8:     135.08 cm**-1
     9:     152.60 cm**-1
    10:     187.93 cm**-1
    11:     214.38 cm**-1
    12:     235.56 cm**-1
    13:     303.50 cm**-1
    14:     319.33 cm**-1
    15:     341.71 cm**-1
    16:     361.66 cm**-1
    17:     396.66 cm**-1
    18:     422.57 cm**-1
    19:     427.29 cm**-1
    20:     440.11 cm**-1
    21:     444.46 cm**-1
    22:     458.08 cm**-1
    23:     499.24 cm**-1
    24:     503.69 cm**-1
    25:     527.55 cm**-1
    26:     578.87 cm**-1
    27:     614.90 cm**-1
    28:     657.21 cm**-1
    29:     669.12 cm**-1
    30:     679.98 cm**-1
    31:     714.05 cm**-1
    32:     733.27 cm**-1
    33:     754.88 cm**-1
    34:     776.72 cm**-1
    35:     804.02 cm**-1
    36:     821.45 cm**-1
    37:     839.68 cm**-1
    38:     882.63 cm**-1
    39:     910.13 cm**-1
    40:     922.94 cm**-1
    41:     940.17 cm**-1
    42:     955.39 cm**-1
    43:     985.01 cm**-1
    44:     987.43 cm**-1
    45:     997.43 cm**-1
    46:    1036.63 cm**-1
    47:    1057.95 cm**-1
    48:    1122.16 cm**-1
    49:    1136.86 cm**-1
    50:    1177.82 cm**-1
    51:    1190.15 cm**-1
    52:    1199.51 cm**-1
    53:    1258.10 cm**-1
    54:    1284.59 cm**-1
    55:    1300.29 cm**-1
    56:    1318.39 cm**-1
    57:    1364.09 cm**-1
    58:    1369.22 cm**-1
    59:    1408.00 cm**-1
    60:    1426.81 cm**-1
    61:    1453.51 cm**-1
    62:    1481.29 cm**-1
    63:    1489.28 cm**-1
    64:    1497.65 cm**-1
    65:    1556.67 cm**-1
    66:    1590.18 cm**-1
    67:    1598.63 cm**-1
    68:    1611.29 cm**-1
    69:    1630.49 cm**-1
    70:    1640.16 cm**-1
    71:    1668.46 cm**-1
    72:    2904.87 cm**-1
    73:    3159.29 cm**-1
    74:    3166.64 cm**-1
    75:    3180.77 cm**-1
    76:    3188.88 cm**-1
    77:    3196.00 cm**-1
    78:    3198.42 cm**-1
    79:    3487.77 cm**-1
    80:    3659.87 cm**-1

IR SPECTRUM
-----------

 Mode   freq       eps      Int      T**2         TX        TY        TZ
       cm**-1   L/(mol*cm) km/mol    a.u.
----------------------------------------------------------------------------
  6:     60.65   0.000749    3.79  0.003854  ( 0.000246  0.000133  0.062078)
  7:     82.61   0.000004    0.02  0.000014  (-0.000136  0.000183  0.003670)
  8:    135.08   0.000213    1.08  0.000492  ( 0.000084 -0.000276  0.022174)
  9:    152.60   0.000147    0.74  0.000300  (-0.000107  0.000027  0.017330)
 10:    187.93   0.000310    1.57  0.000515  ( 0.000140  0.000086  0.022686)
 11:    214.38   0.000068    0.34  0.000099  ( 0.008815  0.004583 -0.000032)
 12:    235.56   0.000103    0.52  0.000137  (-0.000077  0.000078 -0.011690)
 13:    303.50   0.026300  132.91  0.027042  ( 0.000355 -0.000242  0.164445)
 14:    319.33   0.000055    0.28  0.000053  ( 0.002376 -0.006905 -0.000394)
 15:    341.71   0.000927    4.69  0.000847  (-0.008135  0.027939 -0.000040)
 16:    361.66   0.002199   11.11  0.001897  (-0.000145  0.000080 -0.043555)
 17:    396.66   0.000064    0.32  0.000050  (-0.007078 -0.000261 -0.000004)
 18:    422.57   0.001780    8.99  0.001314  ( 0.035407  0.007793 -0.000066)
 19:    427.29   0.000213    1.07  0.000155  (-0.000257  0.000043 -0.012459)
 20:    440.11   0.001837    9.28  0.001303  ( 0.035889  0.003811 -0.000001)
 21:    444.46   0.000001    0.01  0.000001  ( 0.000076 -0.000069 -0.000983)
 22:    458.08   0.004711   23.81  0.003209  (-0.052828 -0.020461  0.000016)
 23:    499.24   0.000005    0.03  0.000003  ( 0.000005  0.000044  0.001828)
 24:    503.69   0.001098    5.55  0.000680  (-0.021604  0.014608 -0.000000)
 25:    527.55   0.001059    5.35  0.000626  ( 0.010043 -0.022920  0.000017)
 26:    578.87   0.007351   37.15  0.003963  ( 0.000135 -0.000047  0.062951)
 27:    614.90   0.000057    0.29  0.000029  ( 0.004163  0.003420 -0.000030)
 28:    657.21   0.000073    0.37  0.000035  ( 0.000176  0.000112 -0.005903)
 29:    669.12   0.001224    6.19  0.000571  ( 0.022857  0.006963  0.000011)
 30:    679.98   0.000099    0.50  0.000045  (-0.000100  0.000055  0.006732)
 31:    714.05   0.000990    5.00  0.000432  (-0.004450 -0.020314  0.000017)
 32:    733.27   0.007420   37.50  0.003158  ( 0.000123 -0.000069  0.056194)
 33:    754.88   0.000001    0.00  0.000000  ( 0.000036 -0.000019 -0.000498)
 34:    776.72   0.000406    2.05  0.000163  (-0.004108 -0.012091 -0.000002)
 35:    804.02   0.004532   22.90  0.001759  (-0.000098  0.000134 -0.041941)
 36:    821.45   0.000097    0.49  0.000037  ( 0.000002 -0.000006 -0.006059)
 37:    839.68   0.005412   27.35  0.002011  (-0.000131 -0.000031 -0.044846)
 38:    882.63   0.002909   14.70  0.001029  ( 0.029918  0.011556  0.000020)
 39:    910.13   0.000004    0.02  0.000001  (-0.000022  0.000111 -0.001108)
 40:    922.94   0.001303    6.58  0.000441  ( 0.001511  0.020934 -0.000051)
 41:    940.17   0.012630   63.83  0.004192  ( 0.000066 -0.000051 -0.064746)
 42:    955.39   0.000317    1.60  0.000103  ( 0.000084 -0.000044 -0.010173)
 43:    985.01   0.000204    1.03  0.000065  (-0.000173  0.000077 -0.008042)
 44:    987.43   0.002681   13.55  0.000847  ( 0.012197  0.026428  0.000022)
 45:    997.43   0.000031    0.16  0.000010  (-0.000016 -0.000009  0.003137)
 46:   1036.63   0.006095   30.80  0.001835  ( 0.038453 -0.018876 -0.000002)
 47:   1057.95   0.000602    3.04  0.000178  ( 0.009804  0.009032  0.000003)
 48:   1122.16   0.000935    4.73  0.000260  (-0.001228 -0.016078  0.000004)
 49:   1136.86   0.001389    7.02  0.000381  ( 0.011373  0.015868 -0.000013)
 50:   1177.82   0.002150   10.86  0.000570  (-0.022647  0.007533  0.000018)
 51:   1190.15   0.012943   65.41  0.003394  (-0.057910 -0.006330  0.000023)
 52:   1199.51   0.000806    4.07  0.000210  (-0.005192 -0.013520 -0.000012)
 53:   1258.10   0.009796   49.51  0.002430  (-0.039703 -0.029216 -0.000002)
 54:   1284.59   0.064802  327.48  0.015742  (-0.114423 -0.051475  0.000021)
 55:   1300.29   0.009107   46.02  0.002186  ( 0.040700  0.023004 -0.000001)
 56:   1318.39   0.042704  215.81  0.010108  ( 0.086433 -0.051355 -0.000017)
 57:   1364.09   0.017649   89.19  0.004038  ( 0.050571 -0.038472 -0.000001)
 58:   1369.22   0.006874   34.74  0.001567  ( 0.031298 -0.024229  0.000007)
 59:   1408.00   0.013710   69.29  0.003039  (-0.044801  0.032118  0.000006)
 60:   1426.81   0.004634   23.42  0.001014  (-0.026642 -0.017428  0.000013)
 61:   1453.51   0.028122  142.12  0.006038  (-0.070205 -0.033302 -0.000010)
 62:   1481.29   0.008695   43.94  0.001832  (-0.003829  0.042627  0.000030)
 63:   1489.28   0.002050   10.36  0.000430  ( 0.010297  0.017987 -0.000004)
 64:   1497.65   0.000315    1.59  0.000066  (-0.000830  0.008062 -0.000011)
 65:   1556.67   0.028217  142.60  0.005657  ( 0.035548  0.066280 -0.000046)
 66:   1590.18   0.094010  475.09  0.018449  ( 0.001918 -0.135814  0.000007)
 67:   1598.63   0.002471   12.49  0.000482  ( 0.021571 -0.004140 -0.000028)
 68:   1611.29   0.015646   79.07  0.003030  ( 0.023487 -0.049784 -0.000029)
 69:   1630.49   0.022800  115.22  0.004364  (-0.061901  0.023065  0.000040)
 70:   1640.16   0.003480   17.59  0.000662  ( 0.011217  0.023160 -0.000014)
 71:   1668.46   0.014904   75.32  0.002788  ( 0.046458 -0.025086  0.000024)
 72:   2904.87   0.028166  142.34  0.003026  ( 0.052287 -0.017086 -0.000029)
 73:   3159.29   0.002046   10.34  0.000202  (-0.010788  0.009260  0.000006)
 74:   3166.64   0.000672    3.40  0.000066  ( 0.001435  0.008010 -0.000003)
 75:   3180.77   0.002581   13.04  0.000253  ( 0.015908 -0.000426  0.000007)
 76:   3188.88   0.000940    4.75  0.000092  ( 0.009555  0.000837 -0.000004)
 77:   3196.00   0.000110    0.56  0.000011  (-0.001031  0.003108 -0.000002)
 78:   3198.42   0.002612   13.20  0.000255  ( 0.015961 -0.000308  0.000005)
 79:   3487.77   0.011840   59.84  0.001059  ( 0.001390 -0.032519  0.000001)
 80:   3659.87   0.013774   69.61  0.001174  (-0.033705  0.006196  0.000028)

--------------------------
THERMOCHEMISTRY AT 298.15K
--------------------------

Temperature         ...   298.15 K
Pressure            ...     1.00 atm
Total Mass          ...   239.23 AMU
Quasi RRHO          ...     True
Cut-Off Frequency   ...     1.00 cm^-1

Throughout the following assumptions are being made:
  (1) The electronic state is orbitally nondegenerate
  (2) There are no thermally accessible electronically excited states
  (3) Hindered rotations indicated by low frequency modes are not
      treated as such but are treated as vibrations and this may
      cause some error
  (4) All equations used are the standard statistical mechanics
      equations for an ideal gas
  (5) All vibrations are strictly harmonic

freq.      60.65  E(vib)   ...       0.51
freq.      82.61  E(vib)   ...       0.48
freq.     135.08  E(vib)   ...       0.42
freq.     152.60  E(vib)   ...       0.40
freq.     187.93  E(vib)   ...       0.36
freq.     214.38  E(vib)   ...       0.34
freq.     235.56  E(vib)   ...       0.32
freq.     303.50  E(vib)   ...       0.26
freq.     319.33  E(vib)   ...       0.25
freq.     341.71  E(vib)   ...       0.23
freq.     361.66  E(vib)   ...       0.22
freq.     396.66  E(vib)   ...       0.20
freq.     422.57  E(vib)   ...       0.18
freq.     427.29  E(vib)   ...       0.18
freq.     440.11  E(vib)   ...       0.17
freq.     444.46  E(vib)   ...       0.17
freq.     458.08  E(vib)   ...       0.16
freq.     499.24  E(vib)   ...       0.14
freq.     503.69  E(vib)   ...       0.14
freq.     527.55  E(vib)   ...       0.13
freq.     578.87  E(vib)   ...       0.11
freq.     614.90  E(vib)   ...       0.10
freq.     657.21  E(vib)   ...       0.08
freq.     669.12  E(vib)   ...       0.08
freq.     679.98  E(vib)   ...       0.08
freq.     714.05  E(vib)   ...       0.07
freq.     733.27  E(vib)   ...       0.06
freq.     754.88  E(vib)   ...       0.06
freq.     776.72  E(vib)   ...       0.05
freq.     804.02  E(vib)   ...       0.05
freq.     821.45  E(vib)   ...       0.05
freq.     839.68  E(vib)   ...       0.04
freq.     882.63  E(vib)   ...       0.04
freq.     910.13  E(vib)   ...       0.03
freq.     922.94  E(vib)   ...       0.03
freq.     940.17  E(vib)   ...       0.03
freq.     955.39  E(vib)   ...       0.03
freq.     985.01  E(vib)   ...       0.02
freq.     987.43  E(vib)   ...       0.02
freq.     997.43  E(vib)   ...       0.02
freq.    1036.63  E(vib)   ...       0.02
freq.    1057.95  E(vib)   ...       0.02
freq.    1122.16  E(vib)   ...       0.01
freq.    1136.86  E(vib)   ...       0.01
freq.    1177.82  E(vib)   ...       0.01
freq.    1190.15  E(vib)   ...       0.01
freq.    1199.51  E(vib)   ...       0.01
freq.    1258.10  E(vib)   ...       0.01
freq.    1284.59  E(vib)   ...       0.01
freq.    1300.29  E(vib)   ...       0.01
freq.    1318.39  E(vib)   ...       0.01
freq.    1364.09  E(vib)   ...       0.01
freq.    1369.22  E(vib)   ...       0.01
freq.    1408.00  E(vib)   ...       0.00
freq.    1426.81  E(vib)   ...       0.00
freq.    1453.51  E(vib)   ...       0.00
freq.    1481.29  E(vib)   ...       0.00
freq.    1489.28  E(vib)   ...       0.00
freq.    1497.65  E(vib)   ...       0.00
freq.    1556.67  E(vib)   ...       0.00
freq.    1590.18  E(vib)   ...       0.00
freq.    1598.63  E(vib)   ...       0.00
freq.    1611.29  E(vib)   ...       0.00
freq.    1630.49  E(vib)   ...       0.00
freq.    1640.16  E(vib)   ...       0.00
freq.    1668.46  E(vib)   ...       0.00
freq.    2904.87  E(vib)   ...       0.00
freq.    3159.29  E(vib)   ...       0.00
freq.    3166.64  E(vib)   ...       0.00
freq.    3180.77  E(vib)   ...       0.00
freq.    3188.88  E(vib)   ...       0.00
freq.    3196.00  E(vib)   ...       0.00
freq.    3198.42  E(vib)   ...       0.00
freq.    3487.77  E(vib)   ...       0.00
freq.    3659.87  E(vib)   ...       0.00

------------
INNER ENERGY
------------

The inner energy is: U= E(el) + E(ZPE) + E(vib) + E(rot) + E(trans)
    E(el)   - is the total energy from the electronic structure calculation
              = E(kin-el) + E(nuc-el) + E(el-el) + E(nuc-nuc)
    E(ZPE)  - the the zero temperature vibrational energy from the frequency calculation
    E(vib)  - the the finite temperature correction to E(ZPE) due to population
              of excited vibrational states
    E(rot)  - is the rotational thermal energy
    E(trans)- is the translational thermal energy

Summary of contributions to the inner energy U:
Electronic energy                ...   -819.28309387 Eh
Zero point energy                ...      0.19991056 Eh     125.45 kcal/mol
Thermal vibrational correction   ...      0.01032724 Eh       6.48 kcal/mol
Thermal rotational correction    ...      0.00141627 Eh       0.89 kcal/mol
Thermal translational correction ...      0.00141627 Eh       0.89 kcal/mol
-----------------------------------------------------------------------
Total thermal energy                   -819.07002353 Eh

Summary of corrections to the electronic energy:
(perhaps to be used in another calculation)
Total thermal correction                  0.01315978 Eh       8.26 kcal/mol
Non-thermal (ZPE) correction              0.19991056 Eh     125.45 kcal/mol
-----------------------------------------------------------------------
Total correction                          0.21307034 Eh     133.70 kcal/mol

--------
ENTHALPY
--------

The enthalpy is H = U + kB*T
                kB is Boltzmann's constant
Total thermal energy              ...   -819.07002353 Eh
Thermal Enthalpy correction       ...      0.00094421 Eh       0.59 kcal/mol
-----------------------------------------------------------------------
Total Enthalpy                    ...   -819.06907932 Eh

Note: Only C1 symmetry has been detected, increase convergence thresholds
      if your molecule has a higher symmetry. Symmetry factor of 1.0 is
      used for the rotational entropy correction.

Note: Rotational entropy computed according to Herzberg
Infrared and Raman Spectra, Chapter V,1, Van Nostrand Reinhold, 1945
Point Group:  C1, Symmetry Number:   1
Rotational constants in cm-1:     0.023892     0.012882     0.008369

Vibrational entropy computed according to the QRRHO of S. Grimme
Chem.Eur.J. 2012 18 9955 using a reference frequency of 100.0 cm-1

-------
ENTROPY
-------

The entropy contributions are T*S = T*(S(el)+S(vib)+S(rot)+S(trans))
     S(el)   - electronic entropy
     S(vib)  - vibrational entropy
     S(rot)  - rotational entropy
     S(trans)- translational entropy

                             ****ORCA TERMINATED NORMALLY****
TOTAL RUN TIME: 0 days 1 hours 0 minutes 35 seconds 166 msec
