                         Program Version 6.0.0  -   RELEASE  -
|  1> ! r2SCAN-3c DEF2-TZVP FREQ
|  2> * xyzfile 0 1 vacuum_censo.xyz
|  3>
|  4>                          ****END OF INPUT****

CARTESIAN COORDINATES (ANGSTROEM)
---------------------------------
  C     -4.002509   -0.677404    0.000813
  C     -3.995338    0.720091    0.000785
  C     -2.792691    1.407967    0.000404
  C     -1.584178    0.703671    0.000080
  C     -1.589277   -0.700988    0.000086
  C     -2.809026   -1.382989    0.000428
  C     -0.327147   -1.480969   -0.000215
  O     -0.380934   -2.723850   -0.000586
  C      0.928817   -0.744961    0.000019
  C      2.165120   -1.435940    0.000238
  C      3.368094   -0.677736    0.000598
  C      3.359958    0.688908    0.000555
  C      2.139572    1.398179    0.000173
  C      0.927055    0.684690   -0.000016
  C     -0.313295    1.441340   -0.000189
  O     -0.313232    2.694120   -0.000407
  O      2.193448    2.730175    0.000050
  N      2.241042   -2.786911    0.000312
  H     -4.946469   -1.213035    0.001153
  H     -4.932513    1.267214    0.001078
  H     -2.760292    2.491695    0.000370
  H     -2.792494   -2.466965    0.000422
  H      4.315512   -1.210202    0.000946
  H      4.283378    1.257824    0.000831
  H      1.231415    3.028939   -0.000227
  H      1.370447   -3.306583   -0.000499
  H      3.136479   -3.240258   -0.000316

 Total Charge           Charge          ....    0
 Multiplicity           Mult            ....    1
 Number of Electrons    NEL             ....  124
 Basis Dimension        Dim             ....  612

ORBITAL ENERGIES
----------------

  NO   OCC          E(Eh)            E(eV)
   0   2.0000     -18.978793      -516.4392
   1   2.0000     -18.951337      -515.6921
   2   2.0000     -18.938189      -515.3343
   3   2.0000     -14.186542      -386.0354
   4   2.0000     -10.128613      -275.6136
   5   2.0000     -10.121424      -275.4179
   6   2.0000     -10.116173      -275.2750
   7   2.0000     -10.106416      -275.0096
   8   2.0000     -10.065535      -273.8971
   9   2.0000     -10.060995      -273.7736
  10   2.0000     -10.060522      -273.7607
  11   2.0000     -10.060310      -273.7550
  12   2.0000     -10.058904      -273.7167
  13   2.0000     -10.058124      -273.6955
  14   2.0000     -10.056392      -273.6483
  15   2.0000     -10.055682      -273.6290
  16   2.0000     -10.053290      -273.5639
  17   2.0000     -10.051295      -273.5097
  18   2.0000      -1.038821       -28.2677
  19   2.0000      -1.001192       -27.2438
  20   2.0000      -0.999392       -27.1948
  21   2.0000      -0.911737       -24.8096
  22   2.0000      -0.847663       -23.0661
  23   2.0000      -0.825615       -22.4661
  24   2.0000      -0.774552       -21.0766
  25   2.0000      -0.737410       -20.0660
  26   2.0000      -0.733220       -19.9519
  27   2.0000      -0.713734       -19.4217
  28   2.0000      -0.654966       -17.8225
  29   2.0000      -0.629932       -17.1413
  30   2.0000      -0.617704       -16.8086
  31   2.0000      -0.580877       -15.8065
  32   2.0000      -0.558180       -15.1888
  33   2.0000      -0.541395       -14.7321
  34   2.0000      -0.519143       -14.1266
  35   2.0000      -0.507778       -13.8173
  36   2.0000      -0.496146       -13.5008
  37   2.0000      -0.468714       -12.7543
  38   2.0000      -0.451875       -12.2961
  39   2.0000      -0.446201       -12.1417
  40   2.0000      -0.440705       -11.9922
  41   2.0000      -0.425772       -11.5858
  42   2.0000      -0.411167       -11.1884
  43   2.0000      -0.407723       -11.0947
  44   2.0000      -0.406083       -11.0501
  45   2.0000      -0.397261       -10.8100
  46   2.0000      -0.393665       -10.7122
  47   2.0000      -0.386514       -10.5176
  48   2.0000      -0.381912       -10.3924
  49   2.0000      -0.366391        -9.9700
  50   2.0000      -0.349882        -9.5208
  51   2.0000      -0.342488        -9.3196
  52   2.0000      -0.339783        -9.2460
  53   2.0000      -0.338831        -9.2201
  54   2.0000      -0.325965        -8.8700
  55   2.0000      -0.280367        -7.6292
  56   2.0000      -0.264211        -7.1895
  57   2.0000      -0.253067        -6.8863
  58   2.0000      -0.252030        -6.8581
  59   2.0000      -0.242261        -6.5923
  60   2.0000      -0.227101        -6.1797
  61   2.0000      -0.191148        -5.2014
  62   0.0000      -0.129992        -3.5373
  63   0.0000      -0.081823        -2.2265
  64   0.0000      -0.055905        -1.5212
  65   0.0000      -0.025853        -0.7035
  66   0.0000       0.018815         0.5120

MULLIKEN ATOMIC CHARGES
-----------------------
   0 C :   -0.064875
   1 C :   -0.072860
   2 C :   -0.177014
   3 C :    0.055557
   4 C :    0.076686
   5 C :   -0.177432
   6 C :    0.210708
   7 O :   -0.460182
   8 C :   -0.049088
   9 C :    0.226881
  10 C :   -0.201004
  11 C :   -0.203990
  12 C :    0.236568
  13 C :   -0.066125
  14 C :    0.285464
  15 O :   -0.449312
  16 O :   -0.384715
  17 N :   -0.379629
  18 H :    0.118768
  19 H :    0.118836
  20 H :    0.138284
  21 H :    0.138299
  22 H :    0.097188
  23 H :    0.121982
  24 H :    0.353506
  25 H :    0.279272
  26 H :    0.228229
Sum of atomic charges:   -0.0000000

LOEWDIN ATOMIC CHARGES
----------------------
   0 C :   -0.117546
   1 C :   -0.120377
   2 C :   -0.069974
   3 C :   -0.071826
   4 C :   -0.063529
   5 C :   -0.072045
   6 C :   -0.250470
   7 O :    0.069036
   8 C :   -0.066965
   9 C :   -0.187321
  10 C :   -0.096954
  11 C :   -0.090043
  12 C :   -0.232995
  13 C :   -0.073270
  14 C :   -0.235068
  15 O :    0.077646
  16 O :    0.126432
  17 N :    0.042379
  18 H :    0.146743
  19 H :    0.146727
  20 H :    0.157485
  21 H :    0.157430
  22 H :    0.148111
  23 H :    0.155813
  24 H :    0.180932
  25 H :    0.173722
  26 H :    0.165926

  Mayer bond orders larger than 0.100000
B(  0-C ,  1-C ) :   1.3314 B(  0-C ,  5-C ) :   1.3994 B(  0-C , 18-H ) :   0.9707
B(  1-C ,  2-C ) :   1.4104 B(  1-C , 19-H ) :   0.9710 B(  2-C ,  3-C ) :   1.3238
B(  2-C , 20-H ) :   0.9636 B(  3-C ,  4-C ) :   1.2857 B(  3-C , 14-C ) :   1.0466
B(  3-C , 15-O ) :  -0.1247 B(  4-C ,  5-C ) :   1.3405 B(  4-C ,  6-C ) :   1.0292
B(  4-C ,  7-O ) :  -0.1444 B(  5-C , 21-H ) :   0.9608 B(  6-C ,  7-O ) :   1.8154
B(  6-C ,  8-C ) :   1.0561 B(  8-C ,  9-C ) :   1.2501 B(  8-C , 13-C ) :   1.0934
B(  9-C , 10-C ) :   1.2055 B(  9-C , 17-N ) :   1.2724 B( 10-C , 11-C ) :   1.5542
B( 10-C , 22-H ) :   0.9788 B( 11-C , 12-C ) :   1.2959 B( 11-C , 23-H ) :   0.9723
B( 12-C , 13-C ) :   1.1974 B( 12-C , 16-O ) :   1.2880 B( 13-C , 14-C ) :   1.0431
B( 14-C , 15-O ) :   1.7477 B( 15-O , 24-H ) :   0.1868 B( 16-O , 24-H ) :   0.7269
B( 17-N , 25-H ) :   0.8411 B( 17-N , 26-H ) :   0.9090

Dispersion correction           -0.013249173
FINAL SINGLE POINT ENERGY      -819.283904648489

DIPOLE MOMENT
-------------

Method             : SCF
Type of density    : Electron Density
Multiplicity       :   1
Irrep              :   0
Energy             :  -819.2836627813389896 Eh
Relativity type    :
Basis              : AO
                                X                 Y                 Z
Electronic contribution:      1.335924666       2.253836227      -0.002040127
Nuclear contribution   :     -0.989731205      -3.159787994       0.002157737
                        -----------------------------------------
Total Dipole Moment    :      0.346193461      -0.905951768       0.000117609
                        -----------------------------------------
Magnitude (a.u.)       :      0.969844592
Magnitude (Debye)      :      2.465149044

VIBRATIONAL FREQUENCIES
-----------------------

Scaling factor for frequencies =  1.000000000  (already applied!)

     0:       0.00 cm**-1
     1:       0.00 cm**-1
     2:       0.00 cm**-1
     3:       0.00 cm**-1
     4:       0.00 cm**-1
     5:       0.00 cm**-1
     6:      52.79 cm**-1
     7:      79.32 cm**-1
     8:     124.78 cm**-1
     9:     145.84 cm**-1
    10:     164.13 cm**-1
    11:     214.73 cm**-1
    12:     216.54 cm**-1
    13:     242.12 cm**-1
    14:     319.62 cm**-1
    15:     343.21 cm**-1
    16:     362.22 cm**-1
    17:     396.20 cm**-1
    18:     423.75 cm**-1
    19:     425.80 cm**-1
    20:     438.72 cm**-1
    21:     438.82 cm**-1
    22:     459.55 cm**-1
    23:     497.83 cm**-1
    24:     502.31 cm**-1
    25:     526.01 cm**-1
    26:     578.07 cm**-1
    27:     615.49 cm**-1
    28:     665.92 cm**-1
    29:     669.48 cm**-1
    30:     681.08 cm**-1
    31:     713.69 cm**-1
    32:     734.32 cm**-1
    33:     754.25 cm**-1
    34:     776.98 cm**-1
    35:     804.86 cm**-1
    36:     820.79 cm**-1
    37:     841.27 cm**-1
    38:     884.40 cm**-1
    39:     911.46 cm**-1
    40:     922.41 cm**-1
    41:     931.50 cm**-1
    42:     955.18 cm**-1
    43:     984.94 cm**-1
    44:     987.70 cm**-1
    45:     997.77 cm**-1
    46:    1039.07 cm**-1
    47:    1059.13 cm**-1
    48:    1120.89 cm**-1
    49:    1134.90 cm**-1
    50:    1176.69 cm**-1
    51:    1188.88 cm**-1
    52:    1198.21 cm**-1
    53:    1259.12 cm**-1
    54:    1285.21 cm**-1
    55:    1312.23 cm**-1
    56:    1319.02 cm**-1
    57:    1359.02 cm**-1
    58:    1371.62 cm**-1
    59:    1399.15 cm**-1
    60:    1433.49 cm**-1
    61:    1457.74 cm**-1
    62:    1487.05 cm**-1
    63:    1490.17 cm**-1
    64:    1501.05 cm**-1
    65:    1559.73 cm**-1
    66:    1594.28 cm**-1
    67:    1607.02 cm**-1
    68:    1616.12 cm**-1
    69:    1634.43 cm**-1
    70:    1652.66 cm**-1
    71:    1672.97 cm**-1
    72:    2945.12 cm**-1
    73:    3153.82 cm**-1
    74:    3163.39 cm**-1
    75:    3177.70 cm**-1
    76:    3189.30 cm**-1
    77:    3194.22 cm**-1
    78:    3196.47 cm**-1
    79:    3452.11 cm**-1
    80:    3691.62 cm**-1

IR SPECTRUM
-----------

 Mode   freq       eps      Int      T**2         TX        TY        TZ
       cm**-1   L/(mol*cm) km/mol    a.u.
----------------------------------------------------------------------------
  6:     52.79   0.001460    7.38  0.008632  ( 0.000330 -0.000103  0.092909)
  7:     79.32   0.000567    2.87  0.002232  (-0.000345  0.000272 -0.047237)
  8:    124.78   0.002704   13.66  0.006762  (-0.000422  0.000181 -0.082232)
  9:    145.84   0.001030    5.20  0.002203  ( 0.000312 -0.000139  0.046937)
 10:    164.13   0.003542   17.90  0.006734  ( 0.000364 -0.000239  0.082062)
 11:    214.73   0.000037    0.19  0.000054  (-0.006428 -0.003101  0.001800)
 12:    216.54   0.013580   68.63  0.019570  (-0.000292  0.000194 -0.139894)
 13:    242.12   0.005436   27.47  0.007006  ( 0.000159 -0.000068  0.083701)
 14:    319.62   0.000226    1.14  0.000220  ( 0.003701 -0.014369 -0.000088)
 15:    343.21   0.000767    3.88  0.000698  (-0.003016  0.026243 -0.000052)
 16:    362.22   0.000561    2.84  0.000484  ( 0.000106 -0.000025 -0.021990)
 17:    396.20   0.000005    0.02  0.000004  (-0.000910  0.001718 -0.000013)
 18:    423.75   0.001859    9.39  0.001369  ( 0.036073  0.008218  0.000089)
 19:    425.80   0.000199    1.01  0.000146  ( 0.000217  0.000034 -0.012083)
 20:    438.72   0.002648   13.38  0.001884  ( 0.042961  0.006154 -0.000017)
 21:    438.82   0.000008    0.04  0.000005  (-0.002208 -0.000179 -0.000743)
 22:    459.55   0.003719   18.79  0.002525  (-0.047185 -0.017283  0.000019)
 23:    497.83   0.000000    0.00  0.000000  (-0.000130  0.000048  0.000249)
 24:    502.31   0.001239    6.26  0.000770  (-0.021878  0.017054 -0.000009)
 25:    526.01   0.000808    4.08  0.000479  ( 0.006979 -0.020746 -0.000005)
 26:    578.07   0.007381   37.30  0.003985  (-0.000120  0.000027 -0.063124)
 27:    615.49   0.000042    0.21  0.000021  ( 0.003602  0.002894 -0.000001)
 28:    665.92   0.000237    1.20  0.000111  (-0.000080  0.000037 -0.010548)
 29:    669.48   0.001280    6.47  0.000597  (-0.023698 -0.005917 -0.000008)
 30:    681.08   0.000444    2.25  0.000204  ( 0.000130 -0.000087  0.014270)
 31:    713.69   0.000993    5.02  0.000434  (-0.004004 -0.020444  0.000014)
 32:    734.32   0.007870   39.77  0.003345  (-0.000110 -0.000066  0.057832)
 33:    754.25   0.000039    0.20  0.000016  (-0.000028 -0.000026 -0.004033)
 34:    776.98   0.000389    1.97  0.000156  (-0.003102 -0.012106 -0.000008)
 35:    804.86   0.004664   23.57  0.001808  (-0.000029  0.000009 -0.042526)
 36:    820.79   0.000101    0.51  0.000038  ( 0.000025 -0.000080 -0.006195)
 37:    841.27   0.005489   27.74  0.002036  (-0.000258  0.000057 -0.045124)
 38:    884.40   0.003108   15.71  0.001097  (-0.032021 -0.008449 -0.000001)
 39:    911.46   0.000014    0.07  0.000005  (-0.000066 -0.000004 -0.002168)
 40:    922.41   0.001048    5.30  0.000355  ( 0.000861  0.018814  0.000034)
 41:    931.50   0.012914   65.26  0.004326  (-0.000202  0.000004 -0.065775)
 42:    955.18   0.000060    0.30  0.000020  ( 0.000003  0.000109 -0.004421)
 43:    984.94   0.000216    1.09  0.000068  ( 0.000078 -0.000016 -0.008266)
 44:    987.70   0.002295   11.60  0.000725  ( 0.008338  0.025604  0.000000)
 45:    997.77   0.000023    0.12  0.000007  (-0.000052 -0.000006  0.002696)
 46:   1039.07   0.007222   36.50  0.002169  ( 0.044517 -0.013681 -0.000002)
 47:   1059.13   0.000298    1.51  0.000088  ( 0.005076  0.007877 -0.000012)
 48:   1120.89   0.000703    3.55  0.000196  (-0.000328 -0.013983 -0.000001)
 49:   1134.90   0.002022   10.22  0.000556  ( 0.017096  0.016238 -0.000011)
 50:   1176.69   0.002313   11.69  0.000614  (-0.023091  0.008965 -0.000006)
 51:   1188.88   0.013447   67.95  0.003530  (-0.059276 -0.003991 -0.000000)
 52:   1198.21   0.000626    3.16  0.000163  (-0.006360 -0.011068 -0.000001)
 53:   1259.12   0.010655   53.85  0.002641  (-0.040494 -0.031638  0.000006)
 54:   1285.21   0.076061  384.38  0.018468  ( 0.128144  0.045251 -0.000011)
 55:   1312.23   0.043524  219.95  0.010350  ( 0.091036 -0.045418  0.000002)
 56:   1319.02   0.005880   29.71  0.001391  ( 0.007578 -0.036519 -0.000006)
 57:   1359.02   0.014212   71.82  0.003263  ( 0.047417 -0.031860 -0.000009)
 58:   1371.62   0.000182    0.92  0.000042  (-0.004366  0.004738 -0.000003)
 59:   1399.15   0.017221   87.03  0.003841  ( 0.052383 -0.033121  0.000006)
 60:   1433.49   0.011048   55.83  0.002405  ( 0.042691  0.024138  0.000009)
 61:   1457.74   0.009865   49.86  0.002112  ( 0.040176  0.022311 -0.000002)
 62:   1487.05   0.001772    8.96  0.000372  (-0.010766 -0.015998 -0.000000)
 63:   1490.17   0.013101   66.21  0.002744  (-0.012081 -0.050967  0.000028)
 64:   1501.05   0.000562    2.84  0.000117  (-0.009349 -0.005429  0.000010)
 65:   1559.73   0.047376  239.42  0.009479  ( 0.019884  0.095307  0.000034)
 66:   1594.28   0.051439  259.95  0.010069  (-0.027847  0.096401  0.000008)
 67:   1607.02   0.019833  100.23  0.003851  ( 0.002410  0.062012  0.000005)
 68:   1616.12   0.014294   72.24  0.002760  (-0.023826 -0.046824  0.000007)
 69:   1634.43   0.034463  174.16  0.006580  (-0.075383  0.029959 -0.000007)
 70:   1652.66   0.019819  100.16  0.003742  ( 0.016087  0.059021  0.000001)
 71:   1672.97   0.003322   16.79  0.000620  ( 0.021676 -0.012239 -0.000028)
 72:   2945.12   0.028105  142.03  0.002978  (-0.051710  0.017439 -0.000014)
 73:   3153.82   0.002236   11.30  0.000221  ( 0.011448 -0.009498  0.000002)
 74:   3163.39   0.000677    3.42  0.000067  (-0.001287 -0.008070  0.000000)
 75:   3177.70   0.002731   13.80  0.000268  (-0.016371  0.000385  0.000004)
 76:   3189.30   0.000980    4.95  0.000096  (-0.009661 -0.001608 -0.000001)
 77:   3194.22   0.000120    0.60  0.000012  ( 0.001740 -0.002941 -0.000000)
 78:   3196.47   0.002591   13.09  0.000253  (-0.015902  0.000179  0.000004)
 79:   3452.11   0.010505   53.09  0.000950  ( 0.007961  0.029770  0.000025)
 80:   3691.62   0.015926   80.48  0.001346  ( 0.034342 -0.012919 -0.000004)

--------------------------
THERMOCHEMISTRY AT 298.15K
--------------------------

Temperature         ...   298.15 K
Pressure            ...     1.00 atm
Total Mass          ...   239.23 AMU
Quasi RRHO          ...     True
Cut-Off Frequency   ...     1.00 cm^-1

Throughout the following assumptions are being made:
  (1) The electronic state is orbitally nondegenerate
  (2) There are no thermally accessible electronically excited states
  (3) Hindered rotations indicated by low frequency modes are not
      treated as such but are treated as vibrations and this may
      cause some error
  (4) All equations used are the standard statistical mechanics
      equations for an ideal gas
  (5) All vibrations are strictly harmonic

freq.      52.79  E(vib)   ...       0.52
freq.      79.32  E(vib)   ...       0.49
freq.     124.78  E(vib)   ...       0.43
freq.     145.84  E(vib)   ...       0.41
freq.     164.13  E(vib)   ...       0.39
freq.     214.73  E(vib)   ...       0.34
freq.     216.54  E(vib)   ...       0.34
freq.     242.12  E(vib)   ...       0.31
freq.     319.62  E(vib)   ...       0.25
freq.     343.21  E(vib)   ...       0.23
freq.     362.22  E(vib)   ...       0.22
freq.     396.20  E(vib)   ...       0.20
freq.     423.75  E(vib)   ...       0.18
freq.     425.80  E(vib)   ...       0.18
freq.     438.72  E(vib)   ...       0.17
freq.     438.82  E(vib)   ...       0.17
freq.     459.55  E(vib)   ...       0.16
freq.     497.83  E(vib)   ...       0.14
freq.     502.31  E(vib)   ...       0.14
freq.     526.01  E(vib)   ...       0.13
freq.     578.07  E(vib)   ...       0.11
freq.     615.49  E(vib)   ...       0.10
freq.     665.92  E(vib)   ...       0.08
freq.     669.48  E(vib)   ...       0.08
freq.     681.08  E(vib)   ...       0.08
freq.     713.69  E(vib)   ...       0.07
freq.     734.32  E(vib)   ...       0.06
freq.     754.25  E(vib)   ...       0.06
freq.     776.98  E(vib)   ...       0.05
freq.     804.86  E(vib)   ...       0.05
freq.     820.79  E(vib)   ...       0.05
freq.     841.27  E(vib)   ...       0.04
freq.     884.40  E(vib)   ...       0.04
freq.     911.46  E(vib)   ...       0.03
freq.     922.41  E(vib)   ...       0.03
freq.     931.50  E(vib)   ...       0.03
freq.     955.18  E(vib)   ...       0.03
freq.     984.94  E(vib)   ...       0.02
freq.     987.70  E(vib)   ...       0.02
freq.     997.77  E(vib)   ...       0.02
freq.    1039.07  E(vib)   ...       0.02
freq.    1059.13  E(vib)   ...       0.02
freq.    1120.89  E(vib)   ...       0.01
freq.    1134.90  E(vib)   ...       0.01
freq.    1176.69  E(vib)   ...       0.01
freq.    1188.88  E(vib)   ...       0.01
freq.    1198.21  E(vib)   ...       0.01
freq.    1259.12  E(vib)   ...       0.01
freq.    1285.21  E(vib)   ...       0.01
freq.    1312.23  E(vib)   ...       0.01
freq.    1319.02  E(vib)   ...       0.01
freq.    1359.02  E(vib)   ...       0.01
freq.    1371.62  E(vib)   ...       0.01
freq.    1399.15  E(vib)   ...       0.00
freq.    1433.49  E(vib)   ...       0.00
freq.    1457.74  E(vib)   ...       0.00
freq.    1487.05  E(vib)   ...       0.00
freq.    1490.17  E(vib)   ...       0.00
freq.    1501.05  E(vib)   ...       0.00
freq.    1559.73  E(vib)   ...       0.00
freq.    1594.28  E(vib)   ...       0.00
freq.    1607.02  E(vib)   ...       0.00
freq.    1616.12  E(vib)   ...       0.00
freq.    1634.43  E(vib)   ...       0.00
freq.    1652.66  E(vib)   ...       0.00
freq.    1672.97  E(vib)   ...       0.00
freq.    2945.12  E(vib)   ...       0.00
freq.    3153.82  E(vib)   ...       0.00
freq.    3163.39  E(vib)   ...       0.00
freq.    3177.70  E(vib)   ...       0.00
freq.    3189.30  E(vib)   ...       0.00
freq.    3194.22  E(vib)   ...       0.00
freq.    3196.47  E(vib)   ...       0.00
freq.    3452.11  E(vib)   ...       0.00
freq.    3691.62  E(vib)   ...       0.00

------------
INNER ENERGY
------------

The inner energy is: U= E(el) + E(ZPE) + E(vib) + E(rot) + E(trans)
    E(el)   - is the total energy from the electronic structure calculation
              = E(kin-el) + E(nuc-el) + E(el-el) + E(nuc-nuc)
    E(ZPE)  - the the zero temperature vibrational energy from the frequency calculation
    E(vib)  - the the finite temperature correction to E(ZPE) due to population
              of excited vibrational states
    E(rot)  - is the rotational thermal energy
    E(trans)- is the translational thermal energy

Summary of contributions to the inner energy U:
Electronic energy                ...   -819.28390465 Eh
Zero point energy                ...      0.19979408 Eh     125.37 kcal/mol
Thermal vibrational correction   ...      0.01053003 Eh       6.61 kcal/mol
Thermal rotational correction    ...      0.00141627 Eh       0.89 kcal/mol
Thermal translational correction ...      0.00141627 Eh       0.89 kcal/mol
-----------------------------------------------------------------------
Total thermal energy                   -819.07074799 Eh

Summary of corrections to the electronic energy:
(perhaps to be used in another calculation)
Total thermal correction                  0.01336257 Eh       8.39 kcal/mol
Non-thermal (ZPE) correction              0.19979408 Eh     125.37 kcal/mol
-----------------------------------------------------------------------
Total correction                          0.21315666 Eh     133.76 kcal/mol

--------
ENTHALPY
--------

The enthalpy is H = U + kB*T
                kB is Boltzmann's constant
Total thermal energy              ...   -819.07074799 Eh
Thermal Enthalpy correction       ...      0.00094421 Eh       0.59 kcal/mol
-----------------------------------------------------------------------
Total Enthalpy                    ...   -819.06980378 Eh

Note: Only C1 symmetry has been detected, increase convergence thresholds
      if your molecule has a higher symmetry. Symmetry factor of 1.0 is
      used for the rotational entropy correction.

Note: Rotational entropy computed according to Herzberg
Infrared and Raman Spectra, Chapter V,1, Van Nostrand Reinhold, 1945
Point Group:  C1, Symmetry Number:   1
Rotational constants in cm-1:     0.023888     0.012909     0.008380

Vibrational entropy computed according to the QRRHO of S. Grimme
Chem.Eur.J. 2012 18 9955 using a reference frequency of 100.0 cm-1

-------
ENTROPY
-------

The entropy contributions are T*S = T*(S(el)+S(vib)+S(rot)+S(trans))
     S(el)   - electronic entropy
     S(vib)  - vibrational entropy
     S(rot)  - rotational entropy
     S(trans)- translational entropy

                             ****ORCA TERMINATED NORMALLY****
TOTAL RUN TIME: 0 days 0 hours 58 minutes 46 seconds 620 msec
