                         Program Version 6.0.0  -   RELEASE  -
|  1> ! r2SCAN-3c DEF2-TZVP FREQ
|  2> * xyzfile 0 1 censo.xyz
|  3>
|  4>                          ****END OF INPUT****

CARTESIAN COORDINATES (ANGSTROEM)
---------------------------------
  C      2.185364   -1.181046    0.121590
  C      1.415674    0.111405    0.054408
  O      1.997724    1.218485   -0.008119
  N      0.077044    0.025518    0.056354
  C     -0.713128   -1.223046    0.058239
  C     -2.107196   -0.744978   -0.345972
  C     -2.179217    0.660123    0.259157
  C     -0.783809    1.222238   -0.005204
  H      1.788765   -1.852553    0.888535
  H      3.232587   -0.961757    0.331656
  H      2.120482   -1.702607   -0.840139
  H     -0.294190   -1.951582   -0.640555
  H     -0.722501   -1.667996    1.061686
  H     -2.177931   -0.687030   -1.437734
  H     -2.889893   -1.414258    0.017710
  H     -2.961575    1.280478   -0.183360
  H     -2.356738    0.594578    1.338251
  H     -0.715123    1.684613   -0.998325
  H     -0.465444    1.960130    0.736278

 Total Charge           Charge          ....    0
 Multiplicity           Mult            ....    1
 Number of Electrons    NEL             ....   62
 Basis Dimension        Dim             ....  314

ORBITAL ENERGIES
----------------

  NO   OCC          E(Eh)            E(eV)
   0   2.0000     -18.894565      -514.1472
   1   2.0000     -14.188658      -386.0930
   2   2.0000     -10.116298      -275.2785
   3   2.0000     -10.080160      -274.2951
   4   2.0000     -10.067107      -273.9399
   5   2.0000     -10.048989      -273.4469
   6   2.0000     -10.045012      -273.3387
   7   2.0000     -10.031721      -272.9770
   8   2.0000      -0.975339       -26.5403
   9   2.0000      -0.901793       -24.5390
  10   2.0000      -0.770969       -20.9791
  11   2.0000      -0.719010       -19.5653
  12   2.0000      -0.692581       -18.8461
  13   2.0000      -0.610616       -16.6157
  14   2.0000      -0.569393       -15.4940
  15   2.0000      -0.522629       -14.2215
  16   2.0000      -0.480884       -13.0855
  17   2.0000      -0.448675       -12.2091
  18   2.0000      -0.421232       -11.4623
  19   2.0000      -0.409365       -11.1394
  20   2.0000      -0.403092       -10.9687
  21   2.0000      -0.392373       -10.6770
  22   2.0000      -0.373883       -10.1739
  23   2.0000      -0.361124        -9.8267
  24   2.0000      -0.341699        -9.2981
  25   2.0000      -0.332467        -9.0469
  26   2.0000      -0.329159        -8.9569
  27   2.0000      -0.318652        -8.6710
  28   2.0000      -0.305524        -8.3137
  29   2.0000      -0.211249        -5.7484
  30   2.0000      -0.201945        -5.4952
  31   0.0000       0.001788         0.0487
  32   0.0000       0.024356         0.6627
  33   0.0000       0.058175         1.5830
  34   0.0000       0.061785         1.6813
  35   0.0000       0.078517         2.1365

MULLIKEN ATOMIC CHARGES
-----------------------
   0 C :   -0.340708
   1 C :    0.230081
   2 O :   -0.443892
   3 N :   -0.057002
   4 C :   -0.150776
   5 C :   -0.152014
   6 C :   -0.148530
   7 C :   -0.118562
   8 H :    0.110708
   9 H :    0.138673
  10 H :    0.121255
  11 H :    0.107707
  12 H :    0.098080
  13 H :    0.092198
  14 H :    0.101266
  15 H :    0.101948
  16 H :    0.089640
  17 H :    0.100709
  18 H :    0.119220
Sum of atomic charges:   -0.0000000

LOEWDIN ATOMIC CHARGES
----------------------
   0 C :   -0.263495
   1 C :   -0.459263
   2 O :    0.013526
   3 N :    0.202991
   4 C :   -0.237943
   5 C :   -0.249065
   6 C :   -0.250118
   7 C :   -0.225838
   8 H :    0.126752
   9 H :    0.135710
  10 H :    0.133293
  11 H :    0.131340
  12 H :    0.127877
  13 H :    0.138171
  14 H :    0.134185
  15 H :    0.134979
  16 H :    0.136808
  17 H :    0.132840
  18 H :    0.137253

  Mayer bond orders larger than 0.100000
B(  0-C ,  1-C ) :   0.9613 B(  0-C ,  8-H ) :   0.9523 B(  0-C ,  9-H ) :   0.9765
B(  0-C , 10-H ) :   0.9517 B(  1-C ,  2-O ) :   1.9187 B(  1-C ,  3-N ) :   1.2488
B(  3-N ,  4-C ) :   0.9420 B(  3-N ,  7-C ) :   0.9106 B(  4-C ,  5-C ) :   1.0069
B(  4-C , 11-H ) :   0.9528 B(  4-C , 12-H ) :   0.9517 B(  5-C ,  6-C ) :   0.9729
B(  5-C , 13-H ) :   0.9650 B(  5-C , 14-H ) :   0.9667 B(  6-C ,  7-C ) :   0.9808
B(  6-C , 15-H ) :   0.9669 B(  6-C , 16-H ) :   0.9652 B(  7-C , 17-H ) :   0.9655
B(  7-C , 18-H ) :   0.9613

Dispersion correction           -0.005527305
FINAL SINGLE POINT ENERGY      -365.182046400597

DIPOLE MOMENT
-------------

Method             : SCF
Type of density    : Electron Density
Multiplicity       :   1
Irrep              :   0
Energy             :  -365.1898981417326695 Eh
Relativity type    :
Basis              : AO
                                X                 Y                 Z
Electronic contribution:      3.827139279       3.346414381       0.005867198
Nuclear contribution   :     -5.197973468      -4.519610059       0.015668187
                        -----------------------------------------
Total Dipole Moment    :     -1.370834189      -1.173195678       0.021535385
                        -----------------------------------------
Magnitude (a.u.)       :      1.804449569
Magnitude (Debye)      :      4.586546306

VIBRATIONAL FREQUENCIES
-----------------------

Scaling factor for frequencies =  1.000000000  (already applied!)

     0:       0.00 cm**-1
     1:       0.00 cm**-1
     2:       0.00 cm**-1
     3:       0.00 cm**-1
     4:       0.00 cm**-1
     5:       0.00 cm**-1
     6:      62.64 cm**-1
     7:     139.18 cm**-1
     8:     163.75 cm**-1
     9:     217.31 cm**-1
    10:     234.39 cm**-1
    11:     271.49 cm**-1
    12:     390.01 cm**-1
    13:     522.16 cm**-1
    14:     576.09 cm**-1
    15:     605.50 cm**-1
    16:     627.52 cm**-1
    17:     759.07 cm**-1
    18:     866.20 cm**-1
    19:     884.94 cm**-1
    20:     923.72 cm**-1
    21:     927.66 cm**-1
    22:     964.11 cm**-1
    23:     995.33 cm**-1
    24:    1030.79 cm**-1
    25:    1048.84 cm**-1
    26:    1083.21 cm**-1
    27:    1141.38 cm**-1
    28:    1162.85 cm**-1
    29:    1191.67 cm**-1
    30:    1198.24 cm**-1
    31:    1249.45 cm**-1
    32:    1274.01 cm**-1
    33:    1313.27 cm**-1
    34:    1344.25 cm**-1
    35:    1356.16 cm**-1
    36:    1360.53 cm**-1
    37:    1376.89 cm**-1
    38:    1455.71 cm**-1
    39:    1468.84 cm**-1
    40:    1482.20 cm**-1
    41:    1482.77 cm**-1
    42:    1491.03 cm**-1
    43:    1504.41 cm**-1
    44:    1517.11 cm**-1
    45:    1609.98 cm**-1
    46:    2996.14 cm**-1
    47:    3008.04 cm**-1
    48:    3014.84 cm**-1
    49:    3026.43 cm**-1
    50:    3033.01 cm**-1
    51:    3075.15 cm**-1
    52:    3079.81 cm**-1
    53:    3085.49 cm**-1
    54:    3095.59 cm**-1
    55:    3103.48 cm**-1
    56:    3136.52 cm**-1

IR SPECTRUM
-----------

 Mode   freq       eps      Int      T**2         TX        TY        TZ
       cm**-1   L/(mol*cm) km/mol    a.u.
----------------------------------------------------------------------------
  6:     62.64   0.000024    0.12  0.000120  (-0.008277  0.001442 -0.007006)
  7:    139.18   0.000608    3.07  0.001363  (-0.000247  0.001480  0.036893)
  8:    163.75   0.000022    0.11  0.000042  (-0.005589 -0.001798 -0.002681)
  9:    217.31   0.000518    2.62  0.000744  (-0.006070 -0.000120  0.026594)
 10:    234.39   0.000983    4.97  0.001309  (-0.034623  0.009698 -0.004033)
 11:    271.49   0.000017    0.09  0.000020  ( 0.001983 -0.001527 -0.003653)
 12:    390.01   0.001100    5.56  0.000880  ( 0.022334 -0.019452  0.001813)
 13:    522.16   0.001534    7.75  0.000917  (-0.022280 -0.020405  0.002035)
 14:    576.09   0.000200    1.01  0.000108  (-0.001956  0.000572 -0.010207)
 15:    605.50   0.000587    2.97  0.000303  ( 0.007114 -0.003423 -0.015504)
 16:    627.52   0.001417    7.16  0.000705  (-0.024122  0.008644 -0.006933)
 17:    759.07   0.000101    0.51  0.000042  (-0.006346 -0.001149  0.000105)
 18:    866.20   0.000874    4.42  0.000315  (-0.017687 -0.001438  0.000235)
 19:    884.94   0.000624    3.15  0.000220  ( 0.005126 -0.012423 -0.006278)
 20:    923.72   0.000520    2.63  0.000176  ( 0.013232  0.000499  0.000660)
 21:    927.66   0.000202    1.02  0.000068  (-0.005401 -0.002907  0.005503)
 22:    964.11   0.001547    7.82  0.000501  (-0.021971  0.003853  0.001759)
 23:    995.33   0.001599    8.08  0.000501  ( 0.017962  0.013362  0.000339)
 24:   1030.79   0.000699    3.53  0.000212  ( 0.013480  0.005464  0.000298)
 25:   1048.84   0.000612    3.09  0.000182  ( 0.001948 -0.002551 -0.013107)
 26:   1083.21   0.000259    1.31  0.000075  ( 0.004563  0.007317 -0.000441)
 27:   1141.38   0.000371    1.87  0.000101  (-0.010002 -0.001154 -0.000201)
 28:   1162.85   0.002491   12.59  0.000669  ( 0.012922 -0.022396 -0.000246)
 29:   1191.67   0.000339    1.71  0.000089  (-0.000061  0.002763 -0.009008)
 30:   1198.24   0.001756    8.88  0.000457  ( 0.012746 -0.015211  0.007973)
 31:   1249.45   0.002182   11.03  0.000545  (-0.023203  0.002515 -0.000602)
 32:   1274.01   0.000776    3.92  0.000190  (-0.000949 -0.013641 -0.001782)
 33:   1313.27   0.000195    0.99  0.000046  (-0.000812  0.006714  0.000792)
 34:   1344.25   0.000005    0.03  0.000001  (-0.000986 -0.000196  0.000440)
 35:   1356.16   0.000541    2.73  0.000124  (-0.006498 -0.009064 -0.000044)
 36:   1360.53   0.001414    7.14  0.000324  ( 0.014187  0.011043 -0.001029)
 37:   1376.89   0.001556    7.87  0.000353  ( 0.006963  0.017410  0.001066)
 38:   1455.71   0.013737   69.42  0.002945  ( 0.050268  0.020294 -0.002480)
 39:   1468.84   0.027650  139.73  0.005874  (-0.068210  0.032767  0.012168)
 40:   1482.20   0.000988    4.99  0.000208  (-0.005816  0.010246  0.008321)
 41:   1482.77   0.013250   66.96  0.002789  ( 0.048219 -0.013374  0.016872)
 42:   1491.03   0.004972   25.13  0.001041  (-0.021407  0.021121 -0.011672)
 43:   1504.41   0.000015    0.07  0.000003  (-0.001313 -0.001113  0.000241)
 44:   1517.11   0.001029    5.20  0.000212  ( 0.005113  0.012891 -0.004407)
 45:   1609.98   0.078390  396.15  0.015194  ( 0.102149  0.068943 -0.002608)
 46:   2996.14   0.010622   53.68  0.001106  (-0.001618 -0.028400  0.017237)
 47:   3008.04   0.004279   21.62  0.000444  (-0.005833  0.017169 -0.010727)
 48:   3014.84   0.001936    9.78  0.000200  ( 0.001168 -0.014092 -0.000633)
 49:   3026.43   0.003415   17.26  0.000352  ( 0.018727  0.000660 -0.001022)
 50:   3033.01   0.005384   27.21  0.000554  ( 0.000270  0.006454  0.022632)
 51:   3075.15   0.006311   31.89  0.000640  (-0.002014  0.017004  0.018635)
 52:   3079.81   0.002659   13.44  0.000269  ( 0.004326 -0.010845 -0.011538)
 53:   3085.49   0.002240   11.32  0.000227  (-0.001059 -0.007452  0.013032)
 54:   3095.59   0.005462   27.60  0.000551  (-0.023283 -0.002534  0.001428)
 55:   3103.48   0.007679   38.80  0.000772  ( 0.000359 -0.013984  0.024009)
 56:   3136.52   0.001509    7.62  0.000150  (-0.011215 -0.004932 -0.000137)

--------------------------
THERMOCHEMISTRY AT 298.15K
--------------------------

Temperature         ...   298.15 K
Pressure            ...     1.00 atm
Total Mass          ...   113.16 AMU
Quasi RRHO          ...     True
Cut-Off Frequency   ...     1.00 cm^-1

Throughout the following assumptions are being made:
  (1) The electronic state is orbitally nondegenerate
  (2) There are no thermally accessible electronically excited states
  (3) Hindered rotations indicated by low frequency modes are not
      treated as such but are treated as vibrations and this may
      cause some error
  (4) All equations used are the standard statistical mechanics
      equations for an ideal gas
  (5) All vibrations are strictly harmonic

freq.      62.64  E(vib)   ...       0.51
freq.     139.18  E(vib)   ...       0.42
freq.     163.75  E(vib)   ...       0.39
freq.     217.31  E(vib)   ...       0.34
freq.     234.39  E(vib)   ...       0.32
freq.     271.49  E(vib)   ...       0.29
freq.     390.01  E(vib)   ...       0.20
freq.     522.16  E(vib)   ...       0.13
freq.     576.09  E(vib)   ...       0.11
freq.     605.50  E(vib)   ...       0.10
freq.     627.52  E(vib)   ...       0.09
freq.     759.07  E(vib)   ...       0.06
freq.     866.20  E(vib)   ...       0.04
freq.     884.94  E(vib)   ...       0.04
freq.     923.72  E(vib)   ...       0.03
freq.     927.66  E(vib)   ...       0.03
freq.     964.11  E(vib)   ...       0.03
freq.     995.33  E(vib)   ...       0.02
freq.    1030.79  E(vib)   ...       0.02
freq.    1048.84  E(vib)   ...       0.02
freq.    1083.21  E(vib)   ...       0.02
freq.    1141.38  E(vib)   ...       0.01
freq.    1162.85  E(vib)   ...       0.01
freq.    1191.67  E(vib)   ...       0.01
freq.    1198.24  E(vib)   ...       0.01
freq.    1249.45  E(vib)   ...       0.01
freq.    1274.01  E(vib)   ...       0.01
freq.    1313.27  E(vib)   ...       0.01
freq.    1344.25  E(vib)   ...       0.01
freq.    1356.16  E(vib)   ...       0.01
freq.    1360.53  E(vib)   ...       0.01
freq.    1376.89  E(vib)   ...       0.01
freq.    1455.71  E(vib)   ...       0.00
freq.    1468.84  E(vib)   ...       0.00
freq.    1482.20  E(vib)   ...       0.00
freq.    1482.77  E(vib)   ...       0.00
freq.    1491.03  E(vib)   ...       0.00
freq.    1504.41  E(vib)   ...       0.00
freq.    1517.11  E(vib)   ...       0.00
freq.    1609.98  E(vib)   ...       0.00
freq.    2996.14  E(vib)   ...       0.00
freq.    3008.04  E(vib)   ...       0.00
freq.    3014.84  E(vib)   ...       0.00
freq.    3026.43  E(vib)   ...       0.00
freq.    3033.01  E(vib)   ...       0.00
freq.    3075.15  E(vib)   ...       0.00
freq.    3079.81  E(vib)   ...       0.00
freq.    3085.49  E(vib)   ...       0.00
freq.    3095.59  E(vib)   ...       0.00
freq.    3103.48  E(vib)   ...       0.00
freq.    3136.52  E(vib)   ...       0.00

------------
INNER ENERGY
------------

The inner energy is: U= E(el) + E(ZPE) + E(vib) + E(rot) + E(trans)
    E(el)   - is the total energy from the electronic structure calculation
              = E(kin-el) + E(nuc-el) + E(el-el) + E(nuc-nuc)
    E(ZPE)  - the the zero temperature vibrational energy from the frequency calculation
    E(vib)  - the the finite temperature correction to E(ZPE) due to population
              of excited vibrational states
    E(rot)  - is the rotational thermal energy
    E(trans)- is the translational thermal energy

Summary of contributions to the inner energy U:
Electronic energy                ...   -365.18204640 Eh
Zero point energy                ...      0.16614476 Eh     104.26 kcal/mol
Thermal vibrational correction   ...      0.00525799 Eh       3.30 kcal/mol
Thermal rotational correction    ...      0.00141627 Eh       0.89 kcal/mol
Thermal translational correction ...      0.00141627 Eh       0.89 kcal/mol
-----------------------------------------------------------------------
Total thermal energy                   -365.00781110 Eh

Summary of corrections to the electronic energy:
(perhaps to be used in another calculation)
Total thermal correction                  0.00809054 Eh       5.08 kcal/mol
Non-thermal (ZPE) correction              0.16614476 Eh     104.26 kcal/mol
-----------------------------------------------------------------------
Total correction                          0.17423530 Eh     109.33 kcal/mol

--------
ENTHALPY
--------

The enthalpy is H = U + kB*T
                kB is Boltzmann's constant
Total thermal energy              ...   -365.00781110 Eh
Thermal Enthalpy correction       ...      0.00094421 Eh       0.59 kcal/mol
-----------------------------------------------------------------------
Total Enthalpy                    ...   -365.00686689 Eh

Note: Only C1 symmetry has been detected, increase convergence thresholds
      if your molecule has a higher symmetry. Symmetry factor of 1.0 is
      used for the rotational entropy correction.

Note: Rotational entropy computed according to Herzberg
Infrared and Raman Spectra, Chapter V,1, Van Nostrand Reinhold, 1945
Point Group:  C1, Symmetry Number:   1
Rotational constants in cm-1:     0.135254     0.051466     0.039172

Vibrational entropy computed according to the QRRHO of S. Grimme
Chem.Eur.J. 2012 18 9955 using a reference frequency of 100.0 cm-1

-------
ENTROPY
-------

The entropy contributions are T*S = T*(S(el)+S(vib)+S(rot)+S(trans))
     S(el)   - electronic entropy
     S(vib)  - vibrational entropy
     S(rot)  - rotational entropy
     S(trans)- translational entropy
The entropies will be listed as multiplied by the temperature to get
units of energy

Electronic entropy                ...      0.00000000 Eh      0.00 kcal/mol
Vibrational entropy               ...      0.00891710 Eh      5.60 kcal/mol
Rotational entropy                ...      0.01338536 Eh      8.40 kcal/mol
Translational entropy             ...      0.01904634 Eh     11.95 kcal/mol
-----------------------------------------------------------------------
Final entropy term                ...      0.04134880 Eh     25.95 kcal/mol

In case the symmetry of your molecule has not been determined correctly
or in case you have a reason to use a different symmetry number we print
out the resulting rotational entropy values for sn=1,12:

 non-linear molecules -----------------------------------
|  sn= 1 | S(rot)=       0.01338536 Eh      8.40 kcal/mol|
|  sn= 2 | S(rot)=       0.01273090 Eh      7.99 kcal/mol|
|  sn= 3 | S(rot)=       0.01234807 Eh      7.75 kcal/mol|
|  sn= 4 | S(rot)=       0.01207645 Eh      7.58 kcal/mol|
|  sn= 5 | S(rot)=       0.01186576 Eh      7.45 kcal/mol|
|  sn= 6 | S(rot)=       0.01169362 Eh      7.34 kcal/mol|
|  sn= 7 | S(rot)=       0.01154807 Eh      7.25 kcal/mol|
|  sn= 8 | S(rot)=       0.01142199 Eh      7.17 kcal/mol|
|  sn= 9 | S(rot)=       0.01131078 Eh      7.10 kcal/mol|

                             ****ORCA TERMINATED NORMALLY****
TOTAL RUN TIME: 0 days 0 hours 16 minutes 6 seconds 253 msec
