                         Program Version 6.0.0  -   RELEASE  -
|  1> ! r2SCAN-3c DEF2-TZVP FREQ
|  2> * xyzfile 0 1 vacuum_censo.xyz
|  3>
|  4>                          ****END OF INPUT****

CARTESIAN COORDINATES (ANGSTROEM)
---------------------------------
  C      2.197549   -1.182714   -0.104955
  C      1.425368    0.121652   -0.054242
  O      1.984059    1.214309   -0.028308
  N      0.068492    0.014528   -0.026184
  C     -0.717009   -1.224494   -0.036966
  C     -2.122832   -0.743717    0.336211
  C     -2.176800    0.660623   -0.276350
  C     -0.778759    1.214656    0.006129
  H      3.242911   -0.950074   -0.304938
  H      1.816320   -1.860405   -0.875251
  H      2.130408   -1.702579    0.857256
  H     -0.715368   -1.686122   -1.036792
  H     -0.322860   -1.958174    0.674155
  H     -2.903619   -1.412405   -0.034558
  H     -2.215262   -0.680113    1.426323
  H     -2.341578    0.590508   -1.357629
  H     -2.967108    1.284470    0.147817
  H     -0.433206    1.942864   -0.732978
  H     -0.720669    1.694623    0.992936

 Total Charge           Charge          ....    0
 Multiplicity           Mult            ....    1
 Number of Electrons    NEL             ....   62
 Basis Dimension        Dim             ....  314

ORBITAL ENERGIES
----------------

  NO   OCC          E(Eh)            E(eV)
   0   2.0000     -18.900409      -514.3063
   1   2.0000     -14.185078      -385.9956
   2   2.0000     -10.118206      -275.3304
   3   2.0000     -10.078462      -274.2489
   4   2.0000     -10.064841      -273.8783
   5   2.0000     -10.047295      -273.4008
   6   2.0000     -10.043402      -273.2948
   7   2.0000     -10.031982      -272.9841
   8   2.0000      -0.985905       -26.8278
   9   2.0000      -0.904716       -24.6186
  10   2.0000      -0.766705       -20.8631
  11   2.0000      -0.716638       -19.5007
  12   2.0000      -0.691401       -18.8140
  13   2.0000      -0.606461       -16.5026
  14   2.0000      -0.567950       -15.4547
  15   2.0000      -0.521484       -14.1903
  16   2.0000      -0.478278       -13.0146
  17   2.0000      -0.449087       -12.2203
  18   2.0000      -0.420357       -11.4385
  19   2.0000      -0.406279       -11.0554
  20   2.0000      -0.402958       -10.9651
  21   2.0000      -0.391962       -10.6658
  22   2.0000      -0.372767       -10.1435
  23   2.0000      -0.358796        -9.7633
  24   2.0000      -0.348427        -9.4812
  25   2.0000      -0.330214        -8.9856
  26   2.0000      -0.328079        -8.9275
  27   2.0000      -0.319316        -8.6890
  28   2.0000      -0.307994        -8.3810
  29   2.0000      -0.210814        -5.7366
  30   2.0000      -0.207979        -5.6594
  31   0.0000       0.002555         0.0695
  32   0.0000       0.025466         0.6930
  33   0.0000       0.058871         1.6020
  34   0.0000       0.063154         1.7185
  35   0.0000       0.079623         2.1667

MULLIKEN ATOMIC CHARGES
-----------------------
   0 C :   -0.345466
   1 C :    0.227703
   2 O :   -0.413826
   3 N :   -0.069728
   4 C :   -0.146708
   5 C :   -0.154843
   6 C :   -0.149133
   7 C :   -0.117244
   8 H :    0.136885
   9 H :    0.112300
  10 H :    0.121449
  11 H :    0.094081
  12 H :    0.105059
  13 H :    0.101504
  14 H :    0.091284
  15 H :    0.089207
  16 H :    0.101352
  17 H :    0.118529
  18 H :    0.097596
Sum of atomic charges:   -0.0000000

LOEWDIN ATOMIC CHARGES
----------------------
   0 C :   -0.264974
   1 C :   -0.465445
   2 O :    0.049841
   3 N :    0.195423
   4 C :   -0.245740
   5 C :   -0.248125
   6 C :   -0.249732
   7 C :   -0.231344
   8 H :    0.134281
   9 H :    0.126466
  10 H :    0.131934
  11 H :    0.127226
  12 H :    0.130575
  13 H :    0.133435
  14 H :    0.137499
  15 H :    0.136440
  16 H :    0.134203
  17 H :    0.136504
  18 H :    0.131532

  Mayer bond orders larger than 0.100000
B(  0-C ,  1-C ) :   0.9590 B(  0-C ,  8-H ) :   0.9769 B(  0-C ,  9-H ) :   0.9516
B(  0-C , 10-H ) :   0.9530 B(  1-C ,  2-O ) :   1.9495 B(  1-C ,  3-N ) :   1.2214
B(  3-N ,  4-C ) :   0.9508 B(  3-N ,  7-C ) :   0.9139 B(  4-C ,  5-C ) :   1.0066
B(  4-C , 11-H ) :   0.9505 B(  4-C , 12-H ) :   0.9521 B(  5-C ,  6-C ) :   0.9734
B(  5-C , 13-H ) :   0.9668 B(  5-C , 14-H ) :   0.9651 B(  6-C ,  7-C ) :   0.9825
B(  6-C , 15-H ) :   0.9657 B(  6-C , 16-H ) :   0.9675 B(  7-C , 17-H ) :   0.9611
B(  7-C , 18-H ) :   0.9653

Dispersion correction           -0.005518672
FINAL SINGLE POINT ENERGY      -365.183323033696

DIPOLE MOMENT
-------------

Method             : SCF
Type of density    : Electron Density
Multiplicity       :   1
Irrep              :   0
Energy             :  -365.1911697958754530 Eh
Relativity type    :
Basis              : AO
                                X                 Y                 Z
Electronic contribution:      3.897737076       3.398043952      -0.009195425
Nuclear contribution   :     -5.168335287      -4.517431508       0.011050822
                        -----------------------------------------
Total Dipole Moment    :     -1.270598211      -1.119387555       0.001855397
                        -----------------------------------------
Magnitude (a.u.)       :      1.693355177
Magnitude (Debye)      :      4.304166802

VIBRATIONAL FREQUENCIES
-----------------------

Scaling factor for frequencies =  1.000000000  (already applied!)

     0:       0.00 cm**-1
     1:       0.00 cm**-1
     2:       0.00 cm**-1
     3:       0.00 cm**-1
     4:       0.00 cm**-1
     5:       0.00 cm**-1
     6:      76.44 cm**-1
     7:     131.11 cm**-1
     8:     152.73 cm**-1
     9:     205.26 cm**-1
    10:     226.45 cm**-1
    11:     272.62 cm**-1
    12:     385.29 cm**-1
    13:     521.54 cm**-1
    14:     575.48 cm**-1
    15:     594.75 cm**-1
    16:     619.59 cm**-1
    17:     763.21 cm**-1
    18:     868.55 cm**-1
    19:     885.43 cm**-1
    20:     920.98 cm**-1
    21:     924.44 cm**-1
    22:     957.27 cm**-1
    23:     991.35 cm**-1
    24:    1024.72 cm**-1
    25:    1042.88 cm**-1
    26:    1080.42 cm**-1
    27:    1143.86 cm**-1
    28:    1176.60 cm**-1
    29:    1192.13 cm**-1
    30:    1205.53 cm**-1
    31:    1250.15 cm**-1
    32:    1275.66 cm**-1
    33:    1314.33 cm**-1
    34:    1343.00 cm**-1
    35:    1359.13 cm**-1
    36:    1364.53 cm**-1
    37:    1371.79 cm**-1
    38:    1421.45 cm**-1
    39:    1462.30 cm**-1
    40:    1477.74 cm**-1
    41:    1484.20 cm**-1
    42:    1490.98 cm**-1
    43:    1509.46 cm**-1
    44:    1521.75 cm**-1
    45:    1702.43 cm**-1
    46:    2963.61 cm**-1
    47:    2995.91 cm**-1
    48:    3015.62 cm**-1
    49:    3022.72 cm**-1
    50:    3029.21 cm**-1
    51:    3051.60 cm**-1
    52:    3074.08 cm**-1
    53:    3084.68 cm**-1
    54:    3089.64 cm**-1
    55:    3097.62 cm**-1
    56:    3142.51 cm**-1

IR SPECTRUM
-----------

 Mode   freq       eps      Int      T**2         TX        TY        TZ
       cm**-1   L/(mol*cm) km/mol    a.u.
----------------------------------------------------------------------------
  6:     76.44   0.000029    0.15  0.000118  ( 0.005295 -0.002264 -0.009218)
  7:    131.11   0.000443    2.24  0.001055  ( 0.001220 -0.000560  0.032450)
  8:    152.73   0.000072    0.37  0.000148  ( 0.003466  0.001193  0.011593)
  9:    205.26   0.000555    2.81  0.000844  ( 0.000873  0.000154  0.029038)
 10:    226.45   0.001103    5.58  0.001520  ( 0.037601 -0.009787 -0.003270)
 11:    272.62   0.000009    0.05  0.000011  (-0.001590  0.001018 -0.002681)
 12:    385.29   0.000945    4.77  0.000765  (-0.020156  0.018931  0.000581)
 13:    521.54   0.001098    5.55  0.000657  ( 0.016897  0.019094  0.002567)
 14:    575.48   0.000341    1.72  0.000185  (-0.000656 -0.000913 -0.013551)
 15:    594.75   0.000463    2.34  0.000243  (-0.003974  0.003092 -0.014745)
 16:    619.59   0.001659    8.38  0.000835  ( 0.027310 -0.007584 -0.005660)
 17:    763.21   0.000026    0.13  0.000011  ( 0.002957 -0.001199  0.000767)
 18:    868.55   0.000779    3.94  0.000280  ( 0.016675  0.001382 -0.000194)
 19:    885.43   0.000649    3.28  0.000229  (-0.006086  0.011853 -0.007159)
 20:    920.98   0.000660    3.34  0.000224  ( 0.014944  0.000584  0.000188)
 21:    924.44   0.000228    1.15  0.000077  ( 0.007394  0.000967  0.004608)
 22:    957.27   0.001857    9.38  0.000605  (-0.023644  0.006774 -0.000537)
 23:    991.35   0.001136    5.74  0.000357  (-0.015760 -0.010414  0.000795)
 24:   1024.72   0.001154    5.83  0.000352  (-0.017920 -0.005478  0.000631)
 25:   1042.88   0.000640    3.24  0.000192  ( 0.001645 -0.002206  0.013564)
 26:   1080.42   0.000362    1.83  0.000105  (-0.006318 -0.008013 -0.000673)
 27:   1143.86   0.000577    2.92  0.000157  ( 0.012523  0.000662 -0.000377)
 28:   1176.60   0.001412    7.14  0.000375  ( 0.004857 -0.018343  0.003802)
 29:   1192.13   0.000645    3.26  0.000169  (-0.011294  0.005438 -0.003430)
 30:   1205.53   0.003290   16.63  0.000852  (-0.013575  0.023371  0.011007)
 31:   1250.15   0.003142   15.88  0.000784  (-0.027726  0.003877  0.000668)
 32:   1275.66   0.001457    7.36  0.000356  (-0.000888 -0.018831  0.000963)
 33:   1314.33   0.000157    0.79  0.000037  ( 0.000763 -0.005981  0.000903)
 34:   1343.00   0.000015    0.07  0.000003  (-0.001819  0.000028 -0.000305)
 35:   1359.13   0.000262    1.32  0.000060  ( 0.000822 -0.007699  0.000442)
 36:   1364.53   0.000175    0.88  0.000040  ( 0.003604 -0.005134 -0.000827)
 37:   1371.79   0.004834   24.43  0.001100  ( 0.024355  0.022496 -0.000679)
 38:   1421.45   0.064276  324.83  0.014111  (-0.117612  0.016666 -0.000870)
 39:   1462.30   0.002033   10.27  0.000434  (-0.001521 -0.020731  0.001317)
 40:   1477.74   0.003191   16.13  0.000674  ( 0.014480 -0.003479 -0.021264)
 41:   1484.20   0.000999    5.05  0.000210  ( 0.002926  0.006783 -0.012467)
 42:   1490.98   0.000734    3.71  0.000154  ( 0.010314  0.005081  0.004622)
 43:   1509.46   0.000028    0.14  0.000006  ( 0.001266 -0.001540 -0.001313)
 44:   1521.75   0.000666    3.36  0.000136  ( 0.008195  0.007898  0.002638)
 45:   1702.43   0.070731  357.44  0.012965  (-0.082359 -0.078625 -0.000711)
 46:   2963.61   0.011014   55.66  0.001160  (-0.002602 -0.027885 -0.019376)
 47:   2995.91   0.006278   31.73  0.000654  (-0.005528  0.020705  0.013953)
 48:   3015.62   0.001567    7.92  0.000162  ( 0.000902 -0.012698  0.000308)
 49:   3022.72   0.003627   18.33  0.000374  ( 0.019226 -0.000594  0.002114)
 50:   3029.21   0.004336   21.91  0.000447  ( 0.000265  0.004652 -0.020615)
 51:   3051.60   0.007769   39.26  0.000795  ( 0.001063 -0.019617  0.020213)
 52:   3074.08   0.003569   18.03  0.000362  (-0.004004  0.013300 -0.013013)
 53:   3084.68   0.002281   11.53  0.000231  ( 0.001395  0.004677  0.014384)
 54:   3089.64   0.005840   29.51  0.000590  ( 0.023851  0.003637  0.002785)
 55:   3097.62   0.007616   38.49  0.000767  (-0.002540  0.014923  0.023198)
 56:   3142.51   0.001665    8.42  0.000165  ( 0.012157  0.004120 -0.000781)

--------------------------
THERMOCHEMISTRY AT 298.15K
--------------------------

Temperature         ...   298.15 K
Pressure            ...     1.00 atm
Total Mass          ...   113.16 AMU
Quasi RRHO          ...     True
Cut-Off Frequency   ...     1.00 cm^-1

Throughout the following assumptions are being made:
  (1) The electronic state is orbitally nondegenerate
  (2) There are no thermally accessible electronically excited states
  (3) Hindered rotations indicated by low frequency modes are not
      treated as such but are treated as vibrations and this may
      cause some error
  (4) All equations used are the standard statistical mechanics
      equations for an ideal gas
  (5) All vibrations are strictly harmonic

freq.      76.44  E(vib)   ...       0.49
freq.     131.11  E(vib)   ...       0.42
freq.     152.73  E(vib)   ...       0.40
freq.     205.26  E(vib)   ...       0.35
freq.     226.45  E(vib)   ...       0.33
freq.     272.62  E(vib)   ...       0.29
freq.     385.29  E(vib)   ...       0.20
freq.     521.54  E(vib)   ...       0.13
freq.     575.48  E(vib)   ...       0.11
freq.     594.75  E(vib)   ...       0.10
freq.     619.59  E(vib)   ...       0.09
freq.     763.21  E(vib)   ...       0.06
freq.     868.55  E(vib)   ...       0.04
freq.     885.43  E(vib)   ...       0.04
freq.     920.98  E(vib)   ...       0.03
freq.     924.44  E(vib)   ...       0.03
freq.     957.27  E(vib)   ...       0.03
freq.     991.35  E(vib)   ...       0.02
freq.    1024.72  E(vib)   ...       0.02
freq.    1042.88  E(vib)   ...       0.02
freq.    1080.42  E(vib)   ...       0.02
freq.    1143.86  E(vib)   ...       0.01
freq.    1176.60  E(vib)   ...       0.01
freq.    1192.13  E(vib)   ...       0.01
freq.    1205.53  E(vib)   ...       0.01
freq.    1250.15  E(vib)   ...       0.01
freq.    1275.66  E(vib)   ...       0.01
freq.    1314.33  E(vib)   ...       0.01
freq.    1343.00  E(vib)   ...       0.01
freq.    1359.13  E(vib)   ...       0.01
freq.    1364.53  E(vib)   ...       0.01
freq.    1371.79  E(vib)   ...       0.01
freq.    1421.45  E(vib)   ...       0.00
freq.    1462.30  E(vib)   ...       0.00
freq.    1477.74  E(vib)   ...       0.00
freq.    1484.20  E(vib)   ...       0.00
freq.    1490.98  E(vib)   ...       0.00
freq.    1509.46  E(vib)   ...       0.00
freq.    1521.75  E(vib)   ...       0.00
freq.    1702.43  E(vib)   ...       0.00
freq.    2963.61  E(vib)   ...       0.00
freq.    2995.91  E(vib)   ...       0.00
freq.    3015.62  E(vib)   ...       0.00
freq.    3022.72  E(vib)   ...       0.00
freq.    3029.21  E(vib)   ...       0.00
freq.    3051.60  E(vib)   ...       0.00
freq.    3074.08  E(vib)   ...       0.00
freq.    3084.68  E(vib)   ...       0.00
freq.    3089.64  E(vib)   ...       0.00
freq.    3097.62  E(vib)   ...       0.00
freq.    3142.51  E(vib)   ...       0.00

------------
INNER ENERGY
------------

The inner energy is: U= E(el) + E(ZPE) + E(vib) + E(rot) + E(trans)
    E(el)   - is the total energy from the electronic structure calculation
              = E(kin-el) + E(nuc-el) + E(el-el) + E(nuc-nuc)
    E(ZPE)  - the the zero temperature vibrational energy from the frequency calculation
    E(vib)  - the the finite temperature correction to E(ZPE) due to population
              of excited vibrational states
    E(rot)  - is the rotational thermal energy
    E(trans)- is the translational thermal energy

Summary of contributions to the inner energy U:
Electronic energy                ...   -365.18332303 Eh
Zero point energy                ...      0.16597533 Eh     104.15 kcal/mol
Thermal vibrational correction   ...      0.00530799 Eh       3.33 kcal/mol
Thermal rotational correction    ...      0.00141627 Eh       0.89 kcal/mol
Thermal translational correction ...      0.00141627 Eh       0.89 kcal/mol
-----------------------------------------------------------------------
Total thermal energy                   -365.00920717 Eh

Summary of corrections to the electronic energy:
(perhaps to be used in another calculation)
Total thermal correction                  0.00814053 Eh       5.11 kcal/mol
Non-thermal (ZPE) correction              0.16597533 Eh     104.15 kcal/mol
-----------------------------------------------------------------------
Total correction                          0.17411587 Eh     109.26 kcal/mol

--------
ENTHALPY
--------

The enthalpy is H = U + kB*T
                kB is Boltzmann's constant
Total thermal energy              ...   -365.00920717 Eh
Thermal Enthalpy correction       ...      0.00094421 Eh       0.59 kcal/mol
-----------------------------------------------------------------------
Total Enthalpy                    ...   -365.00826296 Eh

Note: Only C1 symmetry has been detected, increase convergence thresholds
      if your molecule has a higher symmetry. Symmetry factor of 1.0 is
      used for the rotational entropy correction.

Note: Rotational entropy computed according to Herzberg
Infrared and Raman Spectra, Chapter V,1, Van Nostrand Reinhold, 1945
Point Group:  C1, Symmetry Number:   1
Rotational constants in cm-1:     0.135605     0.051318     0.039081

Vibrational entropy computed according to the QRRHO of S. Grimme
Chem.Eur.J. 2012 18 9955 using a reference frequency of 100.0 cm-1

-------
ENTROPY
-------

The entropy contributions are T*S = T*(S(el)+S(vib)+S(rot)+S(trans))
     S(el)   - electronic entropy
     S(vib)  - vibrational entropy
     S(rot)  - rotational entropy
     S(trans)- translational entropy
The entropies will be listed as multiplied by the temperature to get
units of energy

Electronic entropy                ...      0.00000000 Eh      0.00 kcal/mol
Vibrational entropy               ...      0.00905800 Eh      5.68 kcal/mol
Rotational entropy                ...      0.01338660 Eh      8.40 kcal/mol
Translational entropy             ...      0.01904634 Eh     11.95 kcal/mol
-----------------------------------------------------------------------
Final entropy term                ...      0.04149094 Eh     26.04 kcal/mol

In case the symmetry of your molecule has not been determined correctly
or in case you have a reason to use a different symmetry number we print
out the resulting rotational entropy values for sn=1,12:

 non-linear molecules -----------------------------------
|  sn= 1 | S(rot)=       0.01338660 Eh      8.40 kcal/mol|
|  sn= 2 | S(rot)=       0.01273214 Eh      7.99 kcal/mol|
|  sn= 3 | S(rot)=       0.01234931 Eh      7.75 kcal/mol|
|  sn= 4 | S(rot)=       0.01207769 Eh      7.58 kcal/mol|
|  sn= 5 | S(rot)=       0.01186700 Eh      7.45 kcal/mol|
|  sn= 6 | S(rot)=       0.01169485 Eh      7.34 kcal/mol|
|  sn= 7 | S(rot)=       0.01154931 Eh      7.25 kcal/mol|
|  sn= 8 | S(rot)=       0.01142323 Eh      7.17 kcal/mol|
|  sn= 9 | S(rot)=       0.01131202 Eh      7.10 kcal/mol|

                             ****ORCA TERMINATED NORMALLY****
TOTAL RUN TIME: 0 days 0 hours 16 minutes 7 seconds 491 msec
