                         Program Version 6.0.1  -  RELEASE   -
|  1> ! r2scan-3c def2/J RI DEFGRID2 scfconv6 printgap
|  2> %output
|  3>     printlevel normal
|  4> end
|  5> * xyz 0 1
|  6> C 2.4103513364 7.28969e-05 -0.0075275921
|  7> N 0.9973864844 -2.29003e-05 0.2981561795
|  8> C 0.3300299486 -1.1853499542 -0.2115780257
|  9> C -1.1363070296 -1.1562026846 0.2184665738
| 10> O -1.7877759119 -6.33975e-05 -0.2525681126
| 11> C -1.1364526262 1.1562091031 0.2183184487
| 12> C 0.3299789581 1.1853443757 -0.2114494447
| 13> H 2.6131598952 0.0001174688 -1.0903885867
| 14> H 2.8675708855 -0.8852470257 0.4320504753
| 15> H 2.8675975199 0.8851895042 0.4323208024
| 16> H 0.3837194082 -1.2368804425 -1.3145599897
| 17> H 0.815813183 -2.0704862945 0.2047442771
| 18> H -1.6793962217 -2.0060328171 -0.1986092591
| 19> H -1.1872373663 -1.1905385979 1.3172462795
| 20> H -1.6795126916 2.0059073574 -0.1990925086
| 21> H -1.1875740739 1.190822277 1.317085096
| 22> H 0.3839354575 1.2371676283 -1.3144183453
| 23> H 0.8155840901 2.070426846 0.2051943885
| 24> *
| 25>
| 26>                          ****END OF INPUT****

CARTESIAN COORDINATES (ANGSTROEM)
---------------------------------
  C      2.410351    0.000073   -0.007528
  N      0.997386   -0.000023    0.298156
  C      0.330030   -1.185350   -0.211578
  C     -1.136307   -1.156203    0.218467
  O     -1.787776   -0.000063   -0.252568
  C     -1.136453    1.156209    0.218318
  C      0.329979    1.185344   -0.211449
  H      2.613160    0.000117   -1.090389
  H      2.867571   -0.885247    0.432050
  H      2.867598    0.885190    0.432321
  H      0.383719   -1.236880   -1.314560
  H      0.815813   -2.070486    0.204744
  H     -1.679396   -2.006033   -0.198609
  H     -1.187237   -1.190539    1.317246
  H     -1.679513    2.005907   -0.199093
  H     -1.187574    1.190822    1.317085
  H      0.383935    1.237168   -1.314418
  H      0.815584    2.070427    0.205194

 Total Charge           Charge          ....    0
 Multiplicity           Mult            ....    1
 Number of Electrons    NEL             ....   56
 Basis Dimension        Dim             ....  198

ORBITAL ENERGIES
----------------

  NO   OCC          E(Eh)            E(eV)
   0   2.0000     -18.951255      -515.6899
   1   2.0000     -14.154186      -385.1550
   2   2.0000     -10.072925      -274.0982
   3   2.0000     -10.072917      -274.0980
   4   2.0000     -10.052616      -273.5456
   5   2.0000     -10.052613      -273.5455
   6   2.0000     -10.047021      -273.3934
   7   2.0000      -1.006234       -27.3810
   8   2.0000      -0.893368       -24.3098
   9   2.0000      -0.735106       -20.0033
  10   2.0000      -0.692519       -18.8444
  11   2.0000      -0.620225       -16.8772
  12   2.0000      -0.602685       -16.3999
  13   2.0000      -0.529165       -14.3993
  14   2.0000      -0.469642       -12.7796
  15   2.0000      -0.445589       -12.1251
  16   2.0000      -0.435350       -11.8465
  17   2.0000      -0.435226       -11.8431
  18   2.0000      -0.416068       -11.3218
  19   2.0000      -0.379260       -10.3202
  20   2.0000      -0.370365       -10.0781
  21   2.0000      -0.352503        -9.5921
  22   2.0000      -0.345813        -9.4100
  23   2.0000      -0.323326        -8.7981
  24   2.0000      -0.313384        -8.5276
  25   2.0000      -0.274895        -7.4803
  26   2.0000      -0.221671        -6.0320
  27   2.0000      -0.189129        -5.1465
  28   0.0000       0.072384         1.9697
  29   0.0000       0.093264         2.5379
  30   0.0000       0.104710         2.8493
  31   0.0000       0.120814         3.2875
  32   0.0000       0.125574         3.4170

MULLIKEN ATOMIC CHARGES
-----------------------
   0 C :   -0.350940
   1 N :   -0.160902
   2 C :   -0.218604
   3 C :   -0.195163
   4 O :   -0.222590
   5 C :   -0.195148
   6 C :   -0.218640
   7 H :    0.132962
   8 H :    0.144601
   9 H :    0.144610
  10 H :    0.144450
  11 H :    0.140875
  12 H :    0.140543
  13 H :    0.144040
  14 H :    0.140544
  15 H :    0.144036
  16 H :    0.144441
  17 H :    0.140885
Sum of atomic charges:    0.0000000

LOEWDIN ATOMIC CHARGES
----------------------
   0 C :   -0.142999
   1 N :   -0.994748
   2 C :   -0.041529
   3 C :    0.037222
   4 O :   -0.747799
   5 C :    0.037206
   6 C :   -0.041538
   7 H :    0.153267
   8 H :    0.174059
   9 H :    0.174056
  10 H :    0.166160
  11 H :    0.182050
  12 H :    0.179552
  13 H :    0.168645
  14 H :    0.179560
  15 H :    0.168634
  16 H :    0.166149
  17 H :    0.182052

  Mayer bond orders larger than 0.100000
B(  0-C ,  1-N ) :   0.9540 B(  0-C ,  7-H ) :   0.9504 B(  0-C ,  8-H ) :   0.9699
B(  0-C ,  9-H ) :   0.9699 B(  1-N ,  2-C ) :   0.9820 B(  1-N ,  6-C ) :   0.9821
B(  2-C ,  3-C ) :   0.9255 B(  2-C , 10-H ) :   0.9570 B(  2-C , 11-H ) :   0.9476
B(  3-C ,  4-O ) :   0.9453 B(  3-C , 12-H ) :   0.9609 B(  3-C , 13-H ) :   0.9741
B(  4-O ,  5-C ) :   0.9454 B(  5-C ,  6-C ) :   0.9255 B(  5-C , 14-H ) :   0.9609
B(  5-C , 15-H ) :   0.9741 B(  6-C , 16-H ) :   0.9570 B(  6-C , 17-H ) :   0.9477

Dispersion correction           -0.004938023
FINAL SINGLE POINT ENERGY      -327.008783557140

DIPOLE MOMENT
-------------

Method             : SCF
Type of density    : Electron Density
Multiplicity       :   1
Irrep              :   0
Energy             :  -327.0209018025855130 Eh
Relativity type    :
Basis              : AO
                                X                 Y                 Z
Electronic contribution:     -4.171945166      -0.000368998       0.222423152
Nuclear contribution   :      4.682595017       0.000417266      -0.197652447
                        -----------------------------------------
Total Dipole Moment    :      0.510649852       0.000048269       0.024770704
                        -----------------------------------------
Magnitude (a.u.)       :      0.511250292
Magnitude (Debye)      :      1.299494970

Rotational constants in cm-1:             0.163113             0.078290             0.057681
Rotational constants in MHz :          4890.004056          2347.078644          1729.226081

                             ****ORCA TERMINATED NORMALLY****
TOTAL RUN TIME: 0 days 0 hours 0 minutes 26 seconds 792 msec
