                         Program Version 6.0.1  -  RELEASE   -
|  1> ! r2scan-3c def2/J RI DEFGRID2 scfconv6 printgap
|  2> %output
|  3>     printlevel normal
|  4> end
|  5> * xyz 0 1
|  6> C 3.7136044952 -0.1519863668 0.0790985049
|  7> C 2.2250922533 -0.1751069157 -0.0286427939
|  8> C 1.4693031263 0.9026081612 0.2026252669
|  9> C 0.0105389068 0.9424768924 0.0678449351
| 10> O -0.6102246802 1.9565548498 0.3112107234
| 11> C -0.6288798158 -0.3383346432 -0.4509647327
| 12> H -0.5008234243 -0.2965732928 -1.5428996376
| 13> C 0.155688521 -1.5487633087 0.0601439504
| 14> C 1.6021026544 -1.4808234991 -0.4153579285
| 15> C -2.1401048981 -0.458693797 -0.1694607232
| 16> C -2.4742991619 -0.2643734536 1.3079282129
| 17> C -2.9364268935 0.5258509084 -1.0244102594
| 18> H 4.038188335 -0.8006220393 0.8929742094
| 19> H 4.0820813512 0.852943268 0.2653541782
| 20> H 4.1612370362 -0.5311489182 -0.8391056559
| 21> H 1.9206158135 1.8403766042 0.4974076037
| 22> H 0.1399245075 -1.5616348169 1.1518012426
| 23> H -0.3127094925 -2.4691448794 -0.2953039634
| 24> H 2.1825112955 -2.3084335429 -0.001005998
| 25> H 1.6356520927 -1.575190685 -1.5069392868
| 26> H -2.4359863946 -1.4767303287 -0.4569498095
| 27> H -2.2128628664 0.7415180273 1.6232671841
| 28> H -1.9399381365 -0.9783342517 1.9305493378
| 29> H -3.5407320526 -0.4072156805 1.4675243056
| 30> H -4.0021647062 0.4002651685 -0.8466707518
| 31> H -2.7444642805 0.361719323 -2.0833512763
| 32> H -2.6603934647 1.5454093452 -0.7733248502
| 33> *
| 34>
| 35>                          ****END OF INPUT****

CARTESIAN COORDINATES (ANGSTROEM)
---------------------------------
  C      3.713604   -0.151986    0.079099
  C      2.225092   -0.175107   -0.028643
  C      1.469303    0.902608    0.202625
  C      0.010539    0.942477    0.067845
  O     -0.610225    1.956555    0.311211
  C     -0.628880   -0.338335   -0.450965
  H     -0.500823   -0.296573   -1.542900
  C      0.155689   -1.548763    0.060144
  C      1.602103   -1.480823   -0.415358
  C     -2.140105   -0.458694   -0.169461
  C     -2.474299   -0.264373    1.307928
  C     -2.936427    0.525851   -1.024410
  H      4.038188   -0.800622    0.892974
  H      4.082081    0.852943    0.265354
  H      4.161237   -0.531149   -0.839106
  H      1.920616    1.840377    0.497408
  H      0.139925   -1.561635    1.151801
  H     -0.312709   -2.469145   -0.295304
  H      2.182511   -2.308434   -0.001006
  H      1.635652   -1.575191   -1.506939
  H     -2.435986   -1.476730   -0.456950
  H     -2.212863    0.741518    1.623267
  H     -1.939938   -0.978334    1.930549
  H     -3.540732   -0.407216    1.467524
  H     -4.002165    0.400265   -0.846671
  H     -2.744464    0.361719   -2.083351
  H     -2.660393    1.545409   -0.773325

 Total Charge           Charge          ....    0
 Multiplicity           Mult            ....    1
 Number of Electrons    NEL             ....   84
 Basis Dimension        Dim             ....  294

ORBITAL ENERGIES
----------------

  NO   OCC          E(Eh)            E(eV)
   0   2.0000     -18.924730      -514.9681
   1   2.0000     -10.107267      -275.0327
   2   2.0000     -10.067962      -273.9632
   3   2.0000     -10.048533      -273.4345
   4   2.0000     -10.042492      -273.2701
   5   2.0000     -10.039867      -273.1987
   6   2.0000     -10.039346      -273.1845
   7   2.0000     -10.032560      -272.9998
   8   2.0000     -10.029672      -272.9213
   9   2.0000     -10.005566      -272.2653
  10   2.0000     -10.001950      -272.1669
  11   2.0000      -0.996511       -27.1164
  12   2.0000      -0.825004       -22.4495
  13   2.0000      -0.776504       -21.1297
  14   2.0000      -0.727747       -19.8030
  15   2.0000      -0.699241       -19.0273
  16   2.0000      -0.661644       -18.0042
  17   2.0000      -0.641066       -17.4443
  18   2.0000      -0.587653       -15.9908
  19   2.0000      -0.557649       -15.1744
  20   2.0000      -0.525595       -14.3022
  21   2.0000      -0.483893       -13.1674
  22   2.0000      -0.453123       -12.3301
  23   2.0000      -0.436613       -11.8808
  24   2.0000      -0.420918       -11.4538
  25   2.0000      -0.416437       -11.3318
  26   2.0000      -0.398627       -10.8472
  27   2.0000      -0.394971       -10.7477
  28   2.0000      -0.388000       -10.5580
  29   2.0000      -0.377063       -10.2604
  30   2.0000      -0.363884        -9.9018
  31   2.0000      -0.362621        -9.8674
  32   2.0000      -0.348874        -9.4933
  33   2.0000      -0.338279        -9.2050
  34   2.0000      -0.333903        -9.0860
  35   2.0000      -0.316020        -8.5994
  36   2.0000      -0.311725        -8.4825
  37   2.0000      -0.295567        -8.0428
  38   2.0000      -0.287822        -7.8320
  39   2.0000      -0.279133        -7.5956
  40   2.0000      -0.243250        -6.6192
  41   2.0000      -0.201839        -5.4923
  42   0.0000      -0.074933        -2.0390
  43   0.0000       0.028688         0.7806
  44   0.0000       0.074301         2.0218
  45   0.0000       0.086560         2.3554
  46   0.0000       0.102878         2.7994

MULLIKEN ATOMIC CHARGES
-----------------------
   0 C :   -0.512640
   1 C :    0.197947
   2 C :   -0.306311
   3 C :    0.225838
   4 O :   -0.364642
   5 C :   -0.138683
   6 H :    0.173318
   7 C :   -0.360134
   8 C :   -0.320835
   9 C :    0.109694
  10 C :   -0.576446
  11 C :   -0.566631
  12 H :    0.167050
  13 H :    0.160135
  14 H :    0.158114
  15 H :    0.165102
  16 H :    0.173727
  17 H :    0.157309
  18 H :    0.158825
  19 H :    0.182713
  20 H :    0.147780
  21 H :    0.194245
  22 H :    0.145968
  23 H :    0.145186
  24 H :    0.143206
  25 H :    0.138179
  26 H :    0.201986
Sum of atomic charges:    0.0000000

LOEWDIN ATOMIC CHARGES
----------------------
   0 C :   -0.386212
   1 C :   -0.065964
   2 C :   -0.166989
   3 C :    0.234309
   4 O :   -0.487737
   5 C :   -0.191641
   6 H :    0.186588
   7 C :   -0.270955
   8 C :   -0.277784
   9 C :   -0.221317
  10 C :   -0.407482
  11 C :   -0.410255
  12 H :    0.168690
  13 H :    0.163093
  14 H :    0.167650
  15 H :    0.182150
  16 H :    0.166621
  17 H :    0.161012
  18 H :    0.166140
  19 H :    0.175761
  20 H :    0.156314
  21 H :    0.175491
  22 H :    0.150164
  23 H :    0.153508
  24 H :    0.150870
  25 H :    0.149602
  26 H :    0.178373

  Mayer bond orders larger than 0.100000
B(  0-C ,  1-C ) :   0.8368 B(  0-C , 12-H ) :   0.9660 B(  0-C , 13-H ) :   0.9933
B(  0-C , 14-H ) :   0.9627 B(  1-C ,  2-C ) :   1.6686 B(  1-C ,  8-C ) :   0.8608
B(  2-C ,  3-C ) :   1.0948 B(  2-C , 15-H ) :   0.9555 B(  3-C ,  4-O ) :   1.9157
B(  3-C ,  5-C ) :   0.9152 B(  5-C ,  6-H ) :   0.9482 B(  5-C ,  7-C ) :   0.8485
B(  5-C ,  9-C ) :   0.8794 B(  7-C ,  8-C ) :   0.9032 B(  7-C , 16-H ) :   0.9905
B(  7-C , 17-H ) :   0.9790 B(  8-C , 18-H ) :   0.9715 B(  8-C , 19-H ) :   0.9871
B(  9-C , 10-C ) :   0.8452 B(  9-C , 11-C ) :   0.8770 B(  9-C , 20-H ) :   0.9939
B( 10-C , 21-H ) :   0.9742 B( 10-C , 22-H ) :   0.9810 B( 10-C , 23-H ) :   0.9703
B( 11-C , 24-H ) :   0.9778 B( 11-C , 25-H ) :   0.9780 B( 11-C , 26-H ) :   0.9762

Dispersion correction           -0.009557796
FINAL SINGLE POINT ENERGY      -465.792638910265

DIPOLE MOMENT
-------------

Method             : SCF
Type of density    : Electron Density
Multiplicity       :   1
Irrep              :   0
Energy             :  -465.7947226785684052 Eh
Relativity type    :
Basis              : AO
                                X                 Y                 Z
Electronic contribution:      3.083682187       4.981488156       0.180808725
Nuclear contribution   :     -2.063506395      -6.221799653      -0.480110607
                        -----------------------------------------
Total Dipole Moment    :      1.020175792      -1.240311496      -0.299301883
                        -----------------------------------------
Magnitude (a.u.)       :      1.633619562
Magnitude (Debye)      :      4.152330935

Rotational constants in cm-1:             0.072845             0.023673             0.020549
Rotational constants in MHz :          2183.833870           709.692066           616.053056

                             ****ORCA TERMINATED NORMALLY****
TOTAL RUN TIME: 0 days 0 hours 0 minutes 42 seconds 810 msec
