                         Program Version 6.0.1  -  RELEASE   -
|  1> ! pbe def2-sv(p) def2/J RI DEFGRID1 loosescf d4 GCP(DFT/SV(P)) printgap
|  2> %output
|  3>     printlevel normal
|  4> end
|  5> * xyz 0 1
|  6> C 1.083789825 1.4959372756 -0.032899676
|  7> C 0.4572036684 0.1317064098 -0.0268776331
|  8> C 1.1875174028 -0.9729887146 0.0979156511
|  9> C -0.9958048442 0.1211808319 -0.1926145899
| 10> C -1.8135548921 -0.8684429531 0.1418665628
| 11> H 2.1569879989 1.4349893603 0.1268656826
| 12> H 0.6466180089 2.1147097453 0.7503069561
| 13> H 0.900145816 1.9886911805 -0.9875540309
| 14> H 0.7497076829 -1.9552986787 0.074074683
| 15> H 2.2569228306 -0.9317883609 0.2168303853
| 16> H -1.4123703884 1.0315080421 -0.6070557658
| 17> H -2.8771486813 -0.7973516783 -0.0100370385
| 18> H -1.4573992165 -1.7818734567 0.5868369402
| 19> *
| 20>
| 21>                          ****END OF INPUT****

CARTESIAN COORDINATES (ANGSTROEM)
---------------------------------
  C      1.083790    1.495937   -0.032900
  C      0.457204    0.131706   -0.026878
  C      1.187517   -0.972989    0.097916
  C     -0.995805    0.121181   -0.192615
  C     -1.813555   -0.868443    0.141867
  H      2.156988    1.434989    0.126866
  H      0.646618    2.114710    0.750307
  H      0.900146    1.988691   -0.987554
  H      0.749708   -1.955299    0.074075
  H      2.256923   -0.931788    0.216830
  H     -1.412370    1.031508   -0.607056
  H     -2.877149   -0.797352   -0.010037
  H     -1.457399   -1.781873    0.586837

 Total Charge           Charge          ....    0
 Multiplicity           Mult            ....    1
 Number of Electrons    NEL             ....   38
 Basis Dimension        Dim             ....   86

ORBITAL ENERGIES
----------------

  NO   OCC          E(Eh)            E(eV)
   0   2.0000      -9.903149      -269.4784
   1   2.0000      -9.894832      -269.2521
   2   2.0000      -9.883269      -268.9374
   3   2.0000      -9.881021      -268.8762
   4   2.0000      -9.874793      -268.7068
   5   2.0000      -0.739963       -20.1354
   6   2.0000      -0.665029       -18.0964
   7   2.0000      -0.613954       -16.7065
   8   2.0000      -0.542462       -14.7611
   9   2.0000      -0.460448       -12.5294
  10   2.0000      -0.428323       -11.6553
  11   2.0000      -0.404124       -10.9968
  12   2.0000      -0.377701       -10.2778
  13   2.0000      -0.365188        -9.9373
  14   2.0000      -0.337941        -9.1958
  15   2.0000      -0.314714        -8.5638
  16   2.0000      -0.300176        -8.1682
  17   2.0000      -0.272031        -7.4023
  18   2.0000      -0.202897        -5.5211
  19   0.0000      -0.057950        -1.5769
  20   0.0000       0.035739         0.9725
  21   0.0000       0.051399         1.3986
  22   0.0000       0.074196         2.0190
  23   0.0000       0.079479         2.1627

MULLIKEN ATOMIC CHARGES
-----------------------
   0 C :   -0.238056
   1 C :   -0.020669
   2 C :   -0.235938
   3 C :   -0.077157
   4 C :   -0.195803
   5 H :    0.100555
   6 H :    0.114622
   7 H :    0.114491
   8 H :    0.089838
   9 H :    0.086908
  10 H :    0.058791
  11 H :    0.101118
  12 H :    0.101301
Sum of atomic charges:   -0.0000000

LOEWDIN ATOMIC CHARGES
----------------------
   0 C :   -0.321937
   1 C :   -0.063701
   2 C :   -0.246180
   3 C :   -0.127128
   4 C :   -0.231547
   5 H :    0.124085
   6 H :    0.129476
   7 H :    0.130215
   8 H :    0.119260
   9 H :    0.119968
  10 H :    0.121343
  11 H :    0.124092
  12 H :    0.122055

  Mayer bond orders larger than 0.100000
B(  0-C ,  1-C ) :   1.0948 B(  0-C ,  5-H ) :   0.9445 B(  0-C ,  6-H ) :   0.9372
B(  0-C ,  7-H ) :   0.9325 B(  1-C ,  2-C ) :   1.9895 B(  1-C ,  3-C ) :   1.0854
B(  2-C ,  4-C ) :   0.1075 B(  2-C ,  8-H ) :   0.9057 B(  2-C ,  9-H ) :   0.9054
B(  3-C ,  4-C ) :   1.9985 B(  3-C , 10-H ) :   0.9296 B(  4-C , 11-H ) :   0.9208
B(  4-C , 12-H ) :   0.9126

Dispersion correction           -0.009121078
FINAL SINGLE POINT ENERGY      -194.823425492869

DIPOLE MOMENT
-------------

Method             : SCF
Type of density    : Electron Density
Multiplicity       :   1
Irrep              :   0
Energy             :  -194.8616726047839052 Eh
Relativity type    :
Basis              : AO
                                X                 Y                 Z
Electronic contribution:     -0.916040321      -0.880744323      -0.154202950
Nuclear contribution   :      0.903888635       1.035346343       0.140976062
                        -----------------------------------------
Total Dipole Moment    :     -0.012151686       0.154602021      -0.013226888
                        -----------------------------------------
Magnitude (a.u.)       :      0.155641893
Magnitude (Debye)      :      0.395610252

Rotational constants in cm-1:             0.304999             0.132276             0.094911
Rotational constants in MHz :          9143.634634          3965.548483          2845.368292

                             ****ORCA TERMINATED NORMALLY****
TOTAL RUN TIME: 0 days 0 hours 0 minutes 3 seconds 151 msec
