                         Program Version 6.0.1  -  RELEASE   -
|  1> ! pbe def2-sv(p) def2/J RI DEFGRID1 loosescf d4 GCP(DFT/SV(P)) printgap
|  2> %output
|  3>     printlevel normal
|  4> end
|  5> * xyz 0 1
|  6> C -1.9970845057 -0.638817375 -0.666589291
|  7> C -1.164086464 -0.1039184789 0.5213159773
|  8> H -1.8102454242 -0.0604943933 1.4055567352
|  9> C -0.6338674658 1.3222701439 0.2470749331
| 10> H -1.3858037702 1.8385975197 -0.3648418374
| 11> C 0.7109585046 1.3100658678 -0.5114904458
| 12> H 1.1642184743 2.3061930293 -0.3964809678
| 13> C 1.6692152343 0.2821672543 0.126981103
| 14> H 2.6049839908 0.2611643442 -0.4426656631
| 15> C 1.012036176 -1.1050845753 0.1230190005
| 16> H 1.6449405576 -1.8179250335 0.671982618
| 17> O -0.1553830977 -1.0312719679 0.9158644974
| 18> O 0.8168436951 -1.637568978 -1.1356031126
| 19> O 1.9512798139 0.6564017042 1.4565646935
| 20> O 0.5636645717 0.9893870946 -1.8796791674
| 21> O -0.5224116719 2.0839041434 1.4201567264
| 22> O -2.2781609707 -1.9998111873 -0.5323947056
| 23> H -1.4784323496 -0.4425838231 -1.6166023781
| 24> H -2.9584052118 -0.1197643575 -0.6834257266
| 25> H 0.6230116356 -0.9228210111 -1.7628749248
| 26> H 1.4655493316 0.0572839561 2.0428369296
| 27> H 0.1010292512 1.7072505142 -2.3258772543
| 28> H 0.3024230571 1.8441391402 1.8689039395
| 29> H -1.4387805895 -2.4575126229 -0.3812070859
| 30> *
| 31>
| 32>                          ****END OF INPUT****

CARTESIAN COORDINATES (ANGSTROEM)
---------------------------------
  C     -1.997085   -0.638817   -0.666589
  C     -1.164086   -0.103918    0.521316
  H     -1.810245   -0.060494    1.405557
  C     -0.633867    1.322270    0.247075
  H     -1.385804    1.838598   -0.364842
  C      0.710959    1.310066   -0.511490
  H      1.164218    2.306193   -0.396481
  C      1.669215    0.282167    0.126981
  H      2.604984    0.261164   -0.442666
  C      1.012036   -1.105085    0.123019
  H      1.644941   -1.817925    0.671983
  O     -0.155383   -1.031272    0.915864
  O      0.816844   -1.637569   -1.135603
  O      1.951280    0.656402    1.456565
  O      0.563665    0.989387   -1.879679
  O     -0.522412    2.083904    1.420157
  O     -2.278161   -1.999811   -0.532395
  H     -1.478432   -0.442584   -1.616602
  H     -2.958405   -0.119764   -0.683426
  H      0.623012   -0.922821   -1.762875
  H      1.465549    0.057284    2.042837
  H      0.101029    1.707251   -2.325877
  H      0.302423    1.844139    1.868904
  H     -1.438781   -2.457513   -0.381207

 Total Charge           Charge          ....    0
 Multiplicity           Mult            ....    1
 Number of Electrons    NEL             ....   96
 Basis Dimension        Dim             ....  192

ORBITAL ENERGIES
----------------

  NO   OCC          E(Eh)            E(eV)
   0   2.0000     -18.798678      -511.5380
   1   2.0000     -18.783676      -511.1298
   2   2.0000     -18.782976      -511.1108
   3   2.0000     -18.769900      -510.7549
   4   2.0000     -18.750734      -510.2334
   5   2.0000     -18.734058      -509.7796
   6   2.0000     -10.000515      -272.1279
   7   2.0000      -9.966600      -271.2050
   8   2.0000      -9.963702      -271.1261
   9   2.0000      -9.955641      -270.9068
  10   2.0000      -9.946361      -270.6542
  11   2.0000      -9.931035      -270.2372
  12   2.0000      -0.999917       -27.2091
  13   2.0000      -0.969234       -26.3742
  14   2.0000      -0.957572       -26.0568
  15   2.0000      -0.934848       -25.4385
  16   2.0000      -0.925320       -25.1792
  17   2.0000      -0.910550       -24.7773
  18   2.0000      -0.715138       -19.4599
  19   2.0000      -0.701728       -19.0950
  20   2.0000      -0.621617       -16.9151
  21   2.0000      -0.611093       -16.6287
  22   2.0000      -0.575461       -15.6591
  23   2.0000      -0.539579       -14.6827
  24   2.0000      -0.531898       -14.4737
  25   2.0000      -0.503224       -13.6934
  26   2.0000      -0.483462       -13.1557
  27   2.0000      -0.463039       -12.5999
  28   2.0000      -0.453269       -12.3341
  29   2.0000      -0.444661       -12.0998
  30   2.0000      -0.416442       -11.3320
  31   2.0000      -0.415659       -11.3106
  32   2.0000      -0.398456       -10.8425
  33   2.0000      -0.390564       -10.6278
  34   2.0000      -0.368630       -10.0309
  35   2.0000      -0.362447        -9.8627
  36   2.0000      -0.352058        -9.5800
  37   2.0000      -0.336517        -9.1571
  38   2.0000      -0.318602        -8.6696
  39   2.0000      -0.306890        -8.3509
  40   2.0000      -0.291439        -7.9304
  41   2.0000      -0.276777        -7.5315
  42   2.0000      -0.271627        -7.3913
  43   2.0000      -0.259187        -7.0528
  44   2.0000      -0.249844        -6.7986
  45   2.0000      -0.238253        -6.4832
  46   2.0000      -0.221504        -6.0274
  47   2.0000      -0.201928        -5.4947
  48   0.0000      -0.010500        -0.2857
  49   0.0000       0.017694         0.4815
  50   0.0000       0.046026         1.2524
  51   0.0000       0.058440         1.5902
  52   0.0000       0.061558         1.6751

MULLIKEN ATOMIC CHARGES
-----------------------
   0 C :    0.026507
   1 C :    0.034310
   2 H :    0.083719
   3 C :    0.054258
   4 H :    0.063374
   5 C :    0.013480
   6 H :    0.091625
   7 C :    0.024862
   8 H :    0.096851
   9 C :    0.154515
  10 H :    0.084676
  11 O :   -0.327713
  12 O :   -0.397629
  13 O :   -0.416443
  14 O :   -0.419549
  15 O :   -0.417109
  16 O :   -0.432897
  17 H :    0.048710
  18 H :    0.087295
  19 H :    0.324629
  20 H :    0.311291
  21 H :    0.321901
  22 H :    0.289171
  23 H :    0.300166
Sum of atomic charges:   -0.0000000

LOEWDIN ATOMIC CHARGES
----------------------
   0 C :   -0.146052
   1 C :   -0.078231
   2 H :    0.124183
   3 C :   -0.076118
   4 H :    0.113227
   5 C :   -0.078863
   6 H :    0.113219
   7 C :   -0.080201
   8 H :    0.121344
   9 C :   -0.016823
  10 H :    0.110244
  11 O :   -0.150626
  12 O :   -0.295118
  13 O :   -0.304414
  14 O :   -0.308378
  15 O :   -0.317732
  16 O :   -0.331917
  17 H :    0.082828
  18 H :    0.116596
  19 H :    0.278612
  20 H :    0.282571
  21 H :    0.299288
  22 H :    0.268721
  23 H :    0.273640

  Mayer bond orders larger than 0.100000
B(  0-C ,  1-C ) :   1.0308 B(  0-C , 16-O ) :   1.0945 B(  0-C , 17-H ) :   0.8976
B(  0-C , 18-H ) :   0.9125 B(  1-C ,  2-H ) :   0.8923 B(  1-C ,  3-C ) :   0.9674
B(  1-C , 11-O ) :   0.9947 B(  3-C ,  4-H ) :   0.8946 B(  3-C ,  5-C ) :   0.9595
B(  3-C , 15-O ) :   1.0644 B(  5-C ,  6-H ) :   0.9042 B(  5-C ,  7-C ) :   0.9787
B(  5-C , 14-O ) :   1.0148 B(  7-C ,  8-H ) :   0.8963 B(  7-C ,  9-C ) :   1.0197
B(  7-C , 13-O ) :   1.0562 B(  9-C , 10-H ) :   0.9120 B(  9-C , 11-O ) :   0.9975
B(  9-C , 12-O ) :   1.1520 B( 12-O , 19-H ) :   0.7907 B( 13-O , 20-H ) :   0.8140
B( 13-O , 22-H ) :   0.1049 B( 14-O , 21-H ) :   0.8346 B( 15-O , 22-H ) :   0.8137
B( 16-O , 23-H ) :   0.8301

Dispersion correction           -0.026505084
FINAL SINGLE POINT ENERGY      -685.697529999581

DIPOLE MOMENT
-------------

Method             : SCF
Type of density    : Electron Density
Multiplicity       :   1
Irrep              :   0
Energy             :  -685.8336046557400323 Eh
Relativity type    :
Basis              : AO
                                X                 Y                 Z
Electronic contribution:      1.660016621      -1.202897461       1.398443233
Nuclear contribution   :     -1.087879872       2.043991528      -1.858353919
                        -----------------------------------------
Total Dipole Moment    :      0.572136749       0.841094067      -0.459910686
                        -----------------------------------------
Magnitude (a.u.)       :      1.116376965
Magnitude (Debye)      :      2.837604738

Rotational constants in cm-1:             0.041343             0.029225             0.025891
Rotational constants in MHz :          1239.442424           876.137103           776.200137

                             ****ORCA TERMINATED NORMALLY****
TOTAL RUN TIME: 0 days 0 hours 0 minutes 9 seconds 498 msec
