                         Program Version 6.0.1  -  RELEASE   -
|  1> ! pbe def2-sv(p) def2/J RI DEFGRID1 loosescf d4 GCP(DFT/SV(P)) printgap
|  2> %output
|  3>     printlevel normal
|  4> end
|  5> * xyz 0 1
|  6> C -3.3194691544 0.458138694 0.2538393161
|  7> O -2.1419342978 0.3521764255 -0.535189443
|  8> C -1.0534131592 -0.1976449403 0.0269974543
|  9> O -1.0312798741 -0.6237462924 1.1510046405
| 10> C 0.0940293643 -0.1666070638 -0.9618524761
| 11> C 1.0785384064 -1.3234273395 -0.7658415461
| 12> C 1.8918730852 -1.1833083258 0.5182280908
| 13> C 2.6121475723 0.1597570165 0.557965061
| 14> C 1.5984729346 1.2945639076 0.455612149
| 15> C 0.8181108665 1.1857099146 -0.8499707912
| 16> H -4.1197644899 -0.0833255608 -0.2506225287
| 17> H -3.5832277995 1.5125309552 0.3407635546
| 18> H -3.1420343996 0.0316122009 1.2429944982
| 19> H -0.3569283398 -0.2324239353 -1.9577093022
| 20> H 0.5308587504 -2.2679199766 -0.7523535549
| 21> H 1.7562017181 -1.3389351737 -1.6235136457
| 22> H 1.2224503802 -1.2593487125 1.3744490998
| 23> H 2.6151147436 -1.9994226586 0.5772694385
| 24> H 3.178858444 0.2492513187 1.4865104096
| 25> H 3.3178227803 0.2255369136 -0.2745476832
| 26> H 0.910760596 1.2372620163 1.3011624624
| 27> H 2.1065273549 2.2606067904 0.4970112074
| 28> H 0.0902080368 1.9960750543 -0.9293555253
| 29> H 1.5105772137 1.2721058577 -1.6908395725
| 30> *
| 31>
| 32>                          ****END OF INPUT****

CARTESIAN COORDINATES (ANGSTROEM)
---------------------------------
  C     -3.319469    0.458139    0.253839
  O     -2.141934    0.352176   -0.535189
  C     -1.053413   -0.197645    0.026997
  O     -1.031280   -0.623746    1.151005
  C      0.094029   -0.166607   -0.961852
  C      1.078538   -1.323427   -0.765842
  C      1.891873   -1.183308    0.518228
  C      2.612148    0.159757    0.557965
  C      1.598473    1.294564    0.455612
  C      0.818111    1.185710   -0.849971
  H     -4.119764   -0.083326   -0.250623
  H     -3.583228    1.512531    0.340764
  H     -3.142034    0.031612    1.242994
  H     -0.356928   -0.232424   -1.957709
  H      0.530859   -2.267920   -0.752354
  H      1.756202   -1.338935   -1.623514
  H      1.222450   -1.259349    1.374449
  H      2.615115   -1.999423    0.577269
  H      3.178858    0.249251    1.486510
  H      3.317823    0.225537   -0.274548
  H      0.910761    1.237262    1.301162
  H      2.106527    2.260607    0.497011
  H      0.090208    1.996075   -0.929356
  H      1.510577    1.272106   -1.690840

 Total Charge           Charge          ....    0
 Multiplicity           Mult            ....    1
 Number of Electrons    NEL             ....   78
 Basis Dimension        Dim             ....  168

ORBITAL ENERGIES
----------------

  NO   OCC          E(Eh)            E(eV)
   0   2.0000     -18.796577      -511.4809
   1   2.0000     -18.740983      -509.9681
   2   2.0000     -10.006690      -272.2959
   3   2.0000      -9.936903      -270.3969
   4   2.0000      -9.903407      -269.4854
   5   2.0000      -9.890886      -269.1447
   6   2.0000      -9.884785      -268.9787
   7   2.0000      -9.879717      -268.8408
   8   2.0000      -9.877193      -268.7721
   9   2.0000      -9.871497      -268.6171
  10   2.0000      -1.005425       -27.3590
  11   2.0000      -0.918576       -24.9957
  12   2.0000      -0.759482       -20.6666
  13   2.0000      -0.691119       -18.8063
  14   2.0000      -0.665708       -18.1148
  15   2.0000      -0.648635       -17.6503
  16   2.0000      -0.557053       -15.1582
  17   2.0000      -0.540683       -14.7127
  18   2.0000      -0.511504       -13.9187
  19   2.0000      -0.493500       -13.4288
  20   2.0000      -0.442061       -12.0291
  21   2.0000      -0.433437       -11.7944
  22   2.0000      -0.428873       -11.6702
  23   2.0000      -0.411463       -11.1965
  24   2.0000      -0.396393       -10.7864
  25   2.0000      -0.389898       -10.6097
  26   2.0000      -0.377704       -10.2778
  27   2.0000      -0.356700        -9.7063
  28   2.0000      -0.334554        -9.1037
  29   2.0000      -0.333254        -9.0683
  30   2.0000      -0.327022        -8.8987
  31   2.0000      -0.325661        -8.8617
  32   2.0000      -0.299538        -8.1509
  33   2.0000      -0.295535        -8.0419
  34   2.0000      -0.283555        -7.7159
  35   2.0000      -0.262735        -7.1494
  36   2.0000      -0.258690        -7.0393
  37   2.0000      -0.253691        -6.9033
  38   2.0000      -0.220559        -6.0017
  39   0.0000      -0.021184        -0.5765
  40   0.0000       0.033027         0.8987
  41   0.0000       0.053999         1.4694
  42   0.0000       0.065008         1.7690
  43   0.0000       0.077860         2.1187

MULLIKEN ATOMIC CHARGES
-----------------------
   0 C :   -0.136662
   1 O :   -0.246982
   2 C :    0.131593
   3 O :   -0.181001
   4 C :   -0.160870
   5 C :   -0.109589
   6 C :   -0.159944
   7 C :   -0.156875
   8 C :   -0.156220
   9 C :   -0.132241
  10 H :    0.120801
  11 H :    0.119755
  12 H :    0.132679
  13 H :    0.083243
  14 H :    0.087102
  15 H :    0.076318
  16 H :    0.107238
  17 H :    0.079173
  18 H :    0.084044
  19 H :    0.068135
  20 H :    0.092630
  21 H :    0.084306
  22 H :    0.089734
  23 H :    0.083631
Sum of atomic charges:   -0.0000000

LOEWDIN ATOMIC CHARGES
----------------------
   0 C :   -0.215186
   1 O :   -0.077994
   2 C :    0.052007
   3 O :   -0.149612
   4 C :   -0.165783
   5 C :   -0.209810
   6 C :   -0.235622
   7 C :   -0.224774
   8 C :   -0.230969
   9 C :   -0.206718
  10 H :    0.118981
  11 H :    0.118382
  12 H :    0.122849
  13 H :    0.130554
  14 H :    0.119859
  15 H :    0.116570
  16 H :    0.125469
  17 H :    0.114232
  18 H :    0.116203
  19 H :    0.109413
  20 H :    0.119984
  21 H :    0.116256
  22 H :    0.117594
  23 H :    0.118116

  Mayer bond orders larger than 0.100000
B(  0-C ,  1-O ) :   0.9460 B(  0-C , 10-H ) :   0.9605 B(  0-C , 11-H ) :   0.9593
B(  0-C , 12-H ) :   0.9269 B(  1-O ,  2-C ) :   1.2028 B(  2-C ,  3-O ) :   2.0529
B(  2-C ,  4-C ) :   0.9403 B(  4-C ,  5-C ) :   1.0785 B(  4-C ,  9-C ) :   1.0768
B(  4-C , 13-H ) :   0.8744 B(  5-C ,  6-C ) :   1.1274 B(  5-C , 14-H ) :   0.9187
B(  5-C , 15-H ) :   0.9125 B(  6-C ,  7-C ) :   1.1323 B(  6-C , 16-H ) :   0.9032
B(  6-C , 17-H ) :   0.9158 B(  7-C ,  8-C ) :   1.1310 B(  7-C , 18-H ) :   0.9192
B(  7-C , 19-H ) :   0.9171 B(  8-C ,  9-C ) :   1.1349 B(  8-C , 20-H ) :   0.9060
B(  8-C , 21-H ) :   0.9176 B(  9-C , 22-H ) :   0.9141 B(  9-C , 23-H ) :   0.9122

Dispersion correction           -0.023586706
FINAL SINGLE POINT ENERGY      -462.705514608131

DIPOLE MOMENT
-------------

Method             : SCF
Type of density    : Electron Density
Multiplicity       :   1
Irrep              :   0
Energy             :  -462.7938572737765526 Eh
Relativity type    :
Basis              : AO
                                X                 Y                 Z
Electronic contribution:     -5.916805682      -1.181752383       0.177479774
Nuclear contribution   :      5.617066734       1.500423247      -0.608916554
                        -----------------------------------------
Total Dipole Moment    :     -0.299738948       0.318670863      -0.431436780
                        -----------------------------------------
Magnitude (a.u.)       :      0.614436531
Magnitude (Debye)      :      1.561773547

Rotational constants in cm-1:             0.086835             0.029264             0.027576
Rotational constants in MHz :          2603.239341           877.316701           826.701757

                             ****ORCA TERMINATED NORMALLY****
TOTAL RUN TIME: 0 days 0 hours 0 minutes 8 seconds 485 msec
