                         Program Version 6.0.1  -  RELEASE   -
|  1> ! pbe def2-sv(p) def2/J RI DEFGRID1 loosescf d4 GCP(DFT/SV(P)) printgap
|  2> %output
|  3>     printlevel normal
|  4> end
|  5> * xyz 0 1
|  6> C -2.060885692 -1.4080802041 -0.0979562232
|  7> C -0.9931069734 -0.5344009246 0.5907016998
|  8> H -1.4104870216 -0.1755380463 1.5442862274
|  9> C -0.6690263113 0.7054995767 -0.2578853881
| 10> H -0.5911218108 0.4371048436 -1.3262710032
| 11> C 0.6807703581 1.2587618867 0.2068653394
| 12> H 0.6404702414 1.4048542627 1.298231562
| 13> C 1.7757204835 0.2318668886 -0.1190184708
| 14> H 2.0382597554 0.3504603059 -1.1839946736
| 15> C 1.2690114817 -1.2151432537 0.098356707
| 16> H 2.0457910683 -1.7725271752 0.6318902223
| 17> O 0.1561003419 -1.2774171086 0.951728292
| 18> O 1.0689709957 -1.8945713905 -1.0998457831
| 19> O 2.9112715051 0.4208409881 0.6790812161
| 20> O 0.9998667083 2.4657854795 -0.4361915093
| 21> O -1.6478075896 1.703752237 -0.1037990586
| 22> O -3.2670341358 -0.6897091936 -0.248908234
| 23> H -2.2021210853 -2.3257433682 0.4820995246
| 24> H -1.7465916634 -1.6857243194 -1.106792407
| 25> H 0.4888919555 -1.3918044541 -1.6843312093
| 26> H 3.1859586216 1.3420247257 0.5892848995
| 27> H 0.2063055928 3.0160542335 -0.4164900547
| 28> H -2.4975891401 1.3160443609 -0.3604466781
| 29> H -3.7013520499 -0.6242738894 0.6092384202
| 30> *
| 31>
| 32>                          ****END OF INPUT****

CARTESIAN COORDINATES (ANGSTROEM)
---------------------------------
  C     -2.060886   -1.408080   -0.097956
  C     -0.993107   -0.534401    0.590702
  H     -1.410487   -0.175538    1.544286
  C     -0.669026    0.705500   -0.257885
  H     -0.591122    0.437105   -1.326271
  C      0.680770    1.258762    0.206865
  H      0.640470    1.404854    1.298232
  C      1.775720    0.231867   -0.119018
  H      2.038260    0.350460   -1.183995
  C      1.269011   -1.215143    0.098357
  H      2.045791   -1.772527    0.631890
  O      0.156100   -1.277417    0.951728
  O      1.068971   -1.894571   -1.099846
  O      2.911272    0.420841    0.679081
  O      0.999867    2.465785   -0.436192
  O     -1.647808    1.703752   -0.103799
  O     -3.267034   -0.689709   -0.248908
  H     -2.202121   -2.325743    0.482100
  H     -1.746592   -1.685724   -1.106792
  H      0.488892   -1.391804   -1.684331
  H      3.185959    1.342025    0.589285
  H      0.206306    3.016054   -0.416490
  H     -2.497589    1.316044   -0.360447
  H     -3.701352   -0.624274    0.609238

 Total Charge           Charge          ....    0
 Multiplicity           Mult            ....    1
 Number of Electrons    NEL             ....   96
 Basis Dimension        Dim             ....  192

ORBITAL ENERGIES
----------------

  NO   OCC          E(Eh)            E(eV)
   0   2.0000     -18.784677      -511.1571
   1   2.0000     -18.770544      -510.7725
   2   2.0000     -18.763680      -510.5857
   3   2.0000     -18.761484      -510.5259
   4   2.0000     -18.753180      -510.3000
   5   2.0000     -18.750333      -510.2225
   6   2.0000      -9.984330      -271.6874
   7   2.0000      -9.954664      -270.8802
   8   2.0000      -9.952693      -270.8265
   9   2.0000      -9.949100      -270.7288
  10   2.0000      -9.943120      -270.5660
  11   2.0000      -9.941657      -270.5262
  12   2.0000      -0.983633       -26.7660
  13   2.0000      -0.959376       -26.1060
  14   2.0000      -0.948964       -25.8226
  15   2.0000      -0.933915       -25.4131
  16   2.0000      -0.918910       -25.0048
  17   2.0000      -0.915947       -24.9242
  18   2.0000      -0.712886       -19.3986
  19   2.0000      -0.695355       -18.9216
  20   2.0000      -0.630107       -17.1461
  21   2.0000      -0.589773       -16.0485
  22   2.0000      -0.573149       -15.5962
  23   2.0000      -0.533122       -14.5070
  24   2.0000      -0.509200       -13.8560
  25   2.0000      -0.497177       -13.5289
  26   2.0000      -0.479663       -13.0523
  27   2.0000      -0.473941       -12.8966
  28   2.0000      -0.454776       -12.3751
  29   2.0000      -0.429167       -11.6782
  30   2.0000      -0.415811       -11.3148
  31   2.0000      -0.401378       -10.9220
  32   2.0000      -0.397780       -10.8241
  33   2.0000      -0.391443       -10.6517
  34   2.0000      -0.372382       -10.1330
  35   2.0000      -0.354458        -9.6453
  36   2.0000      -0.330656        -8.9976
  37   2.0000      -0.318270        -8.6606
  38   2.0000      -0.315253        -8.5785
  39   2.0000      -0.303268        -8.2523
  40   2.0000      -0.291022        -7.9191
  41   2.0000      -0.288039        -7.8379
  42   2.0000      -0.255955        -6.9649
  43   2.0000      -0.251745        -6.8503
  44   2.0000      -0.235433        -6.4065
  45   2.0000      -0.226394        -6.1605
  46   2.0000      -0.220674        -6.0049
  47   2.0000      -0.209668        -5.7054
  48   0.0000      -0.000968        -0.0263
  49   0.0000       0.006222         0.1693
  50   0.0000       0.028363         0.7718
  51   0.0000       0.045391         1.2351
  52   0.0000       0.056187         1.5289

MULLIKEN ATOMIC CHARGES
-----------------------
   0 C :    0.066631
   1 C :    0.015571
   2 H :    0.064381
   3 C :   -0.031659
   4 H :    0.038108
   5 C :    0.087271
   6 H :    0.058734
   7 C :    0.044990
   8 H :    0.064573
   9 C :    0.197084
  10 H :    0.085848
  11 O :   -0.295925
  12 O :   -0.398420
  13 O :   -0.411890
  14 O :   -0.422911
  15 O :   -0.427474
  16 O :   -0.436578
  17 H :    0.101844
  18 H :    0.073668
  19 H :    0.299033
  20 H :    0.308696
  21 H :    0.309525
  22 H :    0.299573
  23 H :    0.309327
Sum of atomic charges:   -0.0000000

LOEWDIN ATOMIC CHARGES
----------------------
   0 C :   -0.131672
   1 C :   -0.085363
   2 H :    0.112273
   3 C :   -0.083467
   4 H :    0.091687
   5 C :   -0.075077
   6 H :    0.108689
   7 C :   -0.079155
   8 H :    0.104601
   9 C :    0.003164
  10 H :    0.122749
  11 O :   -0.134823
  12 O :   -0.300156
  13 O :   -0.313272
  14 O :   -0.324243
  15 O :   -0.325630
  16 O :   -0.324373
  17 H :    0.110337
  18 H :    0.109081
  19 H :    0.269942
  20 H :    0.290581
  21 H :    0.287334
  22 H :    0.275149
  23 H :    0.291645

  Mayer bond orders larger than 0.100000
B(  0-C ,  1-C ) :   1.0398 B(  0-C , 16-O ) :   1.0234 B(  0-C , 17-H ) :   0.9227
B(  0-C , 18-H ) :   0.9111 B(  1-C ,  2-H ) :   0.8814 B(  1-C ,  3-C ) :   0.9603
B(  1-C , 11-O ) :   0.9998 B(  3-C ,  4-H ) :   0.8808 B(  3-C ,  5-C ) :   1.0315
B(  3-C , 15-O ) :   1.0794 B(  5-C ,  6-H ) :   0.8538 B(  5-C ,  7-C ) :   1.0371
B(  5-C , 14-O ) :   1.0935 B(  7-C ,  8-H ) :   0.8890 B(  7-C ,  9-C ) :   0.9897
B(  7-C , 13-O ) :   1.0875 B(  9-C , 10-H ) :   0.8915 B(  9-C , 11-O ) :   1.0588
B(  9-C , 12-O ) :   1.0927 B( 12-O , 19-H ) :   0.8319 B( 13-O , 20-H ) :   0.8442
B( 14-O , 21-H ) :   0.8318 B( 15-O , 22-H ) :   0.8087 B( 16-O , 22-H ) :   0.1038
B( 16-O , 23-H ) :   0.8436

Dispersion correction           -0.024643403
FINAL SINGLE POINT ENERGY      -685.691915927379

DIPOLE MOMENT
-------------

Method             : SCF
Type of density    : Electron Density
Multiplicity       :   1
Irrep              :   0
Energy             :  -685.8236112924899999 Eh
Relativity type    :
Basis              : AO
                                X                 Y                 Z
Electronic contribution:      2.117193128       0.516170795       0.900362583
Nuclear contribution   :     -3.321206609      -0.091529788      -0.870029115
                        -----------------------------------------
Total Dipole Moment    :     -1.204013481       0.424641007       0.030333468
                        -----------------------------------------
Magnitude (a.u.)       :      1.277062476
Magnitude (Debye)      :      3.246034846

Rotational constants in cm-1:             0.043480             0.026232             0.018661
Rotational constants in MHz :          1303.494731           786.420498           559.438181

                             ****ORCA TERMINATED NORMALLY****
TOTAL RUN TIME: 0 days 0 hours 0 minutes 9 seconds 25 msec
