                         Program Version 6.0.0  -   RELEASE  -
|  1> ! r2SCAN-3c DEF2-TZVP FREQ
|  2> * xyzfile 0 1 censo.xyz
|  3>
|  4>                          ****END OF INPUT****

CARTESIAN COORDINATES (ANGSTROEM)
---------------------------------
  C      1.311393   -0.711649    0.000250
  C      1.311464    0.711542    0.000528
  C      0.051702    1.244526   -0.000108
  S     -1.155752    0.000072    0.000260
  C      0.051575   -1.244504   -0.000659
  H      2.210182   -1.317372    0.000503
  H      2.210313    1.317178    0.001083
  H     -0.239699    2.286722    0.000130
  H     -0.239934   -2.286672   -0.000879

 Total Charge           Charge          ....    0
 Multiplicity           Mult            ....    1
 Number of Electrons    NEL             ....   44
 Basis Dimension        Dim             ....  185

ORBITAL ENERGIES
----------------

  NO   OCC          E(Eh)            E(eV)
   0   2.0000     -88.565112     -2409.9792
   1   2.0000     -10.062663      -273.8190
   2   2.0000     -10.062651      -273.8187
   3   2.0000     -10.040445      -273.2144
   4   2.0000     -10.040120      -273.2056
   5   2.0000      -7.877259      -214.3511
   6   2.0000      -5.822319      -158.4334
   7   2.0000      -5.817511      -158.3025
   8   2.0000      -5.816631      -158.2786
   9   2.0000      -0.842079       -22.9141
  10   2.0000      -0.698991       -19.0205
  11   2.0000      -0.692428       -18.8419
  12   2.0000      -0.534201       -14.5363
  13   2.0000      -0.522251       -14.2112
  14   2.0000      -0.483308       -13.1515
  15   2.0000      -0.383100       -10.4247
  16   2.0000      -0.364776        -9.9260
  17   2.0000      -0.359420        -9.7803
  18   2.0000      -0.355492        -9.6734
  19   2.0000      -0.317652        -8.6437
  20   2.0000      -0.234875        -6.3913
  21   2.0000      -0.221389        -6.0243
  22   0.0000      -0.043421        -1.1815
  23   0.0000       0.004005         0.1090
  24   0.0000       0.025195         0.6856
  25   0.0000       0.066089         1.7984
  26   0.0000       0.074555         2.0287

MULLIKEN ATOMIC CHARGES
-----------------------
   0 C :   -0.157381
   1 C :   -0.157377
   2 C :   -0.150784
   3 S :    0.083716
   4 C :   -0.150783
   5 H :    0.118200
   6 H :    0.118200
   7 H :    0.148104
   8 H :    0.148104
Sum of atomic charges:   -0.0000000

LOEWDIN ATOMIC CHARGES
----------------------
   0 C :   -0.212753
   1 C :   -0.212754
   2 C :   -0.400996
   3 S :    0.689345
   4 C :   -0.400995
   5 H :    0.141851
   6 H :    0.141852
   7 H :    0.127225
   8 H :    0.127225

  Mayer bond orders larger than 0.100000
B(  0-C ,  1-C ) :   1.2464 B(  0-C ,  3-S ) :   0.1048 B(  0-C ,  4-C ) :   1.6206
B(  0-C ,  5-H ) :   0.9592 B(  1-C ,  2-C ) :   1.6206 B(  1-C ,  3-S ) :   0.1048
B(  1-C ,  6-H ) :   0.9592 B(  2-C ,  3-S ) :   1.2496 B(  2-C ,  7-H ) :   0.9390
B(  3-S ,  4-C ) :   1.2496 B(  4-C ,  8-H ) :   0.9390

Dispersion correction           -0.002498123
FINAL SINGLE POINT ENERGY      -552.963612432898

DIPOLE MOMENT
-------------

Method             : SCF
Type of density    : Electron Density
Multiplicity       :   1
Irrep              :   0
Energy             :  -552.9652679315527166 Eh
Relativity type    :
Basis              : AO
                                X                 Y                 Z
Electronic contribution:     -3.524392331       0.000177043       0.000079154
Nuclear contribution   :      3.745617021      -0.000187607       0.000365404
                        -----------------------------------------
Total Dipole Moment    :      0.221224690      -0.000010565       0.000444559
                        -----------------------------------------
Magnitude (a.u.)       :      0.221225137
Magnitude (Debye)      :      0.562309612

VIBRATIONAL FREQUENCIES
-----------------------

Scaling factor for frequencies =  1.000000000  (already applied!)

     0:       0.00 cm**-1
     1:       0.00 cm**-1
     2:       0.00 cm**-1
     3:       0.00 cm**-1
     4:       0.00 cm**-1
     5:       0.00 cm**-1
     6:     466.23 cm**-1
     7:     579.79 cm**-1
     8:     609.78 cm**-1
     9:     685.37 cm**-1
    10:     721.15 cm**-1
    11:     734.09 cm**-1
    12:     820.57 cm**-1
    13:     868.46 cm**-1
    14:     872.09 cm**-1
    15:     905.19 cm**-1
    16:    1053.31 cm**-1
    17:    1101.15 cm**-1
    18:    1103.74 cm**-1
    19:    1268.23 cm**-1
    20:    1382.90 cm**-1
    21:    1436.57 cm**-1
    22:    1536.38 cm**-1
    23:    3185.10 cm**-1
    24:    3197.95 cm**-1
    25:    3225.63 cm**-1
    26:    3228.27 cm**-1

IR SPECTRUM
-----------

 Mode   freq       eps      Int      T**2         TX        TY        TZ
       cm**-1   L/(mol*cm) km/mol    a.u.
----------------------------------------------------------------------------
  6:    466.23   0.000135    0.68  0.000090  ( 0.000100 -0.000037  0.009506)
  7:    579.79   0.000000    0.00  0.000000  ( 0.000016  0.000188  0.000003)
  8:    609.78   0.000050    0.25  0.000025  ( 0.005036 -0.000000 -0.000045)
  9:    685.37   0.000000    0.00  0.000000  ( 0.000020  0.000123 -0.000009)
 10:    721.15   0.025952  131.15  0.011230  ( 0.000034  0.000047  0.105972)
 11:    734.09   0.000098    0.50  0.000042  ( 0.000001  0.006467  0.000102)
 12:    820.57   0.004007   20.25  0.001524  (-0.039039  0.000002 -0.000013)
 13:    868.46   0.000029    0.14  0.000010  (-0.000034  0.000044  0.003200)
 14:    872.09   0.000145    0.73  0.000052  (-0.000000 -0.007210 -0.000001)
 15:    905.19   0.000000    0.00  0.000000  ( 0.000018  0.000008  0.000003)
 16:   1053.31   0.000788    3.98  0.000234  (-0.015283  0.000001 -0.000002)
 17:   1101.15   0.000679    3.43  0.000192  ( 0.013870 -0.000002 -0.000004)
 18:   1103.74   0.000967    4.89  0.000274  ( 0.000001  0.016539  0.000003)
 19:   1268.23   0.002199   11.12  0.000541  (-0.000001 -0.023264 -0.000005)
 20:   1382.90   0.000098    0.49  0.000022  (-0.004693  0.000000  0.000011)
 21:   1436.57   0.001264    6.39  0.000275  (-0.016571  0.000001 -0.000010)
 22:   1536.38   0.000013    0.06  0.000003  (-0.000000 -0.001597 -0.000001)
 23:   3185.10   0.000684    3.46  0.000067  ( 0.000001  0.008189  0.000001)
 24:   3197.95   0.000694    3.51  0.000068  (-0.008231  0.000001 -0.000005)
 25:   3225.63   0.000000    0.00  0.000000  (-0.000006  0.000072 -0.000000)
 26:   3228.27   0.000302    1.52  0.000029  (-0.005399  0.000000  0.000005)

--------------------------
THERMOCHEMISTRY AT 298.15K
--------------------------

Temperature         ...   298.15 K
Pressure            ...     1.00 atm
Total Mass          ...    84.14 AMU
Quasi RRHO          ...     True
Cut-Off Frequency   ...     1.00 cm^-1

Throughout the following assumptions are being made:
  (1) The electronic state is orbitally nondegenerate
  (2) There are no thermally accessible electronically excited states
  (3) Hindered rotations indicated by low frequency modes are not
      treated as such but are treated as vibrations and this may
      cause some error
  (4) All equations used are the standard statistical mechanics
      equations for an ideal gas
  (5) All vibrations are strictly harmonic

freq.     466.23  E(vib)   ...       0.16
freq.     579.79  E(vib)   ...       0.11
freq.     609.78  E(vib)   ...       0.10
freq.     685.37  E(vib)   ...       0.07
freq.     721.15  E(vib)   ...       0.07
freq.     734.09  E(vib)   ...       0.06
freq.     820.57  E(vib)   ...       0.05
freq.     868.46  E(vib)   ...       0.04
freq.     872.09  E(vib)   ...       0.04
freq.     905.19  E(vib)   ...       0.03
freq.    1053.31  E(vib)   ...       0.02
freq.    1101.15  E(vib)   ...       0.02
freq.    1103.74  E(vib)   ...       0.02
freq.    1268.23  E(vib)   ...       0.01
freq.    1382.90  E(vib)   ...       0.01
freq.    1436.57  E(vib)   ...       0.00
freq.    1536.38  E(vib)   ...       0.00
freq.    3185.10  E(vib)   ...       0.00
freq.    3197.95  E(vib)   ...       0.00
freq.    3225.63  E(vib)   ...       0.00
freq.    3228.27  E(vib)   ...       0.00

------------
INNER ENERGY
------------

The inner energy is: U= E(el) + E(ZPE) + E(vib) + E(rot) + E(trans)
    E(el)   - is the total energy from the electronic structure calculation
              = E(kin-el) + E(nuc-el) + E(el-el) + E(nuc-nuc)
    E(ZPE)  - the the zero temperature vibrational energy from the frequency calculation
    E(vib)  - the the finite temperature correction to E(ZPE) due to population
              of excited vibrational states
    E(rot)  - is the rotational thermal energy
    E(trans)- is the translational thermal energy

Summary of contributions to the inner energy U:
Electronic energy                ...   -552.96361243 Eh
Zero point energy                ...      0.06602570 Eh      41.43 kcal/mol
Thermal vibrational correction   ...      0.00125639 Eh       0.79 kcal/mol
Thermal rotational correction    ...      0.00141627 Eh       0.89 kcal/mol
Thermal translational correction ...      0.00141627 Eh       0.89 kcal/mol
-----------------------------------------------------------------------
Total thermal energy                   -552.89349780 Eh

Summary of corrections to the electronic energy:
(perhaps to be used in another calculation)
Total thermal correction                  0.00408893 Eh       2.57 kcal/mol
Non-thermal (ZPE) correction              0.06602570 Eh      41.43 kcal/mol
-----------------------------------------------------------------------
Total correction                          0.07011463 Eh      44.00 kcal/mol

--------
ENTHALPY
--------

The enthalpy is H = U + kB*T
                kB is Boltzmann's constant
Total thermal energy              ...   -552.89349780 Eh
Thermal Enthalpy correction       ...      0.00094421 Eh       0.59 kcal/mol
-----------------------------------------------------------------------
Total Enthalpy                    ...   -552.89255359 Eh

Note: Rotational entropy computed according to Herzberg
Infrared and Raman Spectra, Chapter V,1, Van Nostrand Reinhold, 1945
Point Group:  Cs, Symmetry Number:   1
Rotational constants in cm-1:     0.265854     0.179021     0.106981

Vibrational entropy computed according to the QRRHO of S. Grimme
Chem.Eur.J. 2012 18 9955 using a reference frequency of 100.0 cm-1

-------
ENTROPY
-------

The entropy contributions are T*S = T*(S(el)+S(vib)+S(rot)+S(trans))
     S(el)   - electronic entropy
     S(vib)  - vibrational entropy
     S(rot)  - rotational entropy
     S(trans)- translational entropy
The entropies will be listed as multiplied by the temperature to get
units of energy

Electronic entropy                ...      0.00000000 Eh      0.00 kcal/mol
Vibrational entropy               ...      0.00164486 Eh      1.03 kcal/mol
Rotational entropy                ...      0.01200352 Eh      7.53 kcal/mol
Translational entropy             ...      0.01862660 Eh     11.69 kcal/mol
-----------------------------------------------------------------------
Final entropy term                ...      0.03227499 Eh     20.25 kcal/mol

In case the symmetry of your molecule has not been determined correctly
or in case you have a reason to use a different symmetry number we print
out the resulting rotational entropy values for sn=1,12:

 non-linear molecules -----------------------------------
|  sn= 1 | S(rot)=       0.01200352 Eh      7.53 kcal/mol|
|  sn= 2 | S(rot)=       0.01134907 Eh      7.12 kcal/mol|
|  sn= 3 | S(rot)=       0.01096624 Eh      6.88 kcal/mol|
|  sn= 4 | S(rot)=       0.01069461 Eh      6.71 kcal/mol|
|  sn= 5 | S(rot)=       0.01048392 Eh      6.58 kcal/mol|
|  sn= 6 | S(rot)=       0.01031178 Eh      6.47 kcal/mol|
|  sn= 7 | S(rot)=       0.01016623 Eh      6.38 kcal/mol|
|  sn= 8 | S(rot)=       0.01004016 Eh      6.30 kcal/mol|
|  sn= 9 | S(rot)=       0.00992895 Eh      6.23 kcal/mol|
|  sn=10 | S(rot)=       0.00982947 Eh      6.17 kcal/mol|
|  sn=11 | S(rot)=       0.00973948 Eh      6.11 kcal/mol|
|  sn=12 | S(rot)=       0.00965732 Eh      6.06 kcal/mol|
 linear molecules ---------------------------------------
|  Dinfh | S(rot)=       0.00743614 Eh      4.67 kcal/mol|
|  Cinfv | S(rot)=       0.00809060 Eh      5.08 kcal/mol|
 --------------------------------------------------------

-------------------
GIBBS FREE ENERGY
-------------------

The Gibbs free energy is G = H - T*S

Total enthalpy                    ...   -552.89255359 Eh
Total entropy correction          ...     -0.03227499 Eh    -20.25 kcal/mol
-----------------------------------------------------------------------
Final Gibbs free energy         ...   -552.92482858 Eh

For completeness - the Gibbs free energy minus the electronic energy
G-E(el)                           ...      0.03878385 Eh     24.34 kcal/mol

                             ****ORCA TERMINATED NORMALLY****
TOTAL RUN TIME: 0 days 0 hours 3 minutes 14 seconds 302 msec
