                         Program Version 6.0.0  -   RELEASE  -
|  1> ! r2SCAN-3c DEF2-TZVP FREQ
|  2> * xyzfile 0 1 vacuum_censo.xyz
|  3>
|  4>                          ****END OF INPUT****

CARTESIAN COORDINATES (ANGSTROEM)
---------------------------------
  C      1.312048   -0.710571    0.000091
  C      1.311983    0.710689   -0.000037
  C      0.051256    1.241027   -0.000052
  S     -1.154090   -0.000050   -0.000025
  C      0.051370   -1.241028    0.000104
  H      2.210656   -1.315386    0.000134
  H      2.210538    1.315582   -0.000068
  H     -0.239788    2.282233   -0.000121
  H     -0.239582   -2.282263    0.000162

 Total Charge           Charge          ....    0
 Multiplicity           Mult            ....    1
 Number of Electrons    NEL             ....   44
 Basis Dimension        Dim             ....  185

ORBITAL ENERGIES
----------------

  NO   OCC          E(Eh)            E(eV)
   0   2.0000     -88.565076     -2409.9782
   1   2.0000     -10.061959      -273.7998
   2   2.0000     -10.061947      -273.7995
   3   2.0000     -10.039937      -273.2006
   4   2.0000     -10.039607      -273.1916
   5   2.0000      -7.877341      -214.3534
   6   2.0000      -5.822379      -158.4350
   7   2.0000      -5.817558      -158.3038
   8   2.0000      -5.816751      -158.2819
   9   2.0000      -0.843056       -22.9407
  10   2.0000      -0.699708       -19.0400
  11   2.0000      -0.692318       -18.8389
  12   2.0000      -0.534061       -14.5325
  13   2.0000      -0.522510       -14.2182
  14   2.0000      -0.483770       -13.1641
  15   2.0000      -0.382634       -10.4120
  16   2.0000      -0.364406        -9.9160
  17   2.0000      -0.359801        -9.7907
  18   2.0000      -0.356058        -9.6888
  19   2.0000      -0.318310        -8.6617
  20   2.0000      -0.235128        -6.3982
  21   2.0000      -0.221154        -6.0179
  22   0.0000      -0.043052        -1.1715
  23   0.0000       0.004427         0.1205
  24   0.0000       0.025423         0.6918
  25   0.0000       0.066553         1.8110
  26   0.0000       0.075702         2.0600

MULLIKEN ATOMIC CHARGES
-----------------------
   0 C :   -0.157318
   1 C :   -0.157322
   2 C :   -0.151122
   3 S :    0.085460
   4 C :   -0.151128
   5 H :    0.118102
   6 H :    0.118103
   7 H :    0.147612
   8 H :    0.147612
Sum of atomic charges:    0.0000000

LOEWDIN ATOMIC CHARGES
----------------------
   0 C :   -0.212542
   1 C :   -0.212542
   2 C :   -0.402891
   3 S :    0.693429
   4 C :   -0.402885
   5 H :    0.141759
   6 H :    0.141759
   7 H :    0.126957
   8 H :    0.126957

  Mayer bond orders larger than 0.100000
B(  0-C ,  1-C ) :   1.2492 B(  0-C ,  3-S ) :   0.1051 B(  0-C ,  4-C ) :   1.6181
B(  0-C ,  5-H ) :   0.9595 B(  1-C ,  2-C ) :   1.6181 B(  1-C ,  3-S ) :   0.1051
B(  1-C ,  6-H ) :   0.9595 B(  2-C ,  3-S ) :   1.2525 B(  2-C ,  7-H ) :   0.9393
B(  3-S ,  4-C ) :   1.2525 B(  4-C ,  8-H ) :   0.9393

Dispersion correction           -0.002499099
FINAL SINGLE POINT ENERGY      -552.963743329413

DIPOLE MOMENT
-------------

Method             : SCF
Type of density    : Electron Density
Multiplicity       :   1
Irrep              :   0
Energy             :  -552.9654191269673902 Eh
Relativity type    :
Basis              : AO
                                X                 Y                 Z
Electronic contribution:     -3.526586929      -0.000148009      -0.000086154
Nuclear contribution   :      3.743789713       0.000158530       0.000076182
                        -----------------------------------------
Total Dipole Moment    :      0.217202784       0.000010521      -0.000009971
                        -----------------------------------------
Magnitude (a.u.)       :      0.217202784
Magnitude (Debye)      :      0.552085602

VIBRATIONAL FREQUENCIES
-----------------------

Scaling factor for frequencies =  1.000000000  (already applied!)

     0:       0.00 cm**-1
     1:       0.00 cm**-1
     2:       0.00 cm**-1
     3:       0.00 cm**-1
     4:       0.00 cm**-1
     5:       0.00 cm**-1
     6:     465.78 cm**-1
     7:     579.23 cm**-1
     8:     611.62 cm**-1
     9:     680.37 cm**-1
    10:     717.08 cm**-1
    11:     739.63 cm**-1
    12:     827.54 cm**-1
    13:     865.35 cm**-1
    14:     874.41 cm**-1
    15:     903.16 cm**-1
    16:    1056.58 cm**-1
    17:    1100.10 cm**-1
    18:    1102.99 cm**-1
    19:    1268.21 cm**-1
    20:    1384.25 cm**-1
    21:    1438.94 cm**-1
    22:    1537.06 cm**-1
    23:    3191.29 cm**-1
    24:    3204.39 cm**-1
    25:    3234.71 cm**-1
    26:    3237.18 cm**-1

IR SPECTRUM
-----------

 Mode   freq       eps      Int      T**2         TX        TY        TZ
       cm**-1   L/(mol*cm) km/mol    a.u.
----------------------------------------------------------------------------
  6:    465.78   0.000136    0.69  0.000091  (-0.000002  0.000006  0.009547)
  7:    579.23   0.000000    0.00  0.000000  (-0.000019 -0.000004  0.000001)
  8:    611.62   0.000037    0.19  0.000019  (-0.004352 -0.000000 -0.000002)
  9:    680.37   0.000000    0.00  0.000000  (-0.000008 -0.000002 -0.000016)
 10:    717.08   0.025943  131.11  0.011290  ( 0.000001 -0.000011  0.106254)
 11:    739.63   0.000108    0.55  0.000046  ( 0.000002  0.006754 -0.000013)
 12:    827.54   0.004019   20.31  0.001515  (-0.038928 -0.000001 -0.000000)
 13:    865.35   0.000024    0.12  0.000009  ( 0.000001  0.000012 -0.002954)
 14:    874.41   0.000163    0.82  0.000058  ( 0.000003 -0.007627  0.000002)
 15:    903.16   0.000000    0.00  0.000000  ( 0.000008  0.000001 -0.000000)
 16:   1056.58   0.000784    3.96  0.000232  (-0.015217 -0.000001 -0.000000)
 17:   1100.10   0.000674    3.41  0.000191  (-0.013829 -0.000006 -0.000000)
 18:   1102.99   0.000990    5.01  0.000280  ( 0.000005 -0.016740  0.000002)
 19:   1268.21   0.002155   10.89  0.000530  (-0.000001  0.023025 -0.000001)
 20:   1384.25   0.000112    0.57  0.000025  (-0.005023  0.000000 -0.000001)
 21:   1438.94   0.001218    6.15  0.000264  ( 0.016252  0.000000 -0.000000)
 22:   1537.06   0.000012    0.06  0.000002  ( 0.000000  0.001539 -0.000000)
 23:   3191.29   0.000673    3.40  0.000066  ( 0.000003 -0.008111  0.000001)
 24:   3204.39   0.000706    3.57  0.000069  (-0.008289 -0.000003 -0.000000)
 25:   3234.71   0.000000    0.00  0.000000  ( 0.000027 -0.000199  0.000000)
 26:   3237.18   0.000267    1.35  0.000026  ( 0.005074  0.000001  0.000000)

--------------------------
THERMOCHEMISTRY AT 298.15K
--------------------------

Temperature         ...   298.15 K
Pressure            ...     1.00 atm
Total Mass          ...    84.14 AMU
Quasi RRHO          ...     True
Cut-Off Frequency   ...     1.00 cm^-1

Throughout the following assumptions are being made:
  (1) The electronic state is orbitally nondegenerate
  (2) There are no thermally accessible electronically excited states
  (3) Hindered rotations indicated by low frequency modes are not
      treated as such but are treated as vibrations and this may
      cause some error
  (4) All equations used are the standard statistical mechanics
      equations for an ideal gas
  (5) All vibrations are strictly harmonic

freq.     465.78  E(vib)   ...       0.16
freq.     579.23  E(vib)   ...       0.11
freq.     611.62  E(vib)   ...       0.10
freq.     680.37  E(vib)   ...       0.08
freq.     717.08  E(vib)   ...       0.07
freq.     739.63  E(vib)   ...       0.06
freq.     827.54  E(vib)   ...       0.04
freq.     865.35  E(vib)   ...       0.04
freq.     874.41  E(vib)   ...       0.04
freq.     903.16  E(vib)   ...       0.03
freq.    1056.58  E(vib)   ...       0.02
freq.    1100.10  E(vib)   ...       0.02
freq.    1102.99  E(vib)   ...       0.02
freq.    1268.21  E(vib)   ...       0.01
freq.    1384.25  E(vib)   ...       0.00
freq.    1438.94  E(vib)   ...       0.00
freq.    1537.06  E(vib)   ...       0.00
freq.    3191.29  E(vib)   ...       0.00
freq.    3204.39  E(vib)   ...       0.00
freq.    3234.71  E(vib)   ...       0.00
freq.    3237.18  E(vib)   ...       0.00

------------
INNER ENERGY
------------

The inner energy is: U= E(el) + E(ZPE) + E(vib) + E(rot) + E(trans)
    E(el)   - is the total energy from the electronic structure calculation
              = E(kin-el) + E(nuc-el) + E(el-el) + E(nuc-nuc)
    E(ZPE)  - the the zero temperature vibrational energy from the frequency calculation
    E(vib)  - the the finite temperature correction to E(ZPE) due to population
              of excited vibrational states
    E(rot)  - is the rotational thermal energy
    E(trans)- is the translational thermal energy

Summary of contributions to the inner energy U:
Electronic energy                ...   -552.96374333 Eh
Zero point energy                ...      0.06611217 Eh      41.49 kcal/mol
Thermal vibrational correction   ...      0.00125621 Eh       0.79 kcal/mol
Thermal rotational correction    ...      0.00141627 Eh       0.89 kcal/mol
Thermal translational correction ...      0.00141627 Eh       0.89 kcal/mol
-----------------------------------------------------------------------
Total thermal energy                   -552.89354241 Eh

Summary of corrections to the electronic energy:
(perhaps to be used in another calculation)
Total thermal correction                  0.00408875 Eh       2.57 kcal/mol
Non-thermal (ZPE) correction              0.06611217 Eh      41.49 kcal/mol
-----------------------------------------------------------------------
Total correction                          0.07020092 Eh      44.05 kcal/mol

--------
ENTHALPY
--------

The enthalpy is H = U + kB*T
                kB is Boltzmann's constant
Total thermal energy              ...   -552.89354241 Eh
Thermal Enthalpy correction       ...      0.00094421 Eh       0.59 kcal/mol
-----------------------------------------------------------------------
Total Enthalpy                    ...   -552.89259820 Eh

Note: Rotational entropy computed according to Herzberg
Infrared and Raman Spectra, Chapter V,1, Van Nostrand Reinhold, 1945
Point Group:  C2v, Symmetry Number:   2
Rotational constants in cm-1:     0.267082     0.179180     0.107237

Vibrational entropy computed according to the QRRHO of S. Grimme
Chem.Eur.J. 2012 18 9955 using a reference frequency of 100.0 cm-1

-------
ENTROPY
-------

The entropy contributions are T*S = T*(S(el)+S(vib)+S(rot)+S(trans))
     S(el)   - electronic entropy
     S(vib)  - vibrational entropy
     S(rot)  - rotational entropy
     S(trans)- translational entropy
The entropies will be listed as multiplied by the temperature to get
units of energy

Electronic entropy                ...      0.00000000 Eh      0.00 kcal/mol
Vibrational entropy               ...      0.00164485 Eh      1.03 kcal/mol
Rotational entropy                ...      0.01134535 Eh      7.12 kcal/mol
Translational entropy             ...      0.01862660 Eh     11.69 kcal/mol
-----------------------------------------------------------------------
Final entropy term                ...      0.03161680 Eh     19.84 kcal/mol

In case the symmetry of your molecule has not been determined correctly
or in case you have a reason to use a different symmetry number we print
out the resulting rotational entropy values for sn=1,12:

 non-linear molecules -----------------------------------
|  sn= 1 | S(rot)=       0.01199980 Eh      7.53 kcal/mol|
|  sn= 2 | S(rot)=       0.01134535 Eh      7.12 kcal/mol|
|  sn= 3 | S(rot)=       0.01096251 Eh      6.88 kcal/mol|
|  sn= 4 | S(rot)=       0.01069089 Eh      6.71 kcal/mol|
|  sn= 5 | S(rot)=       0.01048020 Eh      6.58 kcal/mol|
|  sn= 6 | S(rot)=       0.01030806 Eh      6.47 kcal/mol|
|  sn= 7 | S(rot)=       0.01016251 Eh      6.38 kcal/mol|
|  sn= 8 | S(rot)=       0.01003643 Eh      6.30 kcal/mol|
|  sn= 9 | S(rot)=       0.00992523 Eh      6.23 kcal/mol|
|  sn=10 | S(rot)=       0.00982575 Eh      6.17 kcal/mol|
|  sn=11 | S(rot)=       0.00973576 Eh      6.11 kcal/mol|
|  sn=12 | S(rot)=       0.00965360 Eh      6.06 kcal/mol|
 linear molecules ---------------------------------------
|  Dinfh | S(rot)=       0.00743389 Eh      4.66 kcal/mol|
|  Cinfv | S(rot)=       0.00808835 Eh      5.08 kcal/mol|
 --------------------------------------------------------

-------------------
GIBBS FREE ENERGY
-------------------

The Gibbs free energy is G = H - T*S

Total enthalpy                    ...   -552.89259820 Eh
Total entropy correction          ...     -0.03161680 Eh    -19.84 kcal/mol
-----------------------------------------------------------------------
Final Gibbs free energy         ...   -552.92421501 Eh

For completeness - the Gibbs free energy minus the electronic energy
G-E(el)                           ...      0.03952832 Eh     24.80 kcal/mol

                             ****ORCA TERMINATED NORMALLY****
TOTAL RUN TIME: 0 days 0 hours 3 minutes 12 seconds 650 msec
