                         Program Version 6.0.1  -  RELEASE   -
|  1> ! r2scan-3c def2/J RI DEFGRID2 scfconv6 printgap
|  2> %output
|  3>     printlevel normal
|  4> end
|  5> * xyz 0 1
|  6> C -2.6703761668 0.9512460234 -0.4845424201
|  7> C -1.7631779716 -0.1458652776 0.0219365487
|  8> O -2.1733670057 -1.0424214193 0.7147519488
|  9> C -0.3037497275 -0.0213575401 -0.3805230691
| 10> C 0.4830428716 -1.2726905396 0.0093787736
| 11> C 1.9499655874 -1.1359977297 -0.3817637518
| 12> C 2.5656095118 0.0926126543 0.2800801359
| 13> C 1.789042461 1.3465129509 -0.1080750465
| 14> C 0.3192689401 1.2158557848 0.282462978
| 15> H -3.6886866988 0.5782718578 -0.5599877028
| 16> H -2.6660773481 1.7637011367 0.2408650052
| 17> H -2.3400787451 1.3387102501 -1.4435276734
| 18> H -0.2616967157 0.110216969 -1.4680602196
| 19> H 0.398293576 -1.4202571289 1.0875302022
| 20> H 0.0408376553 -2.1446148809 -0.4762084077
| 21> H 2.4955684362 -2.0330574844 -0.083310443
| 22> H 2.0311371739 -1.0418919263 -1.4677025239
| 23> H 2.5378705585 -0.028811439 1.3651710451
| 24> H 3.6106304494 0.1953929012 -0.01935239
| 25> H 2.2203517186 2.2206518436 0.3843918613
| 26> H 1.8643178816 1.4995188032 -1.1874857618
| 27> H 0.2386421791 1.1146520571 1.3672016573
| 28> H -0.2195800895 2.1167777417 -0.0162193714
| 29> *
| 30>
| 31>                          ****END OF INPUT****

CARTESIAN COORDINATES (ANGSTROEM)
---------------------------------
  C     -2.670376    0.951246   -0.484542
  C     -1.763178   -0.145865    0.021937
  O     -2.173367   -1.042421    0.714752
  C     -0.303750   -0.021358   -0.380523
  C      0.483043   -1.272691    0.009379
  C      1.949966   -1.135998   -0.381764
  C      2.565610    0.092613    0.280080
  C      1.789042    1.346513   -0.108075
  C      0.319269    1.215856    0.282463
  H     -3.688687    0.578272   -0.559988
  H     -2.666077    1.763701    0.240865
  H     -2.340079    1.338710   -1.443528
  H     -0.261697    0.110217   -1.468060
  H      0.398294   -1.420257    1.087530
  H      0.040838   -2.144615   -0.476208
  H      2.495568   -2.033057   -0.083310
  H      2.031137   -1.041892   -1.467703
  H      2.537871   -0.028811    1.365171
  H      3.610630    0.195393   -0.019352
  H      2.220352    2.220652    0.384392
  H      1.864318    1.499519   -1.187486
  H      0.238642    1.114652    1.367202
  H     -0.219580    2.116778   -0.016219

 Total Charge           Charge          ....    0
 Multiplicity           Mult            ....    1
 Number of Electrons    NEL             ....   70
 Basis Dimension        Dim             ....  246

ORBITAL ENERGIES
----------------

  NO   OCC          E(Eh)            E(eV)
   0   2.0000     -18.936225      -515.2809
   1   2.0000     -10.114305      -275.2242
   2   2.0000     -10.040733      -273.2222
   3   2.0000     -10.038179      -273.1527
   4   2.0000     -10.031862      -272.9809
   5   2.0000     -10.030762      -272.9509
   6   2.0000     -10.025519      -272.8082
   7   2.0000     -10.024203      -272.7724
   8   2.0000     -10.021362      -272.6951
   9   2.0000      -1.007512       -27.4158
  10   2.0000      -0.809680       -22.0325
  11   2.0000      -0.738266       -20.0892
  12   2.0000      -0.713271       -19.4091
  13   2.0000      -0.697015       -18.9667
  14   2.0000      -0.596094       -16.2205
  15   2.0000      -0.579061       -15.7571
  16   2.0000      -0.531304       -14.4575
  17   2.0000      -0.497176       -13.5288
  18   2.0000      -0.452403       -12.3105
  19   2.0000      -0.434774       -11.8308
  20   2.0000      -0.421042       -11.4571
  21   2.0000      -0.416237       -11.3264
  22   2.0000      -0.403072       -10.9681
  23   2.0000      -0.395400       -10.7594
  24   2.0000      -0.384451       -10.4614
  25   2.0000      -0.356119        -9.6905
  26   2.0000      -0.351214        -9.5570
  27   2.0000      -0.340595        -9.2681
  28   2.0000      -0.328464        -8.9380
  29   2.0000      -0.317153        -8.6302
  30   2.0000      -0.315322        -8.5803
  31   2.0000      -0.295198        -8.0327
  32   2.0000      -0.282559        -7.6888
  33   2.0000      -0.271216        -7.3802
  34   2.0000      -0.209678        -5.7056
  35   0.0000      -0.041848        -1.1388
  36   0.0000       0.070583         1.9206
  37   0.0000       0.094706         2.5771
  38   0.0000       0.103189         2.8079
  39   0.0000       0.112277         3.0552

MULLIKEN ATOMIC CHARGES
-----------------------
   0 C :   -0.555318
   1 C :    0.290783
   2 O :   -0.343918
   3 C :   -0.051085
   4 C :   -0.368766
   5 C :   -0.275786
   6 C :   -0.283204
   7 C :   -0.286777
   8 C :   -0.328615
   9 H :    0.177682
  10 H :    0.181514
  11 H :    0.160184
  12 H :    0.164144
  13 H :    0.172942
  14 H :    0.156242
  15 H :    0.148753
  16 H :    0.142298
  17 H :    0.143853
  18 H :    0.147806
  19 H :    0.148498
  20 H :    0.144429
  21 H :    0.164866
  22 H :    0.149473
Sum of atomic charges:    0.0000000

LOEWDIN ATOMIC CHARGES
----------------------
   0 C :   -0.392248
   1 C :    0.224764
   2 O :   -0.458213
   3 C :   -0.205278
   4 C :   -0.277815
   5 C :   -0.301971
   6 C :   -0.303661
   7 C :   -0.299724
   8 C :   -0.274393
   9 H :    0.176429
  10 H :    0.180176
  11 H :    0.162866
  12 H :    0.173817
  13 H :    0.170577
  14 H :    0.166761
  15 H :    0.156479
  16 H :    0.154046
  17 H :    0.155671
  18 H :    0.155330
  19 H :    0.156565
  20 H :    0.155391
  21 H :    0.164223
  22 H :    0.160207

  Mayer bond orders larger than 0.100000
B(  0-C ,  1-C ) :   0.8924 B(  0-C ,  9-H ) :   0.9726 B(  0-C , 10-H ) :   0.9467
B(  0-C , 11-H ) :   0.9721 B(  1-C ,  2-O ) :   1.9578 B(  1-C ,  3-C ) :   0.8549
B(  2-O ,  3-C ) :  -0.1143 B(  3-C ,  4-C ) :   0.9254 B(  3-C ,  8-C ) :   0.8741
B(  3-C , 12-H ) :   0.9349 B(  4-C ,  5-C ) :   0.8794 B(  4-C , 13-H ) :   1.0085
B(  4-C , 14-H ) :   0.9446 B(  5-C ,  6-C ) :   0.9167 B(  5-C , 15-H ) :   0.9481
B(  5-C , 16-H ) :   0.9943 B(  6-C ,  7-C ) :   0.9199 B(  6-C , 17-H ) :   0.9919
B(  6-C , 18-H ) :   0.9481 B(  7-C ,  8-C ) :   0.9052 B(  7-C , 19-H ) :   0.9433
B(  7-C , 20-H ) :   0.9931 B(  8-C , 21-H ) :   0.9957 B(  8-C , 22-H ) :   0.9374

Dispersion correction           -0.007299971
FINAL SINGLE POINT ENERGY      -388.408607599608

DIPOLE MOMENT
-------------

Method             : SCF
Type of density    : Electron Density
Multiplicity       :   1
Irrep              :   0
Energy             :  -388.4110411512497762 Eh
Relativity type    :
Basis              : AO
                                X                 Y                 Z
Electronic contribution:     -5.340508578      -3.153832651       1.557316470
Nuclear contribution   :      5.842121411       3.989815095      -2.125317105
                        -----------------------------------------
Total Dipole Moment    :      0.501612833       0.835982444      -0.568000635
                        -----------------------------------------
Magnitude (a.u.)       :      1.128320345
Magnitude (Debye)      :      2.867962397

Rotational constants in cm-1:             0.103162             0.036542             0.029756
Rotational constants in MHz :          3092.717334          1095.494354           892.061995

                             ****ORCA TERMINATED NORMALLY****
TOTAL RUN TIME: 0 days 0 hours 0 minutes 30 seconds 219 msec
