                         Program Version 6.0.1  -  RELEASE   -
|  1> ! r2scan-3c def2/J RI DEFGRID2 scfconv6 printgap
|  2> %output
|  3>     printlevel normal
|  4> end
|  5> * xyz 0 1
|  6> C -2.1115641839 -0.9189307934 -0.3272041216
|  7> C -1.1992774564 -0.3433733221 0.7741639656
|  8> H -1.7810959187 -0.3842990386 1.7039418065
|  9> C -0.7769098505 1.1266931289 0.587573878
| 10> H -1.6443182399 1.7076512847 0.2565666332
| 11> C 0.3655869438 1.3115761757 -0.4319416946
| 12> H 0.7854397135 2.3128993999 -0.248498338
| 13> C 1.501490735 0.2969198483 -0.1446882437
| 14> H 2.11533815 0.2019571859 -1.0521874538
| 15> C 1.030721287 -1.1187827879 0.2278670174
| 16> H 1.8385461816 -1.5700999456 0.8233753451
| 17> O -0.0785260237 -1.1782669603 1.067925488
| 18> O 0.8373775353 -1.8653754289 -0.9536606265
| 19> O 2.2782256681 0.721374956 0.9569599235
| 20> O -0.0387478932 1.3255472871 -1.7640090963
| 21> O -0.3981460325 1.6656004379 1.8303180163
| 22> O -1.5974802383 -0.883686851 -1.6336191706
| 23> H -3.0342735185 -0.3346890783 -0.3480537761
| 24> H -2.357016291 -1.9523650733 -0.0458535146
| 25> H 0.7260832016 -2.7945044539 -0.7171786328
| 26> H 2.6549199505 1.5871118648 0.759463819
| 27> H -0.6768525739 0.601336198 -1.9235355953
| 28> H 0.3852734309 1.1856044535 2.1369698336
| 29> H -0.7484533046 -1.3705502664 -1.6423841677
| 30> *
| 31>
| 32>                          ****END OF INPUT****

CARTESIAN COORDINATES (ANGSTROEM)
---------------------------------
  C     -2.111564   -0.918931   -0.327204
  C     -1.199277   -0.343373    0.774164
  H     -1.781096   -0.384299    1.703942
  C     -0.776910    1.126693    0.587574
  H     -1.644318    1.707651    0.256567
  C      0.365587    1.311576   -0.431942
  H      0.785440    2.312899   -0.248498
  C      1.501491    0.296920   -0.144688
  H      2.115338    0.201957   -1.052187
  C      1.030721   -1.118783    0.227867
  H      1.838546   -1.570100    0.823375
  O     -0.078526   -1.178267    1.067925
  O      0.837378   -1.865375   -0.953661
  O      2.278226    0.721375    0.956960
  O     -0.038748    1.325547   -1.764009
  O     -0.398146    1.665600    1.830318
  O     -1.597480   -0.883687   -1.633619
  H     -3.034274   -0.334689   -0.348054
  H     -2.357016   -1.952365   -0.045854
  H      0.726083   -2.794504   -0.717179
  H      2.654920    1.587112    0.759464
  H     -0.676853    0.601336   -1.923536
  H      0.385273    1.185604    2.136970
  H     -0.748453   -1.370550   -1.642384

 Total Charge           Charge          ....    0
 Multiplicity           Mult            ....    1
 Number of Electrons    NEL             ....   96
 Basis Dimension        Dim             ....  318

ORBITAL ENERGIES
----------------

  NO   OCC          E(Eh)            E(eV)
   0   2.0000     -18.996298      -516.9155
   1   2.0000     -18.982117      -516.5297
   2   2.0000     -18.975597      -516.3522
   3   2.0000     -18.963799      -516.0312
   4   2.0000     -18.948917      -515.6263
   5   2.0000     -18.937095      -515.3045
   6   2.0000     -10.153906      -276.3018
   7   2.0000     -10.098998      -274.8077
   8   2.0000     -10.097293      -274.7613
   9   2.0000     -10.091871      -274.6138
  10   2.0000     -10.090809      -274.5849
  11   2.0000     -10.088701      -274.5275
  12   2.0000      -1.067583       -29.0504
  13   2.0000      -1.017195       -27.6793
  14   2.0000      -1.007335       -27.4110
  15   2.0000      -1.003052       -27.2944
  16   2.0000      -0.989343       -26.9214
  17   2.0000      -0.978482       -26.6259
  18   2.0000      -0.752427       -20.4746
  19   2.0000      -0.739782       -20.1305
  20   2.0000      -0.670276       -18.2391
  21   2.0000      -0.627635       -17.0788
  22   2.0000      -0.620618       -16.8879
  23   2.0000      -0.561169       -15.2702
  24   2.0000      -0.519289       -14.1306
  25   2.0000      -0.516797       -14.0628
  26   2.0000      -0.498724       -13.5710
  27   2.0000      -0.492352       -13.3976
  28   2.0000      -0.465061       -12.6549
  29   2.0000      -0.454627       -12.3710
  30   2.0000      -0.448889       -12.2149
  31   2.0000      -0.437809       -11.9134
  32   2.0000      -0.414955       -11.2915
  33   2.0000      -0.399628       -10.8744
  34   2.0000      -0.388989       -10.5849
  35   2.0000      -0.381249       -10.3743
  36   2.0000      -0.364427        -9.9166
  37   2.0000      -0.350620        -9.5409
  38   2.0000      -0.332950        -9.0600
  39   2.0000      -0.329002        -8.9526
  40   2.0000      -0.305001        -8.2995
  41   2.0000      -0.302886        -8.2419
  42   2.0000      -0.291660        -7.9365
  43   2.0000      -0.275657        -7.5010
  44   2.0000      -0.269704        -7.3390
  45   2.0000      -0.250829        -6.8254
  46   2.0000      -0.237767        -6.4700
  47   2.0000      -0.216488        -5.8909
  48   0.0000       0.018503         0.5035
  49   0.0000       0.046221         1.2578
  50   0.0000       0.058344         1.5876
  51   0.0000       0.075725         2.0606
  52   0.0000       0.080033         2.1778

MULLIKEN ATOMIC CHARGES
-----------------------
   0 C :   -0.238215
   1 C :    0.042914
   2 H :    0.166449
   3 C :   -0.105837
   4 H :    0.170239
   5 C :   -0.095380
   6 H :    0.157619
   7 C :    0.055507
   8 H :    0.153132
   9 C :   -0.104885
  10 H :    0.145256
  11 O :   -0.187454
  12 O :   -0.422607
  13 O :   -0.437291
  14 O :   -0.406972
  15 O :   -0.415205
  16 O :   -0.470854
  17 H :    0.150505
  18 H :    0.147952
  19 H :    0.318897
  20 H :    0.302904
  21 H :    0.368771
  22 H :    0.331528
  23 H :    0.373027
Sum of atomic charges:    0.0000000

LOEWDIN ATOMIC CHARGES
----------------------
   0 C :    0.024359
   1 C :    0.098792
   2 H :    0.210226
   3 C :    0.108757
   4 H :    0.200356
   5 C :    0.105984
   6 H :    0.199172
   7 C :    0.128585
   8 H :    0.195994
   9 C :    0.301683
  10 H :    0.214604
  11 O :   -0.649454
  12 O :   -0.531028
  13 O :   -0.595347
  14 O :   -0.579780
  15 O :   -0.574309
  16 O :   -0.616662
  17 H :    0.187025
  18 H :    0.172169
  19 H :    0.278197
  20 H :    0.274886
  21 H :    0.282776
  22 H :    0.280500
  23 H :    0.282515

  Mayer bond orders larger than 0.100000
B(  0-C ,  1-C ) :   0.8969 B(  0-C , 16-O ) :   0.9816 B(  0-C , 17-H ) :   0.9755
B(  0-C , 18-H ) :   0.9799 B(  1-C ,  2-H ) :   0.9447 B(  1-C ,  3-C ) :   0.8333
B(  1-C , 11-O ) :   0.9013 B(  3-C ,  4-H ) :   0.9764 B(  3-C ,  5-C ) :   0.8087
B(  3-C , 15-O ) :   0.9715 B(  5-C ,  6-H ) :   1.0225 B(  5-C ,  7-C ) :   0.8268
B(  5-C , 14-O ) :   1.0321 B(  7-C ,  8-H ) :   0.9383 B(  7-C ,  9-C ) :   0.9760
B(  7-C , 13-O ) :   0.9113 B(  9-C , 10-H ) :   0.9601 B(  9-C , 11-O ) :   1.0179
B(  9-C , 12-O ) :   0.9155 B( 12-O , 19-H ) :   0.8869 B( 13-O , 20-H ) :   0.8937
B( 14-O , 21-H ) :   0.7814 B( 15-O , 22-H ) :   0.8455 B( 16-O , 23-H ) :   0.7904

Dispersion correction           -0.008854843
FINAL SINGLE POINT ENERGY      -687.075045769818

DIPOLE MOMENT
-------------

Method             : SCF
Type of density    : Electron Density
Multiplicity       :   1
Irrep              :   0
Energy             :  -687.0887814135294320 Eh
Relativity type    :
Basis              : AO
                                X                 Y                 Z
Electronic contribution:      1.981983511      -0.166739876       0.554817524
Nuclear contribution   :     -1.614192706      -0.763050763      -0.286336693
                        -----------------------------------------
Total Dipole Moment    :      0.367790804      -0.929790639       0.268480831
                        -----------------------------------------
Magnitude (a.u.)       :      1.035308005
Magnitude (Debye)      :      2.631543816

Rotational constants in cm-1:             0.039132             0.031341             0.027974
Rotational constants in MHz :          1173.153067           939.593367           838.650710

                             ****ORCA TERMINATED NORMALLY****
TOTAL RUN TIME: 0 days 0 hours 0 minutes 46 seconds 303 msec
