                         Program Version 6.0.1  -  RELEASE   -
|  1> ! r2scan-3c def2/J RI DEFGRID2 scfconv6 printgap
|  2> %output
|  3>     printlevel normal
|  4> end
|  5> * xyz 0 1
|  6> C -2.8217818439 0.7801553172 -0.6647571032
|  7> O -2.0936953792 0.5234809936 0.5131908741
|  8> C -0.8268395931 0.0068518418 0.2835193202
|  9> C -0.6327159993 -1.3681638905 0.260096938
| 10> C 0.6438035854 -1.8663379961 0.0645826261
| 11> C 1.715094337 -1.014258465 -0.1131565934
| 12> C 1.5278288982 0.3687385124 -0.0906327202
| 13> C 0.2414560426 0.8699115722 0.1024096669
| 14> N 2.6034166707 1.2255803189 -0.1904511579
| 15> H -2.9798273153 -0.1370408656 -1.2449701633
| 16> H -2.3111684314 1.5137152038 -1.3003091758
| 17> H -3.7840379877 1.1807335139 -0.3499766618
| 18> H -1.4739794802 -2.0278060524 0.4042213053
| 19> H 0.8041735642 -2.9343824987 0.0470451197
| 20> H 2.7085918543 -1.4109759029 -0.2651117433
| 21> H 0.0736270428 1.9370436931 0.1284499583
| 22> H 2.4001637197 2.1796158733 -0.4385616071
| 23> H 3.443430492 0.8499788371 -0.5983702583
| 24> *
| 25>
| 26>                          ****END OF INPUT****

CARTESIAN COORDINATES (ANGSTROEM)
---------------------------------
  C     -2.821782    0.780155   -0.664757
  O     -2.093695    0.523481    0.513191
  C     -0.826840    0.006852    0.283519
  C     -0.632716   -1.368164    0.260097
  C      0.643804   -1.866338    0.064583
  C      1.715094   -1.014258   -0.113157
  C      1.527829    0.368739   -0.090633
  C      0.241456    0.869912    0.102410
  N      2.603417    1.225580   -0.190451
  H     -2.979827   -0.137041   -1.244970
  H     -2.311168    1.513715   -1.300309
  H     -3.784038    1.180734   -0.349977
  H     -1.473979   -2.027806    0.404221
  H      0.804174   -2.934382    0.047045
  H      2.708592   -1.410976   -0.265112
  H      0.073627    1.937044    0.128450
  H      2.400164    2.179616   -0.438562
  H      3.443430    0.849979   -0.598370

 Total Charge           Charge          ....    0
 Multiplicity           Mult            ....    1
 Number of Electrons    NEL             ....   66
 Basis Dimension        Dim             ....  226

ORBITAL ENERGIES
----------------

  NO   OCC          E(Eh)            E(eV)
   0   2.0000     -18.961363      -515.9649
   1   2.0000     -14.170338      -385.5945
   2   2.0000     -10.082698      -274.3641
   3   2.0000     -10.075257      -274.1617
   4   2.0000     -10.074128      -274.1310
   5   2.0000     -10.031592      -272.9735
   6   2.0000     -10.023540      -272.7544
   7   2.0000     -10.023200      -272.7451
   8   2.0000     -10.017335      -272.5855
   9   2.0000      -1.011442       -27.5227
  10   2.0000      -0.892874       -24.2963
  11   2.0000      -0.803561       -21.8660
  12   2.0000      -0.714573       -19.4445
  13   2.0000      -0.697011       -18.9666
  14   2.0000      -0.649632       -17.6774
  15   2.0000      -0.578579       -15.7439
  16   2.0000      -0.563696       -15.3390
  17   2.0000      -0.498833       -13.5739
  18   2.0000      -0.489255       -13.3133
  19   2.0000      -0.453546       -12.3416
  20   2.0000      -0.432883       -11.7794
  21   2.0000      -0.424024       -11.5383
  22   2.0000      -0.422699       -11.5022
  23   2.0000      -0.392892       -10.6911
  24   2.0000      -0.386494       -10.5170
  25   2.0000      -0.357274        -9.7219
  26   2.0000      -0.340883        -9.2759
  27   2.0000      -0.324482        -8.8296
  28   2.0000      -0.307955        -8.3799
  29   2.0000      -0.280984        -7.6460
  30   2.0000      -0.233435        -6.3521
  31   2.0000      -0.222411        -6.0521
  32   2.0000      -0.184789        -5.0284
  33   0.0000      -0.024443        -0.6651
  34   0.0000      -0.007638        -0.2078
  35   0.0000       0.068735         1.8704
  36   0.0000       0.080535         2.1915
  37   0.0000       0.090681         2.4676

MULLIKEN ATOMIC CHARGES
-----------------------
   0 C :   -0.272083
   1 O :   -0.233890
   2 C :    0.233994
   3 C :   -0.312132
   4 C :   -0.098737
   5 C :   -0.385462
   6 C :    0.558974
   7 C :   -0.487806
   8 N :   -0.527433
   9 H :    0.139876
  10 H :    0.135458
  11 H :    0.145765
  12 H :    0.158915
  13 H :    0.147266
  14 H :    0.137684
  15 H :    0.150101
  16 H :    0.254816
  17 H :    0.254692
Sum of atomic charges:   -0.0000000

LOEWDIN ATOMIC CHARGES
----------------------
   0 C :   -0.051385
   1 O :   -0.710057
   2 C :    0.176761
   3 C :   -0.172911
   4 C :   -0.146755
   5 C :   -0.175663
   6 C :    0.130931
   7 C :   -0.133917
   8 N :   -0.604385
   9 H :    0.160150
  10 H :    0.158356
  11 H :    0.173736
  12 H :    0.177090
  13 H :    0.167860
  14 H :    0.167732
  15 H :    0.179432
  16 H :    0.251396
  17 H :    0.251629

  Mayer bond orders larger than 0.100000
B(  0-C ,  1-O ) :   0.8719 B(  0-C ,  9-H ) :   0.9657 B(  0-C , 10-H ) :   0.9659
B(  0-C , 11-H ) :   0.9737 B(  1-O ,  2-C ) :   0.9720 B(  2-C ,  3-C ) :   1.4452
B(  2-C ,  7-C ) :   1.4836 B(  3-C ,  4-C ) :   1.3753 B(  3-C , 12-H ) :   0.9393
B(  4-C ,  5-C ) :   1.4387 B(  4-C , 13-H ) :   0.9452 B(  5-C ,  6-C ) :   1.3308
B(  5-C , 14-H ) :   0.9468 B(  6-C ,  7-C ) :   1.2588 B(  6-C ,  8-N ) :   0.9345
B(  7-C , 15-H ) :   0.9178 B(  8-N , 16-H ) :   0.9275 B(  8-N , 17-H ) :   0.9280

Dispersion correction           -0.005743672
FINAL SINGLE POINT ENERGY      -402.024817458939

DIPOLE MOMENT
-------------

Method             : SCF
Type of density    : Electron Density
Multiplicity       :   1
Irrep              :   0
Energy             :  -402.0287970354259528 Eh
Relativity type    :
Basis              : AO
                                X                 Y                 Z
Electronic contribution:      1.578807668      -0.743750065       2.530971197
Nuclear contribution   :     -1.066576024       1.094202139      -3.387347387
                        -----------------------------------------
Total Dipole Moment    :      0.512231644       0.350452075      -0.856376189
                        -----------------------------------------
Magnitude (a.u.)       :      1.057628523
Magnitude (Debye)      :      2.688278063

Rotational constants in cm-1:             0.103319             0.040538             0.030709
Rotational constants in MHz :          3097.434594          1215.301980           920.645903

                             ****ORCA TERMINATED NORMALLY****
TOTAL RUN TIME: 0 days 0 hours 0 minutes 47 seconds 185 msec
