                         Program Version 6.0.0  -   RELEASE  -
|  1> ! r2SCAN-3c DEF2-TZVP FREQ
|  2> * xyzfile 0 1 censo.xyz
|  3>
|  4>                          ****END OF INPUT****

CARTESIAN COORDINATES (ANGSTROEM)
---------------------------------
  C     -2.598208    0.565849    0.077180
  C     -1.237748   -0.076446    0.044643
  C     -1.135171   -1.470936    0.100591
  C      0.106637   -2.098857    0.070952
  C      1.268508   -1.342904   -0.010476
  C      1.168353    0.045289   -0.061759
  C     -0.070318    0.704335   -0.042048
  C     -0.098523    2.206288   -0.110680
  O      2.356159    0.745996   -0.133865
  H     -2.786825    1.158675   -0.824116
  H     -3.377179   -0.196009    0.147873
  H     -2.706628    1.240792    0.932868
  H     -2.041331   -2.065571    0.167177
  H      0.171025   -3.181849    0.112266
  H      2.248898   -1.807992   -0.032347
  H      0.425224    2.575366   -1.002209
  H     -1.116543    2.591962   -0.151719
  H      0.388173    2.657615    0.764138
  H      2.173868    1.695421   -0.140907

 Total Charge           Charge          ....    0
 Multiplicity           Mult            ....    1
 Number of Electrons    NEL             ....   66
 Basis Dimension        Dim             ....  339

ORBITAL ENERGIES
----------------

  NO   OCC          E(Eh)            E(eV)
   0   2.0000     -18.982079      -516.5286
   1   2.0000     -10.089963      -274.5618
   2   2.0000     -10.044728      -273.3309
   3   2.0000     -10.044113      -273.3142
   4   2.0000     -10.041501      -273.2431
   5   2.0000     -10.031701      -272.9765
   6   2.0000     -10.030746      -272.9505
   7   2.0000     -10.024297      -272.7750
   8   2.0000     -10.023144      -272.7436
   9   2.0000      -1.019058       -27.7300
  10   2.0000      -0.820260       -22.3204
  11   2.0000      -0.747735       -20.3469
  12   2.0000      -0.724458       -19.7135
  13   2.0000      -0.670866       -18.2552
  14   2.0000      -0.643930       -17.5222
  15   2.0000      -0.570441       -15.5225
  16   2.0000      -0.547371       -14.8947
  17   2.0000      -0.503727       -13.7071
  18   2.0000      -0.460912       -12.5420
  19   2.0000      -0.433049       -11.7839
  20   2.0000      -0.414240       -11.2720
  21   2.0000      -0.390769       -10.6334
  22   2.0000      -0.383352       -10.4315
  23   2.0000      -0.375445       -10.2164
  24   2.0000      -0.374265       -10.1843
  25   2.0000      -0.370764       -10.0890
  26   2.0000      -0.359180        -9.7738
  27   2.0000      -0.340106        -9.2547
  28   2.0000      -0.318016        -8.6537
  29   2.0000      -0.301626        -8.2077
  30   2.0000      -0.299510        -8.1501
  31   2.0000      -0.220313        -5.9950
  32   2.0000      -0.199967        -5.4414
  33   0.0000      -0.028568        -0.7774
  34   0.0000      -0.013870        -0.3774
  35   0.0000       0.024413         0.6643
  36   0.0000       0.062063         1.6888
  37   0.0000       0.072255         1.9662

MULLIKEN ATOMIC CHARGES
-----------------------
   0 C :   -0.378420
   1 C :    0.158034
   2 C :   -0.214519
   3 C :   -0.063754
   4 C :   -0.268227
   5 C :    0.239502
   6 C :    0.036156
   7 C :   -0.472471
   8 O :   -0.401847
   9 H :    0.119054
  10 H :    0.111788
  11 H :    0.120884
  12 H :    0.090122
  13 H :    0.105349
  14 H :    0.106115
  15 H :    0.129257
  16 H :    0.124595
  17 H :    0.136031
  18 H :    0.322350
Sum of atomic charges:   -0.0000000

LOEWDIN ATOMIC CHARGES
----------------------
   0 C :   -0.256140
   1 C :   -0.148245
   2 C :   -0.140133
   3 C :   -0.143808
   4 C :   -0.129086
   5 C :   -0.232288
   6 C :   -0.145347
   7 C :   -0.266830
   8 O :    0.074986
   9 H :    0.127479
  10 H :    0.127355
  11 H :    0.127751
  12 H :    0.142062
  13 H :    0.143029
  14 H :    0.147720
  15 H :    0.127456
  16 H :    0.132623
  17 H :    0.128558
  18 H :    0.182857

  Mayer bond orders larger than 0.100000
B(  0-C ,  1-C ) :   0.8852 B(  0-C ,  9-H ) :   0.9740 B(  0-C , 10-H ) :   0.9821
B(  0-C , 11-H ) :   0.9744 B(  1-C ,  2-C ) :   1.3807 B(  1-C ,  6-C ) :   1.2781
B(  2-C ,  3-C ) :   1.3947 B(  2-C , 12-H ) :   0.9823 B(  3-C ,  4-C ) :   1.3951
B(  3-C , 13-H ) :   0.9771 B(  4-C ,  5-C ) :   1.3930 B(  4-C , 14-H ) :   0.9826
B(  5-C ,  6-C ) :   1.2691 B(  5-C ,  8-O ) :   1.1198 B(  6-C ,  7-C ) :   0.8468
B(  7-C , 15-H ) :   0.9808 B(  7-C , 16-H ) :   0.9745 B(  7-C , 17-H ) :   0.9779
B(  8-O , 18-H ) :   0.8753

Dispersion correction           -0.006319152
FINAL SINGLE POINT ENERGY      -386.033385131794

DIPOLE MOMENT
-------------

Method             : SCF
Type of density    : Electron Density
Multiplicity       :   1
Irrep              :   0
Energy             :  -386.0345839314521186 Eh
Relativity type    :
Basis              : AO
                                X                 Y                 Z
Electronic contribution:      5.720187590      -3.800809763      -0.072357166
Nuclear contribution   :     -6.164483168       4.466492660       0.076341212
                        -----------------------------------------
Total Dipole Moment    :     -0.444295578       0.665682897       0.003984046
                        -----------------------------------------
Magnitude (a.u.)       :      0.800342522
Magnitude (Debye)      :      2.034309022

VIBRATIONAL FREQUENCIES
-----------------------

Scaling factor for frequencies =  1.000000000  (already applied!)

     0:       0.00 cm**-1
     1:       0.00 cm**-1
     2:       0.00 cm**-1
     3:       0.00 cm**-1
     4:       0.00 cm**-1
     5:       0.00 cm**-1
     6:     115.83 cm**-1
     7:     158.88 cm**-1
     8:     198.79 cm**-1
     9:     235.02 cm**-1
    10:     274.77 cm**-1
    11:     333.36 cm**-1
    12:     345.19 cm**-1
    13:     377.96 cm**-1
    14:     487.04 cm**-1
    15:     504.69 cm**-1
    16:     505.89 cm**-1
    17:     552.46 cm**-1
    18:     575.23 cm**-1
    19:     675.45 cm**-1
    20:     718.39 cm**-1
    21:     776.87 cm**-1
    22:     827.94 cm**-1
    23:     875.24 cm**-1
    24:     903.19 cm**-1
    25:     944.61 cm**-1
    26:    1006.11 cm**-1
    27:    1032.85 cm**-1
    28:    1052.92 cm**-1
    29:    1078.11 cm**-1
    30:    1107.88 cm**-1
    31:    1176.34 cm**-1
    32:    1187.11 cm**-1
    33:    1229.73 cm**-1
    34:    1277.59 cm**-1
    35:    1306.16 cm**-1
    36:    1360.79 cm**-1
    37:    1395.48 cm**-1
    38:    1401.62 cm**-1
    39:    1466.28 cm**-1
    40:    1471.41 cm**-1
    41:    1477.14 cm**-1
    42:    1495.29 cm**-1
    43:    1507.65 cm**-1
    44:    1519.19 cm**-1
    45:    1613.20 cm**-1
    46:    1644.66 cm**-1
    47:    2985.54 cm**-1
    48:    3008.52 cm**-1
    49:    3034.27 cm**-1
    50:    3067.58 cm**-1
    51:    3107.45 cm**-1
    52:    3131.82 cm**-1
    53:    3154.40 cm**-1
    54:    3168.16 cm**-1
    55:    3181.40 cm**-1
    56:    3762.49 cm**-1

IR SPECTRUM
-----------

 Mode   freq       eps      Int      T**2         TX        TY        TZ
       cm**-1   L/(mol*cm) km/mol    a.u.
----------------------------------------------------------------------------
  6:    115.83   0.000091    0.46  0.000245  ( 0.000192  0.000152  0.015655)
  7:    158.88   0.000120    0.61  0.000236  (-0.000078 -0.000772 -0.015353)
  8:    198.79   0.000277    1.40  0.000435  (-0.000439 -0.000858 -0.020823)
  9:    235.02   0.000035    0.18  0.000047  (-0.000113  0.001257  0.006705)
 10:    274.77   0.000012    0.06  0.000013  (-0.001215  0.001292 -0.003183)
 11:    333.36   0.000285    1.44  0.000267  ( 0.015417  0.002699 -0.004678)
 12:    345.19   0.000372    1.88  0.000336  (-0.004303 -0.004124  0.017338)
 13:    377.96   0.017721   89.56  0.014632  ( 0.006982  0.001020  0.120755)
 14:    487.04   0.001919    9.70  0.001230  ( 0.026747  0.022613 -0.001720)
 15:    504.69   0.000419    2.12  0.000259  ( 0.014498  0.006996  0.000139)
 16:    505.89   0.000091    0.46  0.000056  ( 0.006187  0.003493 -0.002377)
 17:    552.46   0.000018    0.09  0.000010  ( 0.002871  0.001239 -0.000674)
 18:    575.23   0.000008    0.04  0.000004  (-0.000657 -0.000168  0.001966)
 19:    675.45   0.001750    8.84  0.000808  ( 0.026366  0.010564 -0.001245)
 20:    718.39   0.001473    7.44  0.000640  ( 0.000609  0.000274  0.025284)
 21:    776.87   0.008367   42.28  0.003361  ( 0.003053  0.002772  0.057826)
 22:    827.94   0.000148    0.75  0.000056  (-0.007327 -0.001368  0.000323)
 23:    875.24   0.000295    1.49  0.000105  (-0.000266 -0.000597 -0.010235)
 24:    903.19   0.001326    6.70  0.000458  ( 0.021382  0.000866 -0.000413)
 25:    944.61   0.000067    0.34  0.000022  (-0.000134 -0.000128 -0.004687)
 26:   1006.11   0.002015   10.18  0.000625  (-0.023951 -0.007049  0.001261)
 27:   1032.85   0.000285    1.44  0.000086  ( 0.000129 -0.001933 -0.009076)
 28:   1052.92   0.000066    0.33  0.000019  (-0.001114  0.000741 -0.004206)
 29:   1078.11   0.001410    7.12  0.000408  (-0.019268 -0.005948  0.001186)
 30:   1107.88   0.008359   42.24  0.002354  ( 0.034967  0.033540 -0.002605)
 31:   1176.34   0.012751   64.44  0.003383  (-0.055406 -0.017519  0.002406)
 32:   1187.11   0.004277   21.61  0.001124  (-0.029022 -0.016726  0.001471)
 33:   1229.73   0.015205   76.84  0.003858  ( 0.058243  0.021433 -0.002607)
 34:   1277.59   0.007764   39.24  0.001896  (-0.032342 -0.029077  0.002229)
 35:   1306.16   0.001309    6.61  0.000313  (-0.008610  0.015439 -0.000455)
 36:   1360.79   0.002637   13.32  0.000605  ( 0.020626  0.013344 -0.001059)
 37:   1395.48   0.000350    1.77  0.000078  (-0.007010 -0.005386  0.000203)
 38:   1401.62   0.000281    1.42  0.000063  ( 0.001936 -0.007675  0.000027)
 39:   1466.28   0.005177   26.16  0.001102  ( 0.030470  0.012623  0.003739)
 40:   1471.41   0.002543   12.85  0.000539  (-0.003070  0.001579  0.022963)
 41:   1477.14   0.003597   18.18  0.000760  (-0.019344 -0.017924  0.008033)
 42:   1495.29   0.000155    0.78  0.000032  ( 0.004705  0.002491 -0.001984)
 43:   1507.65   0.008872   44.84  0.001836  (-0.034617 -0.025237  0.001100)
 44:   1519.19   0.001477    7.46  0.000303  (-0.012173  0.012390 -0.001305)
 45:   1613.20   0.011744   59.35  0.002272  ( 0.045716  0.013341 -0.001946)
 46:   1644.66   0.002423   12.24  0.000460  ( 0.016344 -0.013874 -0.000261)
 47:   2985.54   0.006950   35.12  0.000726  (-0.008920 -0.025428  0.000534)
 48:   3008.52   0.006056   30.60  0.000628  (-0.020841  0.013918  0.000262)
 49:   3034.27   0.003648   18.43  0.000375  (-0.000847  0.000287  0.019348)
 50:   3067.58   0.003011   15.21  0.000306  ( 0.000455  0.000548  0.017486)
 51:   3107.45   0.003368   17.02  0.000338  (-0.012177 -0.013741  0.001071)
 52:   3131.82   0.001545    7.81  0.000154  (-0.009868  0.007496 -0.000567)
 53:   3154.40   0.000944    4.77  0.000093  (-0.009281  0.002679  0.000318)
 54:   3168.16   0.003328   16.82  0.000328  ( 0.013113  0.012438 -0.001059)
 55:   3181.40   0.001835    9.27  0.000180  ( 0.004825 -0.012514  0.000316)
 56:   3762.49   0.009775   49.40  0.000811  ( 0.005378  0.027945 -0.000950)

--------------------------
THERMOCHEMISTRY AT 298.15K
--------------------------

Temperature         ...   298.15 K
Pressure            ...     1.00 atm
Total Mass          ...   122.17 AMU
Quasi RRHO          ...     True
Cut-Off Frequency   ...     1.00 cm^-1

Throughout the following assumptions are being made:
  (1) The electronic state is orbitally nondegenerate
  (2) There are no thermally accessible electronically excited states
  (3) Hindered rotations indicated by low frequency modes are not
      treated as such but are treated as vibrations and this may
      cause some error
  (4) All equations used are the standard statistical mechanics
      equations for an ideal gas
  (5) All vibrations are strictly harmonic

freq.     115.83  E(vib)   ...       0.44
freq.     158.88  E(vib)   ...       0.39
freq.     198.79  E(vib)   ...       0.35
freq.     235.02  E(vib)   ...       0.32
freq.     274.77  E(vib)   ...       0.28
freq.     333.36  E(vib)   ...       0.24
freq.     345.19  E(vib)   ...       0.23
freq.     377.96  E(vib)   ...       0.21
freq.     487.04  E(vib)   ...       0.15
freq.     504.69  E(vib)   ...       0.14
freq.     505.89  E(vib)   ...       0.14
freq.     552.46  E(vib)   ...       0.12
freq.     575.23  E(vib)   ...       0.11
freq.     675.45  E(vib)   ...       0.08
freq.     718.39  E(vib)   ...       0.07
freq.     776.87  E(vib)   ...       0.05
freq.     827.94  E(vib)   ...       0.04
freq.     875.24  E(vib)   ...       0.04
freq.     903.19  E(vib)   ...       0.03
freq.     944.61  E(vib)   ...       0.03
freq.    1006.11  E(vib)   ...       0.02
freq.    1032.85  E(vib)   ...       0.02
freq.    1052.92  E(vib)   ...       0.02
freq.    1078.11  E(vib)   ...       0.02
freq.    1107.88  E(vib)   ...       0.02
freq.    1176.34  E(vib)   ...       0.01
freq.    1187.11  E(vib)   ...       0.01
freq.    1229.73  E(vib)   ...       0.01
freq.    1277.59  E(vib)   ...       0.01
freq.    1306.16  E(vib)   ...       0.01
freq.    1360.79  E(vib)   ...       0.01
freq.    1395.48  E(vib)   ...       0.00
freq.    1401.62  E(vib)   ...       0.00
freq.    1466.28  E(vib)   ...       0.00
freq.    1471.41  E(vib)   ...       0.00
freq.    1477.14  E(vib)   ...       0.00
freq.    1495.29  E(vib)   ...       0.00
freq.    1507.65  E(vib)   ...       0.00
freq.    1519.19  E(vib)   ...       0.00
freq.    1613.20  E(vib)   ...       0.00
freq.    1644.66  E(vib)   ...       0.00
freq.    2985.54  E(vib)   ...       0.00
freq.    3008.52  E(vib)   ...       0.00
freq.    3034.27  E(vib)   ...       0.00
freq.    3067.58  E(vib)   ...       0.00
freq.    3107.45  E(vib)   ...       0.00
freq.    3131.82  E(vib)   ...       0.00
freq.    3154.40  E(vib)   ...       0.00
freq.    3168.16  E(vib)   ...       0.00
freq.    3181.40  E(vib)   ...       0.00
freq.    3762.49  E(vib)   ...       0.00

------------
INNER ENERGY
------------

The inner energy is: U= E(el) + E(ZPE) + E(vib) + E(rot) + E(trans)
    E(el)   - is the total energy from the electronic structure calculation
              = E(kin-el) + E(nuc-el) + E(el-el) + E(nuc-nuc)
    E(ZPE)  - the the zero temperature vibrational energy from the frequency calculation
    E(vib)  - the the finite temperature correction to E(ZPE) due to population
              of excited vibrational states
    E(rot)  - is the rotational thermal energy
    E(trans)- is the translational thermal energy

Summary of contributions to the inner energy U:
Electronic energy                ...   -386.03338513 Eh
Zero point energy                ...      0.15900687 Eh      99.78 kcal/mol
Thermal vibrational correction   ...      0.00579785 Eh       3.64 kcal/mol
Thermal rotational correction    ...      0.00141627 Eh       0.89 kcal/mol
Thermal translational correction ...      0.00141627 Eh       0.89 kcal/mol
-----------------------------------------------------------------------
Total thermal energy                   -385.86574787 Eh

Summary of corrections to the electronic energy:
(perhaps to be used in another calculation)
Total thermal correction                  0.00863039 Eh       5.42 kcal/mol
Non-thermal (ZPE) correction              0.15900687 Eh      99.78 kcal/mol
-----------------------------------------------------------------------
Total correction                          0.16763727 Eh     105.19 kcal/mol

--------
ENTHALPY
--------

The enthalpy is H = U + kB*T
                kB is Boltzmann's constant
Total thermal energy              ...   -385.86574787 Eh
Thermal Enthalpy correction       ...      0.00094421 Eh       0.59 kcal/mol
-----------------------------------------------------------------------
Total Enthalpy                    ...   -385.86480366 Eh

Note: Only C1 symmetry has been detected, increase convergence thresholds
      if your molecule has a higher symmetry. Symmetry factor of 1.0 is
      used for the rotational entropy correction.

Note: Rotational entropy computed according to Herzberg
Infrared and Raman Spectra, Chapter V,1, Van Nostrand Reinhold, 1945
Point Group:  C1, Symmetry Number:   1
Rotational constants in cm-1:     0.074774     0.058948     0.033372

Vibrational entropy computed according to the QRRHO of S. Grimme
Chem.Eur.J. 2012 18 9955 using a reference frequency of 100.0 cm-1

-------
ENTROPY
-------

The entropy contributions are T*S = T*(S(el)+S(vib)+S(rot)+S(trans))
     S(el)   - electronic entropy
     S(vib)  - vibrational entropy
     S(rot)  - rotational entropy
     S(trans)- translational entropy
The entropies will be listed as multiplied by the temperature to get
units of energy

Electronic entropy                ...      0.00000000 Eh      0.00 kcal/mol
Vibrational entropy               ...      0.00939031 Eh      5.89 kcal/mol
Rotational entropy                ...      0.01367673 Eh      8.58 kcal/mol
Translational entropy             ...      0.01915481 Eh     12.02 kcal/mol
-----------------------------------------------------------------------
Final entropy term                ...      0.04222185 Eh     26.49 kcal/mol

In case the symmetry of your molecule has not been determined correctly
or in case you have a reason to use a different symmetry number we print
out the resulting rotational entropy values for sn=1,12:

 non-linear molecules -----------------------------------
|  sn= 1 | S(rot)=       0.01367673 Eh      8.58 kcal/mol|
|  sn= 2 | S(rot)=       0.01302227 Eh      8.17 kcal/mol|
|  sn= 3 | S(rot)=       0.01263944 Eh      7.93 kcal/mol|
|  sn= 4 | S(rot)=       0.01236782 Eh      7.76 kcal/mol|
|  sn= 5 | S(rot)=       0.01215713 Eh      7.63 kcal/mol|
|  sn= 6 | S(rot)=       0.01198498 Eh      7.52 kcal/mol|
|  sn= 7 | S(rot)=       0.01183944 Eh      7.43 kcal/mol|
|  sn= 8 | S(rot)=       0.01171336 Eh      7.35 kcal/mol|
|  sn= 9 | S(rot)=       0.01160215 Eh      7.28 kcal/mol|

                             ****ORCA TERMINATED NORMALLY****
TOTAL RUN TIME: 0 days 0 hours 19 minutes 37 seconds 711 msec
