                         Program Version 6.0.0  -   RELEASE  -
|  1> ! r2SCAN-3c DEF2-TZVP FREQ
|  2> * xyzfile 0 1 vacuum_censo.xyz
|  3>
|  4>                          ****END OF INPUT****

CARTESIAN COORDINATES (ANGSTROEM)
---------------------------------
  C     -2.561614    0.624319    0.000059
  C     -1.222942   -0.060686    0.000053
  C     -1.151011   -1.455344    0.000048
  C      0.080043   -2.099619   -0.000023
  C      1.251886   -1.355979   -0.000029
  C      1.183062    0.036804   -0.000002
  C     -0.046604    0.707237   -0.000020
  C     -0.103633    2.209614   -0.000142
  O      2.322742    0.803818    0.000027
  H     -2.683494    1.266070   -0.880162
  H     -3.373389   -0.106257    0.001125
  H     -2.682666    1.267749    0.879157
  H     -2.067914   -2.036536    0.000093
  H      0.130435   -3.183701   -0.000057
  H      2.219899   -1.851820   -0.000054
  H     -0.640261    2.582191   -0.880303
  H     -0.639447    2.582407    0.880425
  H      0.894154    2.646335   -0.000643
  H      3.086928    0.217594    0.000148

 Total Charge           Charge          ....    0
 Multiplicity           Mult            ....    1
 Number of Electrons    NEL             ....   66
 Basis Dimension        Dim             ....  339

ORBITAL ENERGIES
----------------

  NO   OCC          E(Eh)            E(eV)
   0   2.0000     -18.983335      -516.5628
   1   2.0000     -10.090412      -274.5741
   2   2.0000     -10.040819      -273.2246
   3   2.0000     -10.035470      -273.0790
   4   2.0000     -10.031965      -272.9837
   5   2.0000     -10.029968      -272.9293
   6   2.0000     -10.027709      -272.8678
   7   2.0000     -10.022978      -272.7391
   8   2.0000     -10.022585      -272.7284
   9   2.0000      -1.024098       -27.8671
  10   2.0000      -0.819858       -22.3095
  11   2.0000      -0.744009       -20.2455
  12   2.0000      -0.720892       -19.6165
  13   2.0000      -0.660708       -17.9788
  14   2.0000      -0.639970       -17.4145
  15   2.0000      -0.577019       -15.7015
  16   2.0000      -0.548359       -14.9216
  17   2.0000      -0.490746       -13.3539
  18   2.0000      -0.455177       -12.3860
  19   2.0000      -0.445652       -12.1268
  20   2.0000      -0.406536       -11.0624
  21   2.0000      -0.395441       -10.7605
  22   2.0000      -0.372418       -10.1340
  23   2.0000      -0.371861       -10.1188
  24   2.0000      -0.366472        -9.9722
  25   2.0000      -0.357405        -9.7255
  26   2.0000      -0.356313        -9.6958
  27   2.0000      -0.340549        -9.2668
  28   2.0000      -0.312356        -8.4996
  29   2.0000      -0.300548        -8.1783
  30   2.0000      -0.300079        -8.1656
  31   2.0000      -0.218935        -5.9575
  32   2.0000      -0.199486        -5.4283
  33   0.0000      -0.028293        -0.7699
  34   0.0000      -0.011221        -0.3053
  35   0.0000       0.035311         0.9609
  36   0.0000       0.051115         1.3909
  37   0.0000       0.067470         1.8360

MULLIKEN ATOMIC CHARGES
-----------------------
   0 C :   -0.341608
   1 C :    0.140769
   2 C :   -0.225620
   3 C :   -0.094868
   4 C :   -0.256336
   5 C :    0.289829
   6 C :   -0.032604
   7 C :   -0.362766
   8 O :   -0.411799
   9 H :    0.114704
  10 H :    0.108249
  11 H :    0.114645
  12 H :    0.089950
  13 H :    0.106088
  14 H :    0.085836
  15 H :    0.110624
  16 H :    0.110661
  17 H :    0.142565
  18 H :    0.311680
Sum of atomic charges:    0.0000000

LOEWDIN ATOMIC CHARGES
----------------------
   0 C :   -0.248809
   1 C :   -0.144509
   2 C :   -0.139765
   3 C :   -0.148076
   4 C :   -0.155869
   5 C :   -0.241848
   6 C :   -0.129747
   7 C :   -0.249978
   8 O :    0.076150
   9 H :    0.129067
  10 H :    0.125629
  11 H :    0.129055
  12 H :    0.142359
  13 H :    0.142642
  14 H :    0.139221
  15 H :    0.128909
  16 H :    0.128907
  17 H :    0.131349
  18 H :    0.185313

  Mayer bond orders larger than 0.100000
B(  0-C ,  1-C ) :   0.9307 B(  0-C ,  9-H ) :   0.9685 B(  0-C , 10-H ) :   0.9813
B(  0-C , 11-H ) :   0.9685 B(  1-C ,  2-C ) :   1.3720 B(  1-C ,  6-C ) :   1.2863
B(  2-C ,  3-C ) :   1.4055 B(  2-C , 12-H ) :   0.9848 B(  3-C ,  4-C ) :   1.3952
B(  3-C , 13-H ) :   0.9640 B(  4-C ,  5-C ) :   1.3352 B(  4-C , 14-H ) :   0.9720
B(  5-C ,  6-C ) :   1.3503 B(  5-C ,  8-O ) :   1.1116 B(  6-C ,  7-C ) :   0.9241
B(  7-C , 15-H ) :   0.9719 B(  7-C , 16-H ) :   0.9720 B(  7-C , 17-H ) :   0.9723
B(  8-O , 18-H ) :   0.8858

Dispersion correction           -0.006306164
FINAL SINGLE POINT ENERGY      -386.034517251983

DIPOLE MOMENT
-------------

Method             : SCF
Type of density    : Electron Density
Multiplicity       :   1
Irrep              :   0
Energy             :  -386.0356084350929677 Eh
Relativity type    :
Basis              : AO
                                X                 Y                 Z
Electronic contribution:      5.587370135      -3.397599383       0.000223190
Nuclear contribution   :     -5.402612778       3.222689795      -0.000215137
                        -----------------------------------------
Total Dipole Moment    :      0.184757357      -0.174909588       0.000008053
                        -----------------------------------------
Magnitude (a.u.)       :      0.254418248
Magnitude (Debye)      :      0.646679795

VIBRATIONAL FREQUENCIES
-----------------------

Scaling factor for frequencies =  1.000000000  (already applied!)

     0:       0.00 cm**-1
     1:       0.00 cm**-1
     2:       0.00 cm**-1
     3:       0.00 cm**-1
     4:       0.00 cm**-1
     5:       0.00 cm**-1
     6:      81.63 cm**-1
     7:     139.38 cm**-1
     8:     178.77 cm**-1
     9:     234.27 cm**-1
    10:     275.43 cm**-1
    11:     321.78 cm**-1
    12:     346.35 cm**-1
    13:     353.85 cm**-1
    14:     487.08 cm**-1
    15:     506.10 cm**-1
    16:     509.72 cm**-1
    17:     553.19 cm**-1
    18:     573.59 cm**-1
    19:     678.39 cm**-1
    20:     712.25 cm**-1
    21:     761.10 cm**-1
    22:     828.23 cm**-1
    23:     843.84 cm**-1
    24:     918.31 cm**-1
    25:     921.72 cm**-1
    26:    1006.07 cm**-1
    27:    1031.89 cm**-1
    28:    1061.80 cm**-1
    29:    1080.37 cm**-1
    30:    1112.47 cm**-1
    31:    1180.15 cm**-1
    32:    1194.83 cm**-1
    33:    1233.88 cm**-1
    34:    1289.80 cm**-1
    35:    1299.95 cm**-1
    36:    1358.40 cm**-1
    37:    1396.82 cm**-1
    38:    1406.03 cm**-1
    39:    1464.02 cm**-1
    40:    1471.02 cm**-1
    41:    1485.33 cm**-1
    42:    1491.69 cm**-1
    43:    1500.62 cm**-1
    44:    1520.12 cm**-1
    45:    1619.50 cm**-1
    46:    1648.01 cm**-1
    47:    3002.97 cm**-1
    48:    3005.90 cm**-1
    49:    3056.40 cm**-1
    50:    3061.03 cm**-1
    51:    3104.43 cm**-1
    52:    3136.69 cm**-1
    53:    3139.35 cm**-1
    54:    3159.16 cm**-1
    55:    3177.23 cm**-1
    56:    3812.68 cm**-1

IR SPECTRUM
-----------

 Mode   freq       eps      Int      T**2         TX        TY        TZ
       cm**-1   L/(mol*cm) km/mol    a.u.
----------------------------------------------------------------------------
  6:     81.63   0.000003    0.01  0.000011  (-0.000021  0.000029 -0.003297)
  7:    139.38   0.000003    0.01  0.000006  (-0.000021  0.000033 -0.002544)
  8:    178.77   0.000276    1.39  0.000482  ( 0.000064  0.000021  0.021950)
  9:    234.27   0.000431    2.18  0.000574  (-0.000027  0.000004  0.023961)
 10:    275.43   0.003874   19.58  0.004390  (-0.000028 -0.000019  0.066255)
 11:    321.78   0.000196    0.99  0.000190  (-0.009119 -0.010350 -0.000047)
 12:    346.35   0.001105    5.59  0.000996  ( 0.029724  0.010600  0.000093)
 13:    353.85   0.014706   74.32  0.012969  ( 0.000020 -0.000022 -0.113881)
 14:    487.08   0.000068    0.34  0.000044  ( 0.002960 -0.005904  0.000002)
 15:    506.10   0.001088    5.50  0.000671  ( 0.021921  0.013806 -0.000005)
 16:    509.72   0.000003    0.01  0.000002  (-0.000099 -0.000080 -0.001297)
 17:    553.19   0.000492    2.49  0.000278  ( 0.010386  0.013030 -0.000002)
 18:    573.59   0.000112    0.56  0.000061  ( 0.000012 -0.000008 -0.007795)
 19:    678.39   0.000089    0.45  0.000041  (-0.006385  0.000595  0.000003)
 20:    712.25   0.003036   15.34  0.001330  ( 0.000023  0.000014  0.036472)
 21:    761.10   0.009382   47.41  0.003847  (-0.000017 -0.000012  0.062023)
 22:    828.23   0.001025    5.18  0.000386  (-0.019192 -0.004227  0.000005)
 23:    843.84   0.000031    0.16  0.000011  ( 0.000000 -0.000003  0.003369)
 24:    918.31   0.004238   21.42  0.001440  ( 0.033508  0.017813  0.000002)
 25:    921.72   0.000004    0.02  0.000001  ( 0.000022  0.000013 -0.001127)
 26:   1006.07   0.002090   10.56  0.000648  (-0.024800  0.005754  0.000001)
 27:   1031.89   0.000401    2.03  0.000121  ( 0.000029  0.000005  0.011011)
 28:   1061.80   0.000028    0.14  0.000008  ( 0.000021 -0.000020  0.002865)
 29:   1080.37   0.014926   75.43  0.004311  (-0.064612 -0.011694 -0.000004)
 30:   1112.47   0.002453   12.40  0.000688  (-0.014303 -0.021991 -0.000005)
 31:   1180.15   0.004007   20.25  0.001060  (-0.023862 -0.022139 -0.000000)
 32:   1194.83   0.001785    9.02  0.000466  (-0.020062 -0.007979  0.000003)
 33:   1233.88   0.002864   14.47  0.000724  ( 0.015871  0.021734  0.000000)
 34:   1289.80   0.004847   24.49  0.001173  ( 0.028585  0.018857 -0.000003)
 35:   1299.95   0.025195  127.32  0.006048  (-0.064261 -0.043804 -0.000002)
 36:   1358.40   0.002606   13.17  0.000599  ( 0.024397 -0.001890  0.000000)
 37:   1396.82   0.000021    0.10  0.000005  ( 0.000320 -0.002130 -0.000003)
 38:   1406.03   0.000530    2.68  0.000118  (-0.006076  0.008989 -0.000007)
 39:   1464.02   0.000203    1.02  0.000043  (-0.002111  0.006222 -0.000012)
 40:   1471.02   0.000272    1.37  0.000058  ( 0.000014  0.000020  0.007590)
 41:   1485.33   0.000909    4.59  0.000191  ( 0.013545  0.002750 -0.000011)
 42:   1491.69   0.003424   17.30  0.000716  ( 0.000097  0.000049 -0.026762)
 43:   1500.62   0.014071   71.11  0.002926  ( 0.048426  0.024107  0.000046)
 44:   1520.12   0.001629    8.23  0.000335  (-0.002141 -0.018164 -0.000006)
 45:   1619.50   0.010205   51.57  0.001966  (-0.040410 -0.018262 -0.000002)
 46:   1648.01   0.001694    8.56  0.000321  (-0.014268  0.010828  0.000002)
 47:   3002.97   0.007330   37.04  0.000762  (-0.021818  0.016904 -0.000020)
 48:   3005.90   0.004668   23.59  0.000485  (-0.006673  0.020977  0.000008)
 49:   3056.40   0.006379   32.24  0.000651  (-0.000005  0.000011  0.025520)
 50:   3061.03   0.000237    1.20  0.000024  ( 0.000023 -0.000013 -0.004913)
 51:   3104.43   0.003646   18.42  0.000366  ( 0.013306  0.013764 -0.000007)
 52:   3136.69   0.000697    3.52  0.000069  (-0.005676 -0.006092  0.000005)
 53:   3139.35   0.003179   16.07  0.000316  ( 0.017725  0.001365 -0.000001)
 54:   3159.16   0.002463   12.45  0.000243  (-0.015576  0.000832  0.000001)
 55:   3177.23   0.003348   16.92  0.000329  ( 0.002848  0.017910 -0.000000)
 56:   3812.68   0.010123   51.16  0.000829  (-0.028495  0.004074 -0.000003)

--------------------------
THERMOCHEMISTRY AT 298.15K
--------------------------

Temperature         ...   298.15 K
Pressure            ...     1.00 atm
Total Mass          ...   122.17 AMU
Quasi RRHO          ...     True
Cut-Off Frequency   ...     1.00 cm^-1

Throughout the following assumptions are being made:
  (1) The electronic state is orbitally nondegenerate
  (2) There are no thermally accessible electronically excited states
  (3) Hindered rotations indicated by low frequency modes are not
      treated as such but are treated as vibrations and this may
      cause some error
  (4) All equations used are the standard statistical mechanics
      equations for an ideal gas
  (5) All vibrations are strictly harmonic

freq.      81.63  E(vib)   ...       0.48
freq.     139.38  E(vib)   ...       0.42
freq.     178.77  E(vib)   ...       0.37
freq.     234.27  E(vib)   ...       0.32
freq.     275.43  E(vib)   ...       0.28
freq.     321.78  E(vib)   ...       0.25
freq.     346.35  E(vib)   ...       0.23
freq.     353.85  E(vib)   ...       0.22
freq.     487.08  E(vib)   ...       0.15
freq.     506.10  E(vib)   ...       0.14
freq.     509.72  E(vib)   ...       0.14
freq.     553.19  E(vib)   ...       0.12
freq.     573.59  E(vib)   ...       0.11
freq.     678.39  E(vib)   ...       0.08
freq.     712.25  E(vib)   ...       0.07
freq.     761.10  E(vib)   ...       0.06
freq.     828.23  E(vib)   ...       0.04
freq.     843.84  E(vib)   ...       0.04
freq.     918.31  E(vib)   ...       0.03
freq.     921.72  E(vib)   ...       0.03
freq.    1006.07  E(vib)   ...       0.02
freq.    1031.89  E(vib)   ...       0.02
freq.    1061.80  E(vib)   ...       0.02
freq.    1080.37  E(vib)   ...       0.02
freq.    1112.47  E(vib)   ...       0.01
freq.    1180.15  E(vib)   ...       0.01
freq.    1194.83  E(vib)   ...       0.01
freq.    1233.88  E(vib)   ...       0.01
freq.    1289.80  E(vib)   ...       0.01
freq.    1299.95  E(vib)   ...       0.01
freq.    1358.40  E(vib)   ...       0.01
freq.    1396.82  E(vib)   ...       0.00
freq.    1406.03  E(vib)   ...       0.00
freq.    1464.02  E(vib)   ...       0.00
freq.    1471.02  E(vib)   ...       0.00
freq.    1485.33  E(vib)   ...       0.00
freq.    1491.69  E(vib)   ...       0.00
freq.    1500.62  E(vib)   ...       0.00
freq.    1520.12  E(vib)   ...       0.00
freq.    1619.50  E(vib)   ...       0.00
freq.    1648.01  E(vib)   ...       0.00
freq.    3002.97  E(vib)   ...       0.00
freq.    3005.90  E(vib)   ...       0.00
freq.    3056.40  E(vib)   ...       0.00
freq.    3061.03  E(vib)   ...       0.00
freq.    3104.43  E(vib)   ...       0.00
freq.    3136.69  E(vib)   ...       0.00
freq.    3139.35  E(vib)   ...       0.00
freq.    3159.16  E(vib)   ...       0.00
freq.    3177.23  E(vib)   ...       0.00
freq.    3812.68  E(vib)   ...       0.00

------------
INNER ENERGY
------------

The inner energy is: U= E(el) + E(ZPE) + E(vib) + E(rot) + E(trans)
    E(el)   - is the total energy from the electronic structure calculation
              = E(kin-el) + E(nuc-el) + E(el-el) + E(nuc-nuc)
    E(ZPE)  - the the zero temperature vibrational energy from the frequency calculation
    E(vib)  - the the finite temperature correction to E(ZPE) due to population
              of excited vibrational states
    E(rot)  - is the rotational thermal energy
    E(trans)- is the translational thermal energy

Summary of contributions to the inner energy U:
Electronic energy                ...   -386.03451725 Eh
Zero point energy                ...      0.15886476 Eh      99.69 kcal/mol
Thermal vibrational correction   ...      0.00597590 Eh       3.75 kcal/mol
Thermal rotational correction    ...      0.00141627 Eh       0.89 kcal/mol
Thermal translational correction ...      0.00141627 Eh       0.89 kcal/mol
-----------------------------------------------------------------------
Total thermal energy                   -385.86684405 Eh

Summary of corrections to the electronic energy:
(perhaps to be used in another calculation)
Total thermal correction                  0.00880844 Eh       5.53 kcal/mol
Non-thermal (ZPE) correction              0.15886476 Eh      99.69 kcal/mol
-----------------------------------------------------------------------
Total correction                          0.16767321 Eh     105.22 kcal/mol

--------
ENTHALPY
--------

The enthalpy is H = U + kB*T
                kB is Boltzmann's constant
Total thermal energy              ...   -385.86684405 Eh
Thermal Enthalpy correction       ...      0.00094421 Eh       0.59 kcal/mol
-----------------------------------------------------------------------
Total Enthalpy                    ...   -385.86589984 Eh

Note: Only C1 symmetry has been detected, increase convergence thresholds
      if your molecule has a higher symmetry. Symmetry factor of 1.0 is
      used for the rotational entropy correction.

Note: Rotational entropy computed according to Herzberg
Infrared and Raman Spectra, Chapter V,1, Van Nostrand Reinhold, 1945
Point Group:  C1, Symmetry Number:   1
Rotational constants in cm-1:     0.074932     0.059251     0.033498

Vibrational entropy computed according to the QRRHO of S. Grimme
Chem.Eur.J. 2012 18 9955 using a reference frequency of 100.0 cm-1

-------
ENTROPY
-------

The entropy contributions are T*S = T*(S(el)+S(vib)+S(rot)+S(trans))
     S(el)   - electronic entropy
     S(vib)  - vibrational entropy
     S(rot)  - rotational entropy
     S(trans)- translational entropy
The entropies will be listed as multiplied by the temperature to get
units of energy

Electronic entropy                ...      0.00000000 Eh      0.00 kcal/mol
Vibrational entropy               ...      0.00980626 Eh      6.15 kcal/mol
Rotational entropy                ...      0.01367154 Eh      8.58 kcal/mol
Translational entropy             ...      0.01915481 Eh     12.02 kcal/mol
-----------------------------------------------------------------------
Final entropy term                ...      0.04263260 Eh     26.75 kcal/mol

In case the symmetry of your molecule has not been determined correctly
or in case you have a reason to use a different symmetry number we print
out the resulting rotational entropy values for sn=1,12:

 non-linear molecules -----------------------------------
|  sn= 1 | S(rot)=       0.01367154 Eh      8.58 kcal/mol|
|  sn= 2 | S(rot)=       0.01301708 Eh      8.17 kcal/mol|
|  sn= 3 | S(rot)=       0.01263425 Eh      7.93 kcal/mol|
|  sn= 4 | S(rot)=       0.01236262 Eh      7.76 kcal/mol|
|  sn= 5 | S(rot)=       0.01215194 Eh      7.63 kcal/mol|
|  sn= 6 | S(rot)=       0.01197979 Eh      7.52 kcal/mol|
|  sn= 7 | S(rot)=       0.01183425 Eh      7.43 kcal/mol|
|  sn= 8 | S(rot)=       0.01170817 Eh      7.35 kcal/mol|
|  sn= 9 | S(rot)=       0.01159696 Eh      7.28 kcal/mol|

                             ****ORCA TERMINATED NORMALLY****
TOTAL RUN TIME: 0 days 0 hours 19 minutes 19 seconds 704 msec
