                         Program Version 6.0.1  -  RELEASE   -
|  1> ! pbe def2-sv(p) def2/J RI DEFGRID1 loosescf d4 GCP(DFT/SV(P)) printgap
|  2> %output
|  3>     printlevel normal
|  4> end
|  5> * xyz 0 1
|  6> C -2.3019395708 -1.0137555458 -0.301943523
|  7> C -0.9124860187 -0.5449589599 0.1450676972
|  8> H -0.807171145 -0.7379221909 1.2270001159
|  9> C -0.7346365451 0.9758575914 -0.0930250417
| 10> H -1.3468789656 1.2921281598 -0.9495140599
| 11> C 0.7412487668 1.2490095128 -0.4478742468
| 12> H 0.9638201301 2.3048122777 -0.2638601879
| 13> C 1.631342724 0.3607257224 0.4381201803
| 14> H 2.6902442454 0.5577906273 0.223044635
| 15> C 1.3624604385 -1.1259386481 0.0596120824
| 16> H 1.4025581566 -1.7392971596 0.9719966815
| 17> O 0.0773343935 -1.268018682 -0.5511117454
| 18> O 2.3042678457 -1.6359508962 -0.8028682123
| 19> O 1.4228406511 0.5974765126 1.8050108479
| 20> O 0.9816144718 1.0137908007 -1.8110041028
| 21> O -1.0856279046 1.7128959277 1.0568729427
| 22> O -3.3037357943 -0.341810118 0.4246105832
| 23> H -2.3741851674 -2.1008602348 -0.1926049601
| 24> H -2.4585992082 -0.7600073312 -1.3525413419
| 25> H 2.3591618057 -1.0742540389 -1.5886481486
| 26> H 0.609602531 1.1120403761 1.9182352918
| 27> H 0.6011441314 0.1489330823 -2.0284094764
| 28> H -2.0416172629 1.6398068932 1.1743634858
| 29> H -3.3448636739 -0.7069427564 1.315965826
| 30> *
| 31>
| 32>                          ****END OF INPUT****

CARTESIAN COORDINATES (ANGSTROEM)
---------------------------------
  C     -2.301940   -1.013756   -0.301944
  C     -0.912486   -0.544959    0.145068
  H     -0.807171   -0.737922    1.227000
  C     -0.734637    0.975858   -0.093025
  H     -1.346879    1.292128   -0.949514
  C      0.741249    1.249010   -0.447874
  H      0.963820    2.304812   -0.263860
  C      1.631343    0.360726    0.438120
  H      2.690244    0.557791    0.223045
  C      1.362460   -1.125939    0.059612
  H      1.402558   -1.739297    0.971997
  O      0.077334   -1.268019   -0.551112
  O      2.304268   -1.635951   -0.802868
  O      1.422841    0.597477    1.805011
  O      0.981614    1.013791   -1.811004
  O     -1.085628    1.712896    1.056873
  O     -3.303736   -0.341810    0.424611
  H     -2.374185   -2.100860   -0.192605
  H     -2.458599   -0.760007   -1.352541
  H      2.359162   -1.074254   -1.588648
  H      0.609603    1.112040    1.918235
  H      0.601144    0.148933   -2.028409
  H     -2.041617    1.639807    1.174363
  H     -3.344864   -0.706943    1.315966

 Total Charge           Charge          ....    0
 Multiplicity           Mult            ....    1
 Number of Electrons    NEL             ....   96
 Basis Dimension        Dim             ....  192

ORBITAL ENERGIES
----------------

  NO   OCC          E(Eh)            E(eV)
   0   2.0000     -18.785378      -511.1761
   1   2.0000     -18.781961      -511.0831
   2   2.0000     -18.777546      -510.9630
   3   2.0000     -18.763677      -510.5856
   4   2.0000     -18.761746      -510.5331
   5   2.0000     -18.745651      -510.0951
   6   2.0000      -9.986328      -271.7418
   7   2.0000      -9.955589      -270.9053
   8   2.0000      -9.955438      -270.9012
   9   2.0000      -9.952902      -270.8322
  10   2.0000      -9.951441      -270.7925
  11   2.0000      -9.938592      -270.4428
  12   2.0000      -0.994196       -27.0535
  13   2.0000      -0.960013       -26.1233
  14   2.0000      -0.952703       -25.9244
  15   2.0000      -0.939536       -25.5661
  16   2.0000      -0.925230       -25.1768
  17   2.0000      -0.923126       -25.1195
  18   2.0000      -0.709843       -19.3158
  19   2.0000      -0.688061       -18.7231
  20   2.0000      -0.632337       -17.2068
  21   2.0000      -0.590141       -16.0586
  22   2.0000      -0.582497       -15.8506
  23   2.0000      -0.541431       -14.7331
  24   2.0000      -0.511321       -13.9138
  25   2.0000      -0.503467       -13.7000
  26   2.0000      -0.482222       -13.1219
  27   2.0000      -0.470196       -12.7947
  28   2.0000      -0.464340       -12.6353
  29   2.0000      -0.447913       -12.1883
  30   2.0000      -0.415826       -11.3152
  31   2.0000      -0.412272       -11.2185
  32   2.0000      -0.393761       -10.7148
  33   2.0000      -0.379337       -10.3223
  34   2.0000      -0.366820        -9.9817
  35   2.0000      -0.363775        -9.8988
  36   2.0000      -0.340306        -9.2602
  37   2.0000      -0.327593        -8.9142
  38   2.0000      -0.309253        -8.4152
  39   2.0000      -0.303954        -8.2710
  40   2.0000      -0.300846        -8.1864
  41   2.0000      -0.292532        -7.9602
  42   2.0000      -0.263105        -7.1595
  43   2.0000      -0.258659        -7.0385
  44   2.0000      -0.252122        -6.8606
  45   2.0000      -0.231714        -6.3053
  46   2.0000      -0.224864        -6.1189
  47   2.0000      -0.203572        -5.5395
  48   0.0000      -0.006815        -0.1854
  49   0.0000       0.016597         0.4516
  50   0.0000       0.032206         0.8764
  51   0.0000       0.044487         1.2106
  52   0.0000       0.055651         1.5143

MULLIKEN ATOMIC CHARGES
-----------------------
   0 C :    0.071288
   1 C :   -0.018598
   2 H :    0.049467
   3 C :    0.011544
   4 H :    0.077034
   5 C :    0.029257
   6 H :    0.092246
   7 C :    0.023224
   8 H :    0.081784
   9 C :    0.171330
  10 H :    0.077519
  11 O :   -0.306699
  12 O :   -0.368813
  13 O :   -0.419289
  14 O :   -0.418157
  15 O :   -0.416692
  16 O :   -0.435828
  17 H :    0.098550
  18 H :    0.093258
  19 H :    0.291794
  20 H :    0.308432
  21 H :    0.298777
  22 H :    0.303229
  23 H :    0.305343
Sum of atomic charges:    0.0000000

LOEWDIN ATOMIC CHARGES
----------------------
   0 C :   -0.121790
   1 C :   -0.090627
   2 H :    0.100273
   3 C :   -0.080313
   4 H :    0.112341
   5 C :   -0.071129
   6 H :    0.123582
   7 C :   -0.093575
   8 H :    0.114915
   9 C :   -0.002374
  10 H :    0.107888
  11 O :   -0.161744
  12 O :   -0.280665
  13 O :   -0.320690
  14 O :   -0.310326
  15 O :   -0.314623
  16 O :   -0.326359
  17 H :    0.107764
  18 H :    0.116891
  19 H :    0.276710
  20 H :    0.274850
  21 H :    0.266549
  22 H :    0.283122
  23 H :    0.289329

  Mayer bond orders larger than 0.100000
B(  0-C ,  1-C ) :   1.0351 B(  0-C , 16-O ) :   1.0450 B(  0-C , 17-H ) :   0.9243
B(  0-C , 18-H ) :   0.9135 B(  1-C ,  2-H ) :   0.8589 B(  1-C ,  3-C ) :   0.9755
B(  1-C , 11-O ) :   1.0269 B(  3-C ,  4-H ) :   0.8893 B(  3-C ,  5-C ) :   1.0020
B(  3-C , 15-O ) :   1.0471 B(  5-C ,  6-H ) :   0.8901 B(  5-C ,  7-C ) :   0.9982
B(  5-C , 14-O ) :   1.0447 B(  7-C ,  8-H ) :   0.9012 B(  7-C ,  9-C ) :   0.9223
B(  7-C , 13-O ) :   1.0840 B(  9-C , 10-H ) :   0.8987 B(  9-C , 11-O ) :   0.9579
B(  9-C , 12-O ) :   1.1640 B( 12-O , 19-H ) :   0.8306 B( 13-O , 20-H ) :   0.8082
B( 14-O , 21-H ) :   0.8129 B( 15-O , 20-H ) :   0.1011 B( 15-O , 22-H ) :   0.8233
B( 16-O , 23-H ) :   0.8465

Dispersion correction           -0.025353778
FINAL SINGLE POINT ENERGY      -685.692869897279

DIPOLE MOMENT
-------------

Method             : SCF
Type of density    : Electron Density
Multiplicity       :   1
Irrep              :   0
Energy             :  -685.8277325483162485 Eh
Relativity type    :
Basis              : AO
                                X                 Y                 Z
Electronic contribution:      2.247272355      -0.072115505      -0.273674583
Nuclear contribution   :     -3.509244369      -0.058668050       0.428693656
                        -----------------------------------------
Total Dipole Moment    :     -1.261972015      -0.130783555       0.155019073
                        -----------------------------------------
Magnitude (a.u.)       :      1.278166115
Magnitude (Debye)      :      3.248840074

Rotational constants in cm-1:             0.044231             0.025540             0.022025
Rotational constants in MHz :          1326.018627           765.660476           660.293115

                             ****ORCA TERMINATED NORMALLY****
TOTAL RUN TIME: 0 days 0 hours 0 minutes 17 seconds 73 msec
