                         Program Version 6.0.1  -  RELEASE   -
|  1> ! pbe def2-sv(p) def2/J RI DEFGRID1 loosescf d4 GCP(DFT/SV(P)) printgap
|  2> %output
|  3>     printlevel normal
|  4> end
|  5> * xyz 0 1
|  6> C 2.465393672 0.0106986211 0.0719930043
|  7> C 0.9640296946 0.0297496588 0.343621889
|  8> C 0.2751523572 1.1634322804 -0.4142394484
|  9> C -1.1833856234 1.3111948698 0.0358786184
| 10> C -1.7912666876 -0.0417479485 0.4259536606
| 11> C -1.1623400303 -1.1598745053 -0.3970603482
| 12> C 0.3228748668 -1.3116920233 -0.0467586436
| 13> H 2.6582747609 -0.0923338916 -0.9941648841
| 14> H 2.9298737096 0.9324626615 0.4160123485
| 15> H 2.935230807 -0.8238166061 0.5883409885
| 16> H 0.8144555893 0.1999181698 1.4151466857
| 17> H 0.8077295066 2.1020652501 -0.2494193127
| 18> H 0.3197345315 0.9467839578 -1.4834228016
| 19> H -1.2402943437 1.9897865415 0.8893207669
| 20> H -1.7633925364 1.7578097383 -0.7741712013
| 21> H -1.6147272639 -0.2420607241 1.4845122361
| 22> H -2.8717817236 -0.0208496658 0.2728398447
| 23> H -1.6827062788 -2.1019919596 -0.214572544
| 24> H -1.2769993718 -0.9233050079 -1.4565753692
| 25> H 0.4375164558 -2.0152542445 0.7804798834
| 26> H 0.8524795181 -1.7301992455 -0.9053793844
| 27> *
| 28>
| 29>                          ****END OF INPUT****

CARTESIAN COORDINATES (ANGSTROEM)
---------------------------------
  C      2.465394    0.010699    0.071993
  C      0.964030    0.029750    0.343622
  C      0.275152    1.163432   -0.414239
  C     -1.183386    1.311195    0.035879
  C     -1.791267   -0.041748    0.425954
  C     -1.162340   -1.159875   -0.397060
  C      0.322875   -1.311692   -0.046759
  H      2.658275   -0.092334   -0.994165
  H      2.929874    0.932463    0.416012
  H      2.935231   -0.823817    0.588341
  H      0.814456    0.199918    1.415147
  H      0.807730    2.102065   -0.249419
  H      0.319735    0.946784   -1.483423
  H     -1.240294    1.989787    0.889321
  H     -1.763393    1.757810   -0.774171
  H     -1.614727   -0.242061    1.484512
  H     -2.871782   -0.020850    0.272840
  H     -1.682706   -2.101992   -0.214573
  H     -1.276999   -0.923305   -1.456575
  H      0.437516   -2.015254    0.780480
  H      0.852480   -1.730199   -0.905379

 Total Charge           Charge          ....    0
 Multiplicity           Mult            ....    1
 Number of Electrons    NEL             ....   56
 Basis Dimension        Dim             ....  126

ORBITAL ENERGIES
----------------

  NO   OCC          E(Eh)            E(eV)
   0   2.0000      -9.886116      -269.0149
   1   2.0000      -9.876242      -268.7462
   2   2.0000      -9.876034      -268.7406
   3   2.0000      -9.875933      -268.7378
   4   2.0000      -9.875291      -268.7203
   5   2.0000      -9.874649      -268.7029
   6   2.0000      -9.868912      -268.5467
   7   2.0000      -0.753014       -20.4906
   8   2.0000      -0.681360       -18.5407
   9   2.0000      -0.657601       -17.8942
  10   2.0000      -0.597676       -16.2636
  11   2.0000      -0.541423       -14.7329
  12   2.0000      -0.524212       -14.2645
  13   2.0000      -0.461181       -12.5494
  14   2.0000      -0.436704       -11.8833
  15   2.0000      -0.415241       -11.2993
  16   2.0000      -0.393258       -10.7011
  17   2.0000      -0.365307        -9.9405
  18   2.0000      -0.359120        -9.7721
  19   2.0000      -0.335743        -9.1360
  20   2.0000      -0.324396        -8.8273
  21   2.0000      -0.315419        -8.5830
  22   2.0000      -0.309441        -8.4203
  23   2.0000      -0.300740        -8.1836
  24   2.0000      -0.296346        -8.0640
  25   2.0000      -0.256388        -6.9767
  26   2.0000      -0.253361        -6.8943
  27   2.0000      -0.251132        -6.8337
  28   0.0000       0.030356         0.8260
  29   0.0000       0.048815         1.3283
  30   0.0000       0.060349         1.6422
  31   0.0000       0.073131         1.9900
  32   0.0000       0.095582         2.6009

MULLIKEN ATOMIC CHARGES
-----------------------
   0 C :   -0.215556
   1 C :   -0.200745
   2 C :   -0.125471
   3 C :   -0.142277
   4 C :   -0.158447
   5 C :   -0.146495
   6 C :   -0.126475
   7 H :    0.090553
   8 H :    0.093749
   9 H :    0.096724
  10 H :    0.065271
  11 H :    0.078922
  12 H :    0.068285
  13 H :    0.078682
  14 H :    0.078041
  15 H :    0.076065
  16 H :    0.083251
  17 H :    0.081944
  18 H :    0.073840
  19 H :    0.077262
  20 H :    0.072874
Sum of atomic charges:    0.0000000

LOEWDIN ATOMIC CHARGES
----------------------
   0 C :   -0.326662
   1 C :   -0.154644
   2 C :   -0.220930
   3 C :   -0.228543
   4 C :   -0.229882
   5 C :   -0.228984
   6 C :   -0.219545
   7 H :    0.114926
   8 H :    0.115298
   9 H :    0.116759
  10 H :    0.113161
  11 H :    0.115236
  12 H :    0.113237
  13 H :    0.115198
  14 H :    0.115246
  15 H :    0.113401
  16 H :    0.116436
  17 H :    0.116418
  18 H :    0.113738
  19 H :    0.115570
  20 H :    0.114566

  Mayer bond orders larger than 0.100000
B(  0-C ,  1-C ) :   1.1214 B(  0-C ,  7-H ) :   0.9453 B(  0-C ,  8-H ) :   0.9488
B(  0-C ,  9-H ) :   0.9509 B(  1-C ,  2-C ) :   1.1502 B(  1-C ,  6-C ) :   1.0953
B(  1-C , 10-H ) :   0.8875 B(  2-C ,  3-C ) :   1.1463 B(  2-C , 11-H ) :   0.9224
B(  2-C , 12-H ) :   0.8973 B(  3-C ,  4-C ) :   1.1398 B(  3-C , 13-H ) :   0.9205
B(  3-C , 14-H ) :   0.9200 B(  4-C ,  5-C ) :   1.1859 B(  4-C , 15-H ) :   0.9112
B(  4-C , 16-H ) :   0.9228 B(  5-C ,  6-C ) :   1.1473 B(  5-C , 17-H ) :   0.9211
B(  5-C , 18-H ) :   0.9071 B(  6-C , 19-H ) :   0.9155 B(  6-C , 20-H ) :   0.9156

Dispersion correction           -0.018443456
FINAL SINGLE POINT ENERGY      -274.481993265746

DIPOLE MOMENT
-------------

Method             : SCF
Type of density    : Electron Density
Multiplicity       :   1
Irrep              :   0
Energy             :  -274.5532119134678055 Eh
Relativity type    :
Basis              : AO
                                X                 Y                 Z
Electronic contribution:     -1.251014024       0.019669017       0.242846491
Nuclear contribution   :      1.224671803      -0.019687376      -0.216765144
                        -----------------------------------------
Total Dipole Moment    :     -0.026342221      -0.000018359       0.026081347
                        -----------------------------------------
Magnitude (a.u.)       :      0.037069524
Magnitude (Debye)      :      0.094223242

Rotational constants in cm-1:             0.139260             0.074689             0.055236
Rotational constants in MHz :          4174.913456          2239.127370          1655.940053

                             ****ORCA TERMINATED NORMALLY****
TOTAL RUN TIME: 0 days 0 hours 0 minutes 10 seconds 777 msec
