                         Program Version 6.0.0  -   RELEASE  -
|  1> ! r2SCAN-3c DEF2-TZVP FREQ
|  2> * xyzfile 0 1 censo.xyz
|  3>
|  4>                          ****END OF INPUT****

CARTESIAN COORDINATES (ANGSTROEM)
---------------------------------
  C      0.539971   -1.284989   -0.000053
  C     -0.842830   -1.110048   -0.000132
  C     -1.382813    0.174958   -0.000098
  C     -0.539972    1.284991    0.000032
  C      0.842832    1.110049    0.000088
  C      1.382813   -0.174959    0.000037
  H      0.960450   -2.286014   -0.000095
  H     -1.499381   -1.974831   -0.000198
  H     -2.460002    0.311179   -0.000126
  H     -0.960451    2.286018    0.000043
  H      1.499384    1.974834    0.000156
  H      2.460001   -0.311179    0.000091

 Total Charge           Charge          ....    0
 Multiplicity           Mult            ....    1
 Number of Electrons    NEL             ....   42
 Basis Dimension        Dim             ....  222

ORBITAL ENERGIES
----------------

  NO   OCC          E(Eh)            E(eV)
   0   2.0000     -10.037910      -273.1454
   1   2.0000     -10.037722      -273.1403
   2   2.0000     -10.037719      -273.1402
   3   2.0000     -10.037287      -273.1285
   4   2.0000     -10.037284      -273.1284
   5   2.0000     -10.037072      -273.1226
   6   2.0000      -0.820073       -22.3153
   7   2.0000      -0.713446       -19.4139
   8   2.0000      -0.713416       -19.4130
   9   2.0000      -0.571011       -15.5380
  10   2.0000      -0.571000       -15.5377
  11   2.0000      -0.491512       -13.3747
  12   2.0000      -0.430234       -11.7072
  13   2.0000      -0.414368       -11.2755
  14   2.0000      -0.389734       -10.6052
  15   2.0000      -0.389697       -10.6042
  16   2.0000      -0.344469        -9.3735
  17   2.0000      -0.312903        -8.5145
  18   2.0000      -0.312896        -8.5143
  19   2.0000      -0.237419        -6.4605
  20   2.0000      -0.237393        -6.4598
  21   0.0000      -0.034478        -0.9382
  22   0.0000      -0.034461        -0.9377
  23   0.0000       0.054544         1.4842
  24   0.0000       0.099381         2.7043
  25   0.0000       0.099381         2.7043

MULLIKEN ATOMIC CHARGES
-----------------------
   0 C :   -0.108975
   1 C :   -0.108745
   2 C :   -0.109084
   3 C :   -0.108993
   4 C :   -0.108734
   5 C :   -0.109101
   6 H :    0.108936
   7 H :    0.108921
   8 H :    0.108962
   9 H :    0.108934
  10 H :    0.108919
  11 H :    0.108960
Sum of atomic charges:    0.0000000

LOEWDIN ATOMIC CHARGES
----------------------
   0 C :   -0.142305
   1 C :   -0.142264
   2 C :   -0.142297
   3 C :   -0.142304
   4 C :   -0.142263
   5 C :   -0.142297
   6 H :    0.142289
   7 H :    0.142286
   8 H :    0.142291
   9 H :    0.142289
  10 H :    0.142286
  11 H :    0.142291

  Mayer bond orders larger than 0.100000
B(  0-C ,  1-C ) :   1.4012 B(  0-C ,  5-C ) :   1.4013 B(  0-C ,  6-H ) :   0.9690
B(  1-C ,  2-C ) :   1.4012 B(  1-C ,  7-H ) :   0.9690 B(  2-C ,  3-C ) :   1.4013
B(  2-C ,  8-H ) :   0.9689 B(  3-C ,  4-C ) :   1.4011 B(  3-C ,  9-H ) :   0.9690
B(  4-C ,  5-C ) :   1.4012 B(  4-C , 10-H ) :   0.9690 B(  5-C , 11-H ) :   0.9689

Dispersion correction           -0.003313661
FINAL SINGLE POINT ENERGY      -232.196219921241

DIPOLE MOMENT
-------------

Method             : SCF
Type of density    : Electron Density
Multiplicity       :   1
Irrep              :   0
Energy             :  -232.1952816694922603 Eh
Relativity type    :
Basis              : AO
                                X                 Y                 Z
Electronic contribution:     -0.000001355      -0.000005145       0.000000969
Nuclear contribution   :      0.000001637       0.000004982      -0.000001358
                        -----------------------------------------
Total Dipole Moment    :      0.000000282      -0.000000163      -0.000000388
                        -----------------------------------------
Magnitude (a.u.)       :      0.000000507
Magnitude (Debye)      :      0.000001288

VIBRATIONAL FREQUENCIES
-----------------------

Scaling factor for frequencies =  1.000000000  (already applied!)

     0:       0.00 cm**-1
     1:       0.00 cm**-1
     2:       0.00 cm**-1
     3:       0.00 cm**-1
     4:       0.00 cm**-1
     5:       0.00 cm**-1
     6:     410.25 cm**-1
     7:     411.24 cm**-1
     8:     624.36 cm**-1
     9:     624.76 cm**-1
    10:     676.75 cm**-1
    11:     729.18 cm**-1
    12:     856.91 cm**-1
    13:     857.10 cm**-1
    14:     960.28 cm**-1
    15:     960.57 cm**-1
    16:     996.09 cm**-1
    17:    1008.45 cm**-1
    18:    1036.10 cm**-1
    19:    1057.83 cm**-1
    20:    1057.95 cm**-1
    21:    1173.69 cm**-1
    22:    1197.10 cm**-1
    23:    1197.28 cm**-1
    24:    1341.97 cm**-1
    25:    1375.25 cm**-1
    26:    1506.66 cm**-1
    27:    1506.95 cm**-1
    28:    1624.15 cm**-1
    29:    1624.68 cm**-1
    30:    3148.82 cm**-1
    31:    3157.25 cm**-1
    32:    3157.71 cm**-1
    33:    3172.65 cm**-1
    34:    3172.91 cm**-1
    35:    3182.67 cm**-1

IR SPECTRUM
-----------

 Mode   freq       eps      Int      T**2         TX        TY        TZ
       cm**-1   L/(mol*cm) km/mol    a.u.
----------------------------------------------------------------------------
  6:    410.25   0.000000    0.00  0.000000  (-0.000012 -0.000018  0.000152)
  7:    411.24   0.000000    0.00  0.000000  (-0.000018  0.000012 -0.000174)
  8:    624.36   0.000000    0.00  0.000000  (-0.000000 -0.000000 -0.000001)
  9:    624.76   0.000000    0.00  0.000000  (-0.000000  0.000000 -0.000003)
 10:    676.75   0.021954  110.95  0.010123  ( 0.000010  0.000010  0.100615)
 11:    729.18   0.000000    0.00  0.000000  ( 0.000050 -0.000045  0.000000)
 12:    856.91   0.000000    0.00  0.000000  ( 0.000006  0.000005 -0.000002)
 13:    857.10   0.000000    0.00  0.000000  ( 0.000005 -0.000006  0.000002)
 14:    960.28   0.000000    0.00  0.000000  (-0.000000  0.000005  0.000027)
 15:    960.57   0.000000    0.00  0.000000  (-0.000005 -0.000000 -0.000055)
 16:    996.09   0.000000    0.00  0.000000  (-0.000008  0.000008 -0.000000)
 17:   1008.45   0.000000    0.00  0.000000  ( 0.000000  0.000001  0.000000)
 18:   1036.10   0.000000    0.00  0.000000  (-0.000090  0.000076  0.000000)
 19:   1057.83   0.001165    5.89  0.000344  ( 0.007656  0.016881  0.000002)
 20:   1057.95   0.001050    5.31  0.000310  ( 0.015858 -0.007641  0.000001)
 21:   1173.69   0.000002    0.01  0.000000  ( 0.000097  0.000688  0.000000)
 22:   1197.10   0.000000    0.00  0.000000  ( 0.000000 -0.000000  0.000000)
 23:   1197.28   0.000000    0.00  0.000000  (-0.000000 -0.000000 -0.000000)
 24:   1341.97   0.000000    0.00  0.000000  (-0.000180  0.000259 -0.000000)
 25:   1375.25   0.000000    0.00  0.000000  (-0.000000 -0.000000 -0.000000)
 26:   1506.66   0.001341    6.78  0.000278  (-0.016037  0.004542 -0.000000)
 27:   1506.95   0.001449    7.32  0.000300  ( 0.004603  0.016700  0.000001)
 28:   1624.15   0.000000    0.00  0.000000  ( 0.000000  0.000000  0.000000)
 29:   1624.68   0.000000    0.00  0.000000  (-0.000000  0.000000  0.000000)
 30:   3148.82   0.000000    0.00  0.000000  (-0.000048 -0.000204  0.000000)
 31:   3157.25   0.000000    0.00  0.000000  ( 0.000003 -0.000008 -0.000000)
 32:   3157.71   0.000000    0.00  0.000000  (-0.000008 -0.000003  0.000000)
 33:   3172.65   0.007044   35.60  0.000693  (-0.018881  0.018339 -0.000000)
 34:   3172.91   0.007165   36.21  0.000705  (-0.018256 -0.019272 -0.000002)
 35:   3182.67   0.000000    0.00  0.000000  ( 0.000000  0.000018  0.000000)

--------------------------
THERMOCHEMISTRY AT 298.15K
--------------------------

Temperature         ...   298.15 K
Pressure            ...     1.00 atm
Total Mass          ...    78.11 AMU
Quasi RRHO          ...     True
Cut-Off Frequency   ...     1.00 cm^-1

Throughout the following assumptions are being made:
  (1) The electronic state is orbitally nondegenerate
  (2) There are no thermally accessible electronically excited states
  (3) Hindered rotations indicated by low frequency modes are not
      treated as such but are treated as vibrations and this may
      cause some error
  (4) All equations used are the standard statistical mechanics
      equations for an ideal gas
  (5) All vibrations are strictly harmonic

freq.     410.25  E(vib)   ...       0.19
freq.     411.24  E(vib)   ...       0.19
freq.     624.36  E(vib)   ...       0.09
freq.     624.76  E(vib)   ...       0.09
freq.     676.75  E(vib)   ...       0.08
freq.     729.18  E(vib)   ...       0.06
freq.     856.91  E(vib)   ...       0.04
freq.     857.10  E(vib)   ...       0.04
freq.     960.28  E(vib)   ...       0.03
freq.     960.57  E(vib)   ...       0.03
freq.     996.09  E(vib)   ...       0.02
freq.    1008.45  E(vib)   ...       0.02
freq.    1036.10  E(vib)   ...       0.02
freq.    1057.83  E(vib)   ...       0.02
freq.    1057.95  E(vib)   ...       0.02
freq.    1173.69  E(vib)   ...       0.01
freq.    1197.10  E(vib)   ...       0.01
freq.    1197.28  E(vib)   ...       0.01
freq.    1341.97  E(vib)   ...       0.01
freq.    1375.25  E(vib)   ...       0.01
freq.    1506.66  E(vib)   ...       0.00
freq.    1506.95  E(vib)   ...       0.00
freq.    1624.15  E(vib)   ...       0.00
freq.    1624.68  E(vib)   ...       0.00
freq.    3148.82  E(vib)   ...       0.00
freq.    3157.25  E(vib)   ...       0.00
freq.    3157.71  E(vib)   ...       0.00
freq.    3172.65  E(vib)   ...       0.00
freq.    3172.91  E(vib)   ...       0.00
freq.    3182.67  E(vib)   ...       0.00

------------
INNER ENERGY
------------

The inner energy is: U= E(el) + E(ZPE) + E(vib) + E(rot) + E(trans)
    E(el)   - is the total energy from the electronic structure calculation
              = E(kin-el) + E(nuc-el) + E(el-el) + E(nuc-nuc)
    E(ZPE)  - the the zero temperature vibrational energy from the frequency calculation
    E(vib)  - the the finite temperature correction to E(ZPE) due to population
              of excited vibrational states
    E(rot)  - is the rotational thermal energy
    E(trans)- is the translational thermal energy

Summary of contributions to the inner energy U:
Electronic energy                ...   -232.19621992 Eh
Zero point energy                ...      0.09980091 Eh      62.63 kcal/mol
Thermal vibrational correction   ...      0.00157817 Eh       0.99 kcal/mol
Thermal rotational correction    ...      0.00141627 Eh       0.89 kcal/mol
Thermal translational correction ...      0.00141627 Eh       0.89 kcal/mol
-----------------------------------------------------------------------
Total thermal energy                   -232.09200830 Eh

Summary of corrections to the electronic energy:
(perhaps to be used in another calculation)
Total thermal correction                  0.00441071 Eh       2.77 kcal/mol
Non-thermal (ZPE) correction              0.09980091 Eh      62.63 kcal/mol
-----------------------------------------------------------------------
Total correction                          0.10421162 Eh      65.39 kcal/mol

--------
ENTHALPY
--------

The enthalpy is H = U + kB*T
                kB is Boltzmann's constant
Total thermal energy              ...   -232.09200830 Eh
Thermal Enthalpy correction       ...      0.00094421 Eh       0.59 kcal/mol
-----------------------------------------------------------------------
Total Enthalpy                    ...   -232.09106409 Eh

Note: Rotational entropy computed according to Herzberg
Infrared and Raman Spectra, Chapter V,1, Van Nostrand Reinhold, 1945
Point Group:  D2h, Symmetry Number:   4
Rotational constants in cm-1:     0.190291     0.190268     0.095140

Vibrational entropy computed according to the QRRHO of S. Grimme
Chem.Eur.J. 2012 18 9955 using a reference frequency of 100.0 cm-1

-------
ENTROPY
-------

The entropy contributions are T*S = T*(S(el)+S(vib)+S(rot)+S(trans))
     S(el)   - electronic entropy
     S(vib)  - vibrational entropy
     S(rot)  - rotational entropy
     S(trans)- translational entropy
The entropies will be listed as multiplied by the temperature to get
units of energy

Electronic entropy                ...      0.00000000 Eh      0.00 kcal/mol
Vibrational entropy               ...      0.00211667 Eh      1.33 kcal/mol
Rotational entropy                ...      0.01087909 Eh      6.83 kcal/mol
Translational entropy             ...      0.01852142 Eh     11.62 kcal/mol
-----------------------------------------------------------------------
Final entropy term                ...      0.03151718 Eh     19.78 kcal/mol

In case the symmetry of your molecule has not been determined correctly
or in case you have a reason to use a different symmetry number we print
out the resulting rotational entropy values for sn=1,12:

 non-linear molecules -----------------------------------
|  sn= 1 | S(rot)=       0.01218800 Eh      7.65 kcal/mol|
|  sn= 2 | S(rot)=       0.01153354 Eh      7.24 kcal/mol|
|  sn= 3 | S(rot)=       0.01115071 Eh      7.00 kcal/mol|
|  sn= 4 | S(rot)=       0.01087909 Eh      6.83 kcal/mol|
|  sn= 5 | S(rot)=       0.01066840 Eh      6.69 kcal/mol|
|  sn= 6 | S(rot)=       0.01049626 Eh      6.59 kcal/mol|
|  sn= 7 | S(rot)=       0.01035071 Eh      6.50 kcal/mol|
|  sn= 8 | S(rot)=       0.01022463 Eh      6.42 kcal/mol|
|  sn= 9 | S(rot)=       0.01011342 Eh      6.35 kcal/mol|
|  sn=10 | S(rot)=       0.01001394 Eh      6.28 kcal/mol|
|  sn=11 | S(rot)=       0.00992395 Eh      6.23 kcal/mol|
|  sn=12 | S(rot)=       0.00984180 Eh      6.18 kcal/mol|
 linear molecules ---------------------------------------
|  Dinfh | S(rot)=       0.00754690 Eh      4.74 kcal/mol|
|  Cinfv | S(rot)=       0.00820136 Eh      5.15 kcal/mol|
 --------------------------------------------------------

-------------------
GIBBS FREE ENERGY
-------------------

The Gibbs free energy is G = H - T*S

Total enthalpy                    ...   -232.09106409 Eh
Total entropy correction          ...     -0.03151718 Eh    -19.78 kcal/mol
-----------------------------------------------------------------------
Final Gibbs free energy         ...   -232.12258127 Eh

For completeness - the Gibbs free energy minus the electronic energy
G-E(el)                           ...      0.07363866 Eh     46.21 kcal/mol

                             ****ORCA TERMINATED NORMALLY****
TOTAL RUN TIME: 0 days 0 hours 5 minutes 19 seconds 439 msec
