                         Program Version 6.0.0  -   RELEASE  -
|  1> ! r2SCAN-3c DEF2-TZVP FREQ
|  2> * xyzfile 0 1 vacuum_censo.xyz
|  3>
|  4>                          ****END OF INPUT****

CARTESIAN COORDINATES (ANGSTROEM)
---------------------------------
  C     -1.165460   -0.761798   -0.000005
  C      0.077018   -1.390122   -0.000001
  C      1.242378   -0.628367   -0.000022
  C      1.165468    0.761808   -0.000009
  C     -0.077026    1.390131   -0.000003
  C     -1.242376    0.628364   -0.000014
  H     -2.074028   -1.355653   -0.000002
  H      0.137076   -2.473894   -0.000010
  H      2.210947   -1.118340   -0.000015
  H      2.074058    1.355681   -0.000015
  H     -0.137136    2.473914   -0.000010
  H     -2.210956    1.118280    0.000001

 Total Charge           Charge          ....    0
 Multiplicity           Mult            ....    1
 Number of Electrons    NEL             ....   42
 Basis Dimension        Dim             ....  222

ORBITAL ENERGIES
----------------

  NO   OCC          E(Eh)            E(eV)
   0   2.0000     -10.037425      -273.1322
   1   2.0000     -10.037235      -273.1270
   2   2.0000     -10.037229      -273.1269
   3   2.0000     -10.036794      -273.1151
   4   2.0000     -10.036789      -273.1149
   5   2.0000     -10.036574      -273.1091
   6   2.0000      -0.820774       -22.3344
   7   2.0000      -0.713767       -19.4226
   8   2.0000      -0.713763       -19.4225
   9   2.0000      -0.571165       -15.5422
  10   2.0000      -0.571141       -15.5415
  11   2.0000      -0.491894       -13.3851
  12   2.0000      -0.429940       -11.6993
  13   2.0000      -0.414728       -11.2853
  14   2.0000      -0.389826       -10.6077
  15   2.0000      -0.389809       -10.6072
  16   2.0000      -0.344939        -9.3863
  17   2.0000      -0.312827        -8.5125
  18   2.0000      -0.312790        -8.5114
  19   2.0000      -0.237564        -6.4644
  20   2.0000      -0.237556        -6.4642
  21   0.0000      -0.034137        -0.9289
  22   0.0000      -0.034111        -0.9282
  23   0.0000       0.054549         1.4843
  24   0.0000       0.099417         2.7053
  25   0.0000       0.099440         2.7059

MULLIKEN ATOMIC CHARGES
-----------------------
   0 C :   -0.108818
   1 C :   -0.108610
   2 C :   -0.108617
   3 C :   -0.108827
   4 C :   -0.108604
   5 C :   -0.108621
   6 H :    0.108715
   7 H :    0.108676
   8 H :    0.108658
   9 H :    0.108715
  10 H :    0.108676
  11 H :    0.108657
Sum of atomic charges:    0.0000000

LOEWDIN ATOMIC CHARGES
----------------------
   0 C :   -0.142367
   1 C :   -0.142393
   2 C :   -0.142404
   3 C :   -0.142364
   4 C :   -0.142391
   5 C :   -0.142406
   6 H :    0.142386
   7 H :    0.142386
   8 H :    0.142389
   9 H :    0.142390
  10 H :    0.142388
  11 H :    0.142387

  Mayer bond orders larger than 0.100000
B(  0-C ,  1-C ) :   1.4015 B(  0-C ,  5-C ) :   1.4016 B(  0-C ,  6-H ) :   0.9691
B(  1-C ,  2-C ) :   1.4017 B(  1-C ,  7-H ) :   0.9691 B(  2-C ,  3-C ) :   1.4015
B(  2-C ,  8-H ) :   0.9691 B(  3-C ,  4-C ) :   1.4015 B(  3-C ,  9-H ) :   0.9691
B(  4-C ,  5-C ) :   1.4017 B(  4-C , 10-H ) :   0.9691 B(  5-C , 11-H ) :   0.9691

Dispersion correction           -0.003315289
FINAL SINGLE POINT ENERGY      -232.196258695182

DIPOLE MOMENT
-------------

Method             : SCF
Type of density    : Electron Density
Multiplicity       :   1
Irrep              :   0
Energy             :  -232.1953251803228966 Eh
Relativity type    :
Basis              : AO
                                X                 Y                 Z
Electronic contribution:      0.000021883       0.000014489      -0.000002119
Nuclear contribution   :     -0.000037091      -0.000023984       0.000002967
                        -----------------------------------------
Total Dipole Moment    :     -0.000015208      -0.000009495       0.000000849
                        -----------------------------------------
Magnitude (a.u.)       :      0.000017948
Magnitude (Debye)      :      0.000045621

VIBRATIONAL FREQUENCIES
-----------------------

Scaling factor for frequencies =  1.000000000  (already applied!)

     0:       0.00 cm**-1
     1:       0.00 cm**-1
     2:       0.00 cm**-1
     3:       0.00 cm**-1
     4:       0.00 cm**-1
     5:       0.00 cm**-1
     6:     407.89 cm**-1
     7:     408.52 cm**-1
     8:     624.61 cm**-1
     9:     624.75 cm**-1
    10:     674.70 cm**-1
    11:     728.48 cm**-1
    12:     855.89 cm**-1
    13:     856.09 cm**-1
    14:     959.86 cm**-1
    15:     960.13 cm**-1
    16:     995.89 cm**-1
    17:    1012.61 cm**-1
    18:    1036.80 cm**-1
    19:    1059.83 cm**-1
    20:    1060.36 cm**-1
    21:    1174.53 cm**-1
    22:    1198.22 cm**-1
    23:    1198.44 cm**-1
    24:    1349.55 cm**-1
    25:    1375.62 cm**-1
    26:    1509.06 cm**-1
    27:    1509.19 cm**-1
    28:    1629.56 cm**-1
    29:    1630.13 cm**-1
    30:    3151.17 cm**-1
    31:    3159.64 cm**-1
    32:    3160.19 cm**-1
    33:    3175.16 cm**-1
    34:    3175.65 cm**-1
    35:    3185.40 cm**-1

IR SPECTRUM
-----------

 Mode   freq       eps      Int      T**2         TX        TY        TZ
       cm**-1   L/(mol*cm) km/mol    a.u.
----------------------------------------------------------------------------
  6:    407.89   0.000000    0.00  0.000000  ( 0.000002  0.000002 -0.000137)
  7:    408.52   0.000000    0.00  0.000000  (-0.000002  0.000002 -0.000156)
  8:    624.61   0.000000    0.00  0.000000  (-0.000001  0.000000 -0.000002)
  9:    624.75   0.000000    0.00  0.000000  ( 0.000000  0.000001 -0.000002)
 10:    674.70   0.021877  110.56  0.010119  ( 0.000001  0.000000 -0.100591)
 11:    728.48   0.000000    0.00  0.000000  ( 0.000036 -0.000037 -0.000000)
 12:    855.89   0.000000    0.00  0.000000  ( 0.000005 -0.000004  0.000024)
 13:    856.09   0.000000    0.00  0.000000  ( 0.000004  0.000005 -0.000011)
 14:    959.86   0.000000    0.00  0.000000  ( 0.000001  0.000000 -0.000055)
 15:    960.13   0.000000    0.00  0.000000  ( 0.000001 -0.000001  0.000110)
 16:    995.89   0.000000    0.00  0.000000  (-0.000006  0.000006 -0.000000)
 17:   1012.61   0.000000    0.00  0.000000  (-0.000003 -0.000002  0.000000)
 18:   1036.80   0.000000    0.00  0.000000  (-0.000052  0.000072 -0.000000)
 19:   1059.83   0.001181    5.97  0.000348  ( 0.018624 -0.000966 -0.000000)
 20:   1060.36   0.001058    5.34  0.000311  (-0.001192 -0.017603 -0.000000)
 21:   1174.53   0.000003    0.01  0.000001  (-0.000854 -0.000043  0.000000)
 22:   1198.22   0.000000    0.00  0.000000  ( 0.000001 -0.000000 -0.000000)
 23:   1198.44   0.000000    0.00  0.000000  (-0.000000 -0.000001 -0.000000)
 24:   1349.55   0.000000    0.00  0.000000  (-0.000154  0.000058  0.000000)
 25:   1375.62   0.000000    0.00  0.000000  (-0.000001  0.000002 -0.000000)
 26:   1509.06   0.001376    6.96  0.000285  (-0.011839  0.012020  0.000000)
 27:   1509.19   0.001410    7.13  0.000292  ( 0.012652  0.011470 -0.000000)
 28:   1629.56   0.000000    0.00  0.000000  (-0.000000 -0.000000  0.000000)
 29:   1630.13   0.000000    0.00  0.000000  (-0.000000  0.000000 -0.000000)
 30:   3151.17   0.000001    0.01  0.000000  (-0.000370 -0.000093  0.000000)
 31:   3159.64   0.000000    0.00  0.000000  ( 0.000044 -0.000100 -0.000000)
 32:   3160.19   0.000000    0.00  0.000000  (-0.000106 -0.000041  0.000000)
 33:   3175.16   0.007108   35.92  0.000699  ( 0.018050 -0.019307 -0.000000)
 34:   3175.65   0.007190   36.34  0.000707  (-0.019701 -0.017845  0.000000)
 35:   3185.40   0.000001    0.00  0.000000  (-0.000211 -0.000130  0.000000)

--------------------------
THERMOCHEMISTRY AT 298.15K
--------------------------

Temperature         ...   298.15 K
Pressure            ...     1.00 atm
Total Mass          ...    78.11 AMU
Quasi RRHO          ...     True
Cut-Off Frequency   ...     1.00 cm^-1

Throughout the following assumptions are being made:
  (1) The electronic state is orbitally nondegenerate
  (2) There are no thermally accessible electronically excited states
  (3) Hindered rotations indicated by low frequency modes are not
      treated as such but are treated as vibrations and this may
      cause some error
  (4) All equations used are the standard statistical mechanics
      equations for an ideal gas
  (5) All vibrations are strictly harmonic

freq.     407.89  E(vib)   ...       0.19
freq.     408.52  E(vib)   ...       0.19
freq.     624.61  E(vib)   ...       0.09
freq.     624.75  E(vib)   ...       0.09
freq.     674.70  E(vib)   ...       0.08
freq.     728.48  E(vib)   ...       0.06
freq.     855.89  E(vib)   ...       0.04
freq.     856.09  E(vib)   ...       0.04
freq.     959.86  E(vib)   ...       0.03
freq.     960.13  E(vib)   ...       0.03
freq.     995.89  E(vib)   ...       0.02
freq.    1012.61  E(vib)   ...       0.02
freq.    1036.80  E(vib)   ...       0.02
freq.    1059.83  E(vib)   ...       0.02
freq.    1060.36  E(vib)   ...       0.02
freq.    1174.53  E(vib)   ...       0.01
freq.    1198.22  E(vib)   ...       0.01
freq.    1198.44  E(vib)   ...       0.01
freq.    1349.55  E(vib)   ...       0.01
freq.    1375.62  E(vib)   ...       0.01
freq.    1509.06  E(vib)   ...       0.00
freq.    1509.19  E(vib)   ...       0.00
freq.    1629.56  E(vib)   ...       0.00
freq.    1630.13  E(vib)   ...       0.00
freq.    3151.17  E(vib)   ...       0.00
freq.    3159.64  E(vib)   ...       0.00
freq.    3160.19  E(vib)   ...       0.00
freq.    3175.16  E(vib)   ...       0.00
freq.    3175.65  E(vib)   ...       0.00
freq.    3185.40  E(vib)   ...       0.00

------------
INNER ENERGY
------------

The inner energy is: U= E(el) + E(ZPE) + E(vib) + E(rot) + E(trans)
    E(el)   - is the total energy from the electronic structure calculation
              = E(kin-el) + E(nuc-el) + E(el-el) + E(nuc-nuc)
    E(ZPE)  - the the zero temperature vibrational energy from the frequency calculation
    E(vib)  - the the finite temperature correction to E(ZPE) due to population
              of excited vibrational states
    E(rot)  - is the rotational thermal energy
    E(trans)- is the translational thermal energy

Summary of contributions to the inner energy U:
Electronic energy                ...   -232.19625870 Eh
Zero point energy                ...      0.09989296 Eh      62.68 kcal/mol
Thermal vibrational correction   ...      0.00158276 Eh       0.99 kcal/mol
Thermal rotational correction    ...      0.00141627 Eh       0.89 kcal/mol
Thermal translational correction ...      0.00141627 Eh       0.89 kcal/mol
-----------------------------------------------------------------------
Total thermal energy                   -232.09195043 Eh

Summary of corrections to the electronic energy:
(perhaps to be used in another calculation)
Total thermal correction                  0.00441530 Eh       2.77 kcal/mol
Non-thermal (ZPE) correction              0.09989296 Eh      62.68 kcal/mol
-----------------------------------------------------------------------
Total correction                          0.10430826 Eh      65.45 kcal/mol

--------
ENTHALPY
--------

The enthalpy is H = U + kB*T
                kB is Boltzmann's constant
Total thermal energy              ...   -232.09195043 Eh
Thermal Enthalpy correction       ...      0.00094421 Eh       0.59 kcal/mol
-----------------------------------------------------------------------
Total Enthalpy                    ...   -232.09100622 Eh

Note: Rotational entropy computed according to Herzberg
Infrared and Raman Spectra, Chapter V,1, Van Nostrand Reinhold, 1945
Point Group:  D2h, Symmetry Number:   4
Rotational constants in cm-1:     0.190675     0.190662     0.095334

Vibrational entropy computed according to the QRRHO of S. Grimme
Chem.Eur.J. 2012 18 9955 using a reference frequency of 100.0 cm-1

-------
ENTROPY
-------

The entropy contributions are T*S = T*(S(el)+S(vib)+S(rot)+S(trans))
     S(el)   - electronic entropy
     S(vib)  - vibrational entropy
     S(rot)  - rotational entropy
     S(trans)- translational entropy
The entropies will be listed as multiplied by the temperature to get
units of energy

Electronic entropy                ...      0.00000000 Eh      0.00 kcal/mol
Vibrational entropy               ...      0.00212520 Eh      1.33 kcal/mol
Rotational entropy                ...      0.01087620 Eh      6.82 kcal/mol
Translational entropy             ...      0.01852142 Eh     11.62 kcal/mol
-----------------------------------------------------------------------
Final entropy term                ...      0.03152282 Eh     19.78 kcal/mol

In case the symmetry of your molecule has not been determined correctly
or in case you have a reason to use a different symmetry number we print
out the resulting rotational entropy values for sn=1,12:

 non-linear molecules -----------------------------------
|  sn= 1 | S(rot)=       0.01218511 Eh      7.65 kcal/mol|
|  sn= 2 | S(rot)=       0.01153065 Eh      7.24 kcal/mol|
|  sn= 3 | S(rot)=       0.01114782 Eh      7.00 kcal/mol|
|  sn= 4 | S(rot)=       0.01087620 Eh      6.82 kcal/mol|
|  sn= 5 | S(rot)=       0.01066551 Eh      6.69 kcal/mol|
|  sn= 6 | S(rot)=       0.01049336 Eh      6.58 kcal/mol|
|  sn= 7 | S(rot)=       0.01034782 Eh      6.49 kcal/mol|
|  sn= 8 | S(rot)=       0.01022174 Eh      6.41 kcal/mol|
|  sn= 9 | S(rot)=       0.01011053 Eh      6.34 kcal/mol|
|  sn=10 | S(rot)=       0.01001105 Eh      6.28 kcal/mol|
|  sn=11 | S(rot)=       0.00992106 Eh      6.23 kcal/mol|
|  sn=12 | S(rot)=       0.00983891 Eh      6.17 kcal/mol|
 linear molecules ---------------------------------------
|  Dinfh | S(rot)=       0.00754498 Eh      4.73 kcal/mol|
|  Cinfv | S(rot)=       0.00819943 Eh      5.15 kcal/mol|
 --------------------------------------------------------

-------------------
GIBBS FREE ENERGY
-------------------

The Gibbs free energy is G = H - T*S

Total enthalpy                    ...   -232.09100622 Eh
Total entropy correction          ...     -0.03152282 Eh    -19.78 kcal/mol
-----------------------------------------------------------------------
Final Gibbs free energy         ...   -232.12252904 Eh

For completeness - the Gibbs free energy minus the electronic energy
G-E(el)                           ...      0.07372965 Eh     46.27 kcal/mol

                             ****ORCA TERMINATED NORMALLY****
TOTAL RUN TIME: 0 days 0 hours 5 minutes 26 seconds 635 msec
