                         Program Version 6.0.1  -  RELEASE   -
|  1> ! pbe def2-sv(p) def2/J RI DEFGRID1 loosescf d4 GCP(DFT/SV(P)) printgap
|  2> %output
|  3>     printlevel normal
|  4> end
|  5> * xyz 0 1
|  6> C -1.6275990571 -0.9853943984 -0.9066518379
|  7> C -1.2629038847 -0.5631320431 0.5373453946
|  8> H -2.096023129 -0.7982333917 1.2086165098
|  9> C -0.9338267595 0.9256987239 0.7179890333
| 10> H -1.7580558319 1.5513775606 0.364024518
| 11> C 0.3328511489 1.3167111282 -0.0728389998
| 12> H 0.9018367656 2.0320073416 0.5371250421
| 13> C 1.2605970735 0.1285464408 -0.3824128221
| 14> H 1.0325016199 -0.2334663489 -1.3968138662
| 15> C 1.1044488587 -1.0735836444 0.5677702683
| 16> H 1.7630716152 -0.9150488693 1.4438336807
| 17> O -0.1796285041 -1.3098256263 1.0830493417
| 18> O 1.5505942721 -2.188237632 -0.1558303968
| 19> O 2.5848049918 0.6042296058 -0.3425140495
| 20> O -0.0877019947 1.9223964132 -1.2774817781
| 21> O -0.7865965317 1.2064882532 2.0843867491
| 22> O -2.2385246457 0.024877504 -1.6543707228
| 23> H -2.3494554408 -1.8049217988 -0.8626810557
| 24> H -0.7281252306 -1.3656529021 -1.4083846818
| 25> H 1.3310702827 -2.9856538065 0.3404060588
| 26> H 3.1790390723 -0.1266017052 -0.549701727
| 27> H 0.6873385926 2.2722916987 -1.7317472042
| 28> H -0.3018797577 0.4772149281 2.49355596
| 29> H -1.6187284542 0.7635469792 -1.7632353201
| 30> *
| 31>
| 32>                          ****END OF INPUT****

CARTESIAN COORDINATES (ANGSTROEM)
---------------------------------
  C     -1.627599   -0.985394   -0.906652
  C     -1.262904   -0.563132    0.537345
  H     -2.096023   -0.798233    1.208617
  C     -0.933827    0.925699    0.717989
  H     -1.758056    1.551378    0.364025
  C      0.332851    1.316711   -0.072839
  H      0.901837    2.032007    0.537125
  C      1.260597    0.128546   -0.382413
  H      1.032502   -0.233466   -1.396814
  C      1.104449   -1.073584    0.567770
  H      1.763072   -0.915049    1.443834
  O     -0.179629   -1.309826    1.083049
  O      1.550594   -2.188238   -0.155830
  O      2.584805    0.604230   -0.342514
  O     -0.087702    1.922396   -1.277482
  O     -0.786597    1.206488    2.084387
  O     -2.238525    0.024878   -1.654371
  H     -2.349455   -1.804922   -0.862681
  H     -0.728125   -1.365653   -1.408385
  H      1.331070   -2.985654    0.340406
  H      3.179039   -0.126602   -0.549702
  H      0.687339    2.272292   -1.731747
  H     -0.301880    0.477215    2.493556
  H     -1.618728    0.763547   -1.763235

 Total Charge           Charge          ....    0
 Multiplicity           Mult            ....    1
 Number of Electrons    NEL             ....   96
 Basis Dimension        Dim             ....  192

ORBITAL ENERGIES
----------------

  NO   OCC          E(Eh)            E(eV)
   0   2.0000     -18.785817      -511.1881
   1   2.0000     -18.777874      -510.9719
   2   2.0000     -18.770814      -510.7798
   3   2.0000     -18.766254      -510.6557
   4   2.0000     -18.750951      -510.2393
   5   2.0000     -18.735300      -509.8134
   6   2.0000      -9.997363      -272.0421
   7   2.0000      -9.952630      -270.8248
   8   2.0000      -9.951479      -270.7935
   9   2.0000      -9.947294      -270.6796
  10   2.0000      -9.945217      -270.6231
  11   2.0000      -9.929160      -270.1862
  12   2.0000      -0.993976       -27.0475
  13   2.0000      -0.957833       -26.0640
  14   2.0000      -0.944970       -25.7139
  15   2.0000      -0.933576       -25.4039
  16   2.0000      -0.918486       -24.9933
  17   2.0000      -0.913002       -24.8440
  18   2.0000      -0.708032       -19.2665
  19   2.0000      -0.693126       -18.8609
  20   2.0000      -0.628326       -17.0976
  21   2.0000      -0.595297       -16.1989
  22   2.0000      -0.578174       -15.7329
  23   2.0000      -0.527633       -14.3576
  24   2.0000      -0.507612       -13.8128
  25   2.0000      -0.500402       -13.6166
  26   2.0000      -0.485168       -13.2021
  27   2.0000      -0.461007       -12.5446
  28   2.0000      -0.454134       -12.3576
  29   2.0000      -0.437505       -11.9051
  30   2.0000      -0.413923       -11.2634
  31   2.0000      -0.401662       -10.9298
  32   2.0000      -0.388483       -10.5712
  33   2.0000      -0.383725       -10.4417
  34   2.0000      -0.372170       -10.1273
  35   2.0000      -0.353848        -9.6287
  36   2.0000      -0.349194        -9.5021
  37   2.0000      -0.327861        -8.9215
  38   2.0000      -0.307932        -8.3793
  39   2.0000      -0.302394        -8.2285
  40   2.0000      -0.281420        -7.6578
  41   2.0000      -0.276036        -7.5113
  42   2.0000      -0.255722        -6.9585
  43   2.0000      -0.249320        -6.7843
  44   2.0000      -0.244661        -6.6576
  45   2.0000      -0.228684        -6.2228
  46   2.0000      -0.221603        -6.0301
  47   2.0000      -0.206000        -5.6055
  48   0.0000       0.013981         0.3804
  49   0.0000       0.021851         0.5946
  50   0.0000       0.029565         0.8045
  51   0.0000       0.039197         1.0666
  52   0.0000       0.053109         1.4452

MULLIKEN ATOMIC CHARGES
-----------------------
   0 C :    0.042675
   1 C :   -0.018065
   2 H :    0.083351
   3 C :    0.021850
   4 H :    0.091985
   5 C :    0.103943
   6 H :    0.081327
   7 C :    0.005267
   8 H :    0.078008
   9 C :    0.167280
  10 H :    0.058436
  11 O :   -0.321626
  12 O :   -0.401726
  13 O :   -0.418209
  14 O :   -0.423501
  15 O :   -0.414508
  16 O :   -0.440551
  17 H :    0.085569
  18 H :    0.087723
  19 H :    0.302081
  20 H :    0.307896
  21 H :    0.317195
  22 H :    0.300465
  23 H :    0.303133
Sum of atomic charges:    0.0000000

LOEWDIN ATOMIC CHARGES
----------------------
   0 C :   -0.139791
   1 C :   -0.075630
   2 H :    0.121239
   3 C :   -0.073709
   4 H :    0.126393
   5 C :   -0.065474
   6 H :    0.119772
   7 C :   -0.092582
   8 H :    0.113129
   9 C :   -0.013946
  10 H :    0.090988
  11 O :   -0.148434
  12 O :   -0.320509
  13 O :   -0.318367
  14 O :   -0.306830
  15 O :   -0.309425
  16 O :   -0.338472
  17 H :    0.116614
  18 H :    0.097193
  19 H :    0.286301
  20 H :    0.289684
  21 H :    0.296370
  22 H :    0.278436
  23 H :    0.267049

  Mayer bond orders larger than 0.100000
B(  0-C ,  1-C ) :   0.9832 B(  0-C , 16-O ) :   1.1333 B(  0-C , 17-H ) :   0.9189
B(  0-C , 18-H ) :   0.9080 B(  1-C ,  2-H ) :   0.8881 B(  1-C ,  3-C ) :   1.0577
B(  1-C , 11-O ) :   0.9528 B(  3-C ,  4-H ) :   0.8811 B(  3-C ,  5-C ) :   0.9794
B(  3-C , 15-O ) :   1.0590 B(  5-C ,  6-H ) :   0.8687 B(  5-C ,  7-C ) :   1.0110
B(  5-C , 14-O ) :   1.0098 B(  7-C ,  8-H ) :   0.8758 B(  7-C ,  9-C ) :   1.0085
B(  7-C , 13-O ) :   1.0589 B(  9-C , 10-H ) :   0.8943 B(  9-C , 11-O ) :   1.0362
B(  9-C , 12-O ) :   1.1067 B( 12-O , 19-H ) :   0.8408 B( 13-O , 20-H ) :   0.8426
B( 14-O , 21-H ) :   0.8387 B( 14-O , 23-H ) :   0.1082 B( 15-O , 22-H ) :   0.8358
B( 16-O , 23-H ) :   0.7971

Dispersion correction           -0.025617285
FINAL SINGLE POINT ENERGY      -685.687815328843

DIPOLE MOMENT
-------------

Method             : SCF
Type of density    : Electron Density
Multiplicity       :   1
Irrep              :   0
Energy             :  -685.8208585089560074 Eh
Relativity type    :
Basis              : AO
                                X                 Y                 Z
Electronic contribution:      1.115836236       0.421245553       1.316149046
Nuclear contribution   :      0.052444603      -1.059227674      -1.246970031
                        -----------------------------------------
Total Dipole Moment    :      1.168280839      -0.637982120       0.069179015
                        -----------------------------------------
Magnitude (a.u.)       :      1.332924244
Magnitude (Debye)      :      3.388024177

Rotational constants in cm-1:             0.035579             0.028853             0.025863
Rotational constants in MHz :          1066.635386           865.003795           775.346269

                             ****ORCA TERMINATED NORMALLY****
TOTAL RUN TIME: 0 days 0 hours 0 minutes 8 seconds 420 msec
