                         Program Version 6.0.1  -  RELEASE   -
|  1> ! pbe def2-sv(p) def2/J RI DEFGRID1 loosescf d4 GCP(DFT/SV(P)) printgap
|  2> %output
|  3>     printlevel normal
|  4> end
|  5> * xyz 0 1
|  6> C -2.7499943807 0.6607013159 -0.7889129064
|  7> C -1.7547948095 -0.1008296625 0.0503556005
|  8> O -2.0782653153 -0.7543947199 1.0094361748
|  9> C -0.3093019988 0.0413269077 -0.3930539502
| 10> C 0.4598313868 -1.2645220423 -0.1823376375
| 11> C 1.9311791049 -1.0929122737 -0.5430384514
| 12> C 2.5604567223 0.0219454388 0.2861219814
| 13> C 1.8022210585 1.3286017252 0.0765400955
| 14> C 0.3319288832 1.1587063454 0.4450675625
| 15> H -3.7264445165 0.6626627521 -0.3119960335
| 16> H -2.4093498173 1.68136331 -0.9454117087
| 17> H -2.8299497551 0.1782364604 -1.7617457578
| 18> H -0.2740665898 0.3265915356 -1.4491485118
| 19> H 0.363281116 -1.561010713 0.8634312653
| 20> H 0.0138024139 -2.0522366646 -0.7939073074
| 21> H 2.4625777589 -2.0308680951 -0.3712487494
| 22> H 2.0195278515 -0.8488298625 -1.6048631884
| 23> H 2.5260050297 -0.2500629963 1.3432105742
| 24> H 3.6080239507 0.150322669 0.0060812837
| 25> H 2.2422216116 2.1188055744 0.688337864
| 26> H 1.8822705126 1.6315559484 -0.9703939583
| 27> H 0.2461395964 0.8970221114 1.5017708893
| 28> H -0.2031147654 2.0981015417 0.2859519631
| 29> *
| 30>
| 31>                          ****END OF INPUT****

CARTESIAN COORDINATES (ANGSTROEM)
---------------------------------
  C     -2.749994    0.660701   -0.788913
  C     -1.754795   -0.100830    0.050356
  O     -2.078265   -0.754395    1.009436
  C     -0.309302    0.041327   -0.393054
  C      0.459831   -1.264522   -0.182338
  C      1.931179   -1.092912   -0.543038
  C      2.560457    0.021945    0.286122
  C      1.802221    1.328602    0.076540
  C      0.331929    1.158706    0.445068
  H     -3.726445    0.662663   -0.311996
  H     -2.409350    1.681363   -0.945412
  H     -2.829950    0.178236   -1.761746
  H     -0.274067    0.326592   -1.449149
  H      0.363281   -1.561011    0.863431
  H      0.013802   -2.052237   -0.793907
  H      2.462578   -2.030868   -0.371249
  H      2.019528   -0.848830   -1.604863
  H      2.526005   -0.250063    1.343211
  H      3.608024    0.150323    0.006081
  H      2.242222    2.118806    0.688338
  H      1.882271    1.631556   -0.970394
  H      0.246140    0.897022    1.501771
  H     -0.203115    2.098102    0.285952

 Total Charge           Charge          ....    0
 Multiplicity           Mult            ....    1
 Number of Electrons    NEL             ....   70
 Basis Dimension        Dim             ....  154

ORBITAL ENERGIES
----------------

  NO   OCC          E(Eh)            E(eV)
   0   2.0000     -18.735347      -509.8147
   1   2.0000      -9.969611      -271.2869
   2   2.0000      -9.898375      -269.3485
   3   2.0000      -9.893954      -269.2282
   4   2.0000      -9.887685      -269.0576
   5   2.0000      -9.885593      -269.0007
   6   2.0000      -9.883752      -268.9506
   7   2.0000      -9.883656      -268.9480
   8   2.0000      -9.882739      -268.9230
   9   2.0000      -0.938437       -25.5362
  10   2.0000      -0.762576       -20.7508
  11   2.0000      -0.693260       -18.8646
  12   2.0000      -0.670208       -18.2373
  13   2.0000      -0.655666       -17.8416
  14   2.0000      -0.558772       -15.2050
  15   2.0000      -0.546607       -14.8739
  16   2.0000      -0.502328       -13.6690
  17   2.0000      -0.469614       -12.7788
  18   2.0000      -0.427947       -11.6450
  19   2.0000      -0.417181       -11.3521
  20   2.0000      -0.405383       -11.0310
  21   2.0000      -0.399459       -10.8698
  22   2.0000      -0.390549       -10.6274
  23   2.0000      -0.375340       -10.2135
  24   2.0000      -0.360822        -9.8185
  25   2.0000      -0.342465        -9.3189
  26   2.0000      -0.338991        -9.2244
  27   2.0000      -0.331755        -9.0275
  28   2.0000      -0.309822        -8.4307
  29   2.0000      -0.308218        -8.3870
  30   2.0000      -0.302411        -8.2290
  31   2.0000      -0.284946        -7.7538
  32   2.0000      -0.272152        -7.4056
  33   2.0000      -0.262253        -7.1363
  34   2.0000      -0.192022        -5.2252
  35   0.0000      -0.044598        -1.2136
  36   0.0000       0.025686         0.6989
  37   0.0000       0.045954         1.2505
  38   0.0000       0.056766         1.5447
  39   0.0000       0.065878         1.7926

MULLIKEN ATOMIC CHARGES
-----------------------
   0 C :   -0.252205
   1 C :    0.043281
   2 O :   -0.162344
   3 C :   -0.197214
   4 C :   -0.120145
   5 C :   -0.135060
   6 C :   -0.163366
   7 C :   -0.120757
   8 C :   -0.150712
   9 H :    0.114906
  10 H :    0.119470
  11 H :    0.126468
  12 H :    0.061172
  13 H :    0.091245
  14 H :    0.083698
  15 H :    0.087047
  16 H :    0.071019
  17 H :    0.079103
  18 H :    0.086660
  19 H :    0.088350
  20 H :    0.072593
  21 H :    0.091813
  22 H :    0.084978
Sum of atomic charges:    0.0000000

LOEWDIN ATOMIC CHARGES
----------------------
   0 C :   -0.363216
   1 C :    0.050317
   2 O :   -0.121500
   3 C :   -0.171502
   4 C :   -0.213552
   5 C :   -0.225726
   6 C :   -0.227320
   7 C :   -0.224328
   8 C :   -0.207442
   9 H :    0.131971
  10 H :    0.136006
  11 H :    0.144068
  12 H :    0.117521
  13 H :    0.122724
  14 H :    0.117591
  15 H :    0.118089
  16 H :    0.112604
  17 H :    0.116397
  18 H :    0.116768
  19 H :    0.118503
  20 H :    0.114082
  21 H :    0.122904
  22 H :    0.115040

  Mayer bond orders larger than 0.100000
B(  0-C ,  1-C ) :   1.0821 B(  0-C ,  9-H ) :   0.9336 B(  0-C , 10-H ) :   0.9260
B(  0-C , 11-H ) :   0.9233 B(  1-C ,  2-O ) :   2.1968 B(  1-C ,  3-C ) :   0.9047
B(  3-C ,  4-C ) :   1.0741 B(  3-C ,  8-C ) :   1.0688 B(  3-C , 12-H ) :   0.8867
B(  4-C ,  5-C ) :   1.1370 B(  4-C , 13-H ) :   0.8996 B(  4-C , 14-H ) :   0.9224
B(  5-C ,  6-C ) :   1.1348 B(  5-C , 15-H ) :   0.9185 B(  5-C , 16-H ) :   0.9114
B(  6-C ,  7-C ) :   1.1369 B(  6-C , 17-H ) :   0.9152 B(  6-C , 18-H ) :   0.9197
B(  7-C ,  8-C ) :   1.1361 B(  7-C , 19-H ) :   0.9174 B(  7-C , 20-H ) :   0.9110
B(  8-C , 21-H ) :   0.9064 B(  8-C , 22-H ) :   0.9145

Dispersion correction           -0.021753179
FINAL SINGLE POINT ENERGY      -387.610592426988

DIPOLE MOMENT
-------------

Method             : SCF
Type of density    : Electron Density
Multiplicity       :   1
Irrep              :   0
Energy             :  -387.6882745220354991 Eh
Relativity type    :
Basis              : AO
                                X                 Y                 Z
Electronic contribution:     -5.136479992      -2.274995446       2.563522442
Nuclear contribution   :      5.523987237       2.804860905      -3.287309005
                        -----------------------------------------
Total Dipole Moment    :      0.387507245       0.529865460      -0.723786563
                        -----------------------------------------
Magnitude (a.u.)       :      0.977131648
Magnitude (Debye)      :      2.483671270

Rotational constants in cm-1:             0.104097             0.035110             0.030984
Rotational constants in MHz :          3120.741126          1052.570899           928.888575

                             ****ORCA TERMINATED NORMALLY****
TOTAL RUN TIME: 0 days 0 hours 0 minutes 10 seconds 957 msec
