                         Program Version 6.0.1  -  RELEASE   -
|  1> ! pbe def2-sv(p) def2/J RI DEFGRID1 loosescf d4 GCP(DFT/SV(P)) printgap
|  2> %output
|  3>     printlevel normal
|  4> end
|  5> * xyz 0 1
|  6> C 2.4603893866 -1.1040203956 0.4739771559
|  7> C 1.7004465226 0.0913714558 -0.0423916662
|  8> O 2.262534375 1.0873225537 -0.4360978907
|  9> C 0.2144352522 0.0211909888 -0.0093921274
| 10> C -0.5067940337 1.1955927782 0.2125259565
| 11> C -1.8880230572 1.1476228907 0.2361413484
| 12> C -2.5035753298 -0.0791254153 0.0279836924
| 13> N -1.8339858519 -1.1912695024 -0.2213936741
| 14> C -0.5162498656 -1.1438719888 -0.2437524209
| 15> H 1.8348864941 -1.9798960259 0.6038361633
| 16> H 2.8869314942 -0.8318923231 1.4393797206
| 17> H 3.2893376191 -1.3243848712 -0.1953859864
| 18> H 0.0311938994 2.119362053 0.3694925383
| 19> H -2.4739993286 2.0360538028 0.4121766075
| 20> H -3.580607335 -0.1796272305 0.0523022316
| 21> H -0.0304219457 -2.0792166121 -0.4891332612
| 22> *
| 23>
| 24>                          ****END OF INPUT****

CARTESIAN COORDINATES (ANGSTROEM)
---------------------------------
  C      2.460389   -1.104020    0.473977
  C      1.700447    0.091371   -0.042392
  O      2.262534    1.087323   -0.436098
  C      0.214435    0.021191   -0.009392
  C     -0.506794    1.195593    0.212526
  C     -1.888023    1.147623    0.236141
  C     -2.503575   -0.079125    0.027984
  N     -1.833986   -1.191270   -0.221394
  C     -0.516250   -1.143872   -0.243752
  H      1.834886   -1.979896    0.603836
  H      2.886931   -0.831892    1.439380
  H      3.289338   -1.324385   -0.195386
  H      0.031194    2.119362    0.369493
  H     -2.473999    2.036054    0.412177
  H     -3.580607   -0.179627    0.052302
  H     -0.030422   -2.079217   -0.489133

 Total Charge           Charge          ....    0
 Multiplicity           Mult            ....    1
 Number of Electrons    NEL             ....   64
 Basis Dimension        Dim             ....  140

ORBITAL ENERGIES
----------------

  NO   OCC          E(Eh)            E(eV)
   0   2.0000     -18.749126      -510.1897
   1   2.0000     -13.994810      -380.8181
   2   2.0000      -9.985307      -271.7140
   3   2.0000      -9.940550      -270.4961
   4   2.0000      -9.937570      -270.4150
   5   2.0000      -9.922282      -269.9990
   6   2.0000      -9.918915      -269.9074
   7   2.0000      -9.914285      -269.7814
   8   2.0000      -9.895018      -269.2571
   9   2.0000      -0.950131       -25.8544
  10   2.0000      -0.874108       -23.7857
  11   2.0000      -0.743318       -20.2267
  12   2.0000      -0.712489       -19.3878
  13   2.0000      -0.671124       -18.2622
  14   2.0000      -0.594957       -16.1896
  15   2.0000      -0.575663       -15.6646
  16   2.0000      -0.510869       -13.9015
  17   2.0000      -0.472927       -12.8690
  18   2.0000      -0.455349       -12.3907
  19   2.0000      -0.423783       -11.5317
  20   2.0000      -0.411121       -11.1872
  21   2.0000      -0.407261       -11.0821
  22   2.0000      -0.383608       -10.4385
  23   2.0000      -0.373168       -10.1544
  24   2.0000      -0.365194        -9.9374
  25   2.0000      -0.353916        -9.6305
  26   2.0000      -0.340977        -9.2784
  27   2.0000      -0.323083        -8.7915
  28   2.0000      -0.274699        -7.4750
  29   2.0000      -0.254712        -6.9311
  30   2.0000      -0.222398        -6.0518
  31   2.0000      -0.204920        -5.5762
  32   0.0000      -0.095358        -2.5948
  33   0.0000      -0.065547        -1.7836
  34   0.0000      -0.021012        -0.5718
  35   0.0000       0.042354         1.1525
  36   0.0000       0.054520         1.4836

MULLIKEN ATOMIC CHARGES
-----------------------
   0 C :   -0.263340
   1 C :    0.017914
   2 O :   -0.157409
   3 C :    0.013934
   4 C :   -0.037607
   5 C :   -0.063366
   6 C :   -0.051514
   7 N :   -0.049733
   8 C :   -0.093953
   9 H :    0.120285
  10 H :    0.137641
  11 H :    0.128631
  12 H :    0.075512
  13 H :    0.070897
  14 H :    0.078352
  15 H :    0.073754
Sum of atomic charges:   -0.0000000

LOEWDIN ATOMIC CHARGES
----------------------
   0 C :   -0.361639
   1 C :    0.046344
   2 O :   -0.120265
   3 C :   -0.090954
   4 C :   -0.065728
   5 C :   -0.136622
   6 C :   -0.066945
   7 N :   -0.068769
   8 C :   -0.067808
   9 H :    0.128796
  10 H :    0.153877
  11 H :    0.144986
  12 H :    0.136355
  13 H :    0.132537
  14 H :    0.118324
  15 H :    0.117512

  Mayer bond orders larger than 0.100000
B(  0-C ,  1-C ) :   1.0760 B(  0-C ,  9-H ) :   0.9299 B(  0-C , 10-H ) :   0.9197
B(  0-C , 11-H ) :   0.9259 B(  1-C ,  2-O ) :   2.1687 B(  1-C ,  3-C ) :   0.9180
B(  3-C ,  4-C ) :   1.4038 B(  3-C ,  8-C ) :   1.3299 B(  4-C ,  5-C ) :   1.4048
B(  4-C , 12-H ) :   0.9547 B(  5-C ,  6-C ) :   1.3586 B(  5-C , 13-H ) :   0.9498
B(  6-C ,  7-N ) :   1.5456 B(  6-C , 14-H ) :   0.9526 B(  7-N ,  8-C ) :   1.5612
B(  8-C , 15-H ) :   0.9474

Dispersion correction           -0.016359289
FINAL SINGLE POINT ENERGY      -400.081896845988

DIPOLE MOMENT
-------------

Method             : SCF
Type of density    : Electron Density
Multiplicity       :   1
Irrep              :   0
Energy             :  -400.1271088133679541 Eh
Relativity type    :
Basis              : AO
                                X                 Y                 Z
Electronic contribution:     -2.065347327       2.014781796      -1.559773473
Nuclear contribution   :      1.859742966      -2.091564941       2.049422902
                        -----------------------------------------
Total Dipole Moment    :     -0.205604361      -0.076783145       0.489649429
                        -----------------------------------------
Magnitude (a.u.)       :      0.536586776
Magnitude (Debye)      :      1.363895193

Rotational constants in cm-1:             0.126501             0.040658             0.032109
Rotational constants in MHz :          3792.398415          1218.903530           962.599534

                             ****ORCA TERMINATED NORMALLY****
TOTAL RUN TIME: 0 days 0 hours 0 minutes 12 seconds 417 msec
