                         Program Version 6.0.1  -  RELEASE   -
|  1> ! pbe def2-sv(p) def2/J RI DEFGRID1 loosescf d4 GCP(DFT/SV(P)) printgap
|  2> %output
|  3>     printlevel normal
|  4> end
|  5> * xyz 0 1
|  6> C -2.2496898211 -0.1503016344 1.8276768233
|  7> N -3.0258206122 0.1016826936 0.6367207536
|  8> C -2.661850603 -0.0963280887 -0.6527368279
|  9> O -3.4370160391 -0.014292374 -1.5670500861
| 10> O -1.3604823949 -0.4634535875 -0.851533283
| 11> C -0.3346456517 0.322942393 -0.3769595269
| 12> C -0.4753082133 1.6695850322 -0.1568987269
| 13> C 0.6147901338 2.4266926184 0.2954413172
| 14> C 1.8276685389 1.8402989413 0.5187363239
| 15> C 2.008287346 0.4598035663 0.289982645
| 16> C 0.9144523112 -0.3198693036 -0.1663406678
| 17> C 1.0942806242 -1.6989361898 -0.3941020544
| 18> C 2.3103689614 -2.2850636367 -0.1783628647
| 19> C 3.3956453487 -1.5185417385 0.2723456825
| 20> C 3.2481195294 -0.1789704135 0.5007782838
| 21> H -2.9039915126 -0.5451650219 2.6036825393
| 22> H -1.7742156245 0.7646188368 2.1947881372
| 23> H -1.4737594721 -0.8861593423 1.6209531992
| 24> H -3.9933384641 0.3591912776 0.7578927676
| 25> H -1.4243698948 2.1506335244 -0.3443411068
| 26> H 0.4786855666 3.4850172023 0.4604880782
| 27> H 2.6664338639 2.4244469375 0.8671713879
| 28> H 0.2532256465 -2.2748648588 -0.7487850765
| 29> H 2.443958461 -3.3419394416 -0.3554306283
| 30> H 4.3503185622 -1.9967597432 0.4358529745
| 31> H 4.0825024724 0.4150899384 0.8450887038
| 32> *
| 33>
| 34>                          ****END OF INPUT****

CARTESIAN COORDINATES (ANGSTROEM)
---------------------------------
  C     -2.249690   -0.150302    1.827677
  N     -3.025821    0.101683    0.636721
  C     -2.661851   -0.096328   -0.652737
  O     -3.437016   -0.014292   -1.567050
  O     -1.360482   -0.463454   -0.851533
  C     -0.334646    0.322942   -0.376960
  C     -0.475308    1.669585   -0.156899
  C      0.614790    2.426693    0.295441
  C      1.827669    1.840299    0.518736
  C      2.008287    0.459804    0.289983
  C      0.914452   -0.319869   -0.166341
  C      1.094281   -1.698936   -0.394102
  C      2.310369   -2.285064   -0.178363
  C      3.395645   -1.518542    0.272346
  C      3.248120   -0.178970    0.500778
  H     -2.903992   -0.545165    2.603683
  H     -1.774216    0.764619    2.194788
  H     -1.473759   -0.886159    1.620953
  H     -3.993338    0.359191    0.757893
  H     -1.424370    2.150634   -0.344341
  H      0.478686    3.485017    0.460488
  H      2.666434    2.424447    0.867171
  H      0.253226   -2.274865   -0.748785
  H      2.443958   -3.341939   -0.355431
  H      4.350319   -1.996760    0.435853
  H      4.082502    0.415090    0.845089

 Total Charge           Charge          ....    0
 Multiplicity           Mult            ....    1
 Number of Electrons    NEL             ....  106
 Basis Dimension        Dim             ....  232

ORBITAL ENERGIES
----------------

  NO   OCC          E(Eh)            E(eV)
   0   2.0000     -18.809550      -511.8339
   1   2.0000     -18.722327      -509.4604
   2   2.0000     -14.028032      -381.7221
   3   2.0000     -10.030376      -272.9404
   4   2.0000      -9.966608      -271.2052
   5   2.0000      -9.931680      -270.2547
   6   2.0000      -9.910225      -269.6709
   7   2.0000      -9.910112      -269.6679
   8   2.0000      -9.902337      -269.4563
   9   2.0000      -9.899907      -269.3902
  10   2.0000      -9.899194      -269.3708
  11   2.0000      -9.898857      -269.3616
  12   2.0000      -9.898361      -269.3481
  13   2.0000      -9.897913      -269.3359
  14   2.0000      -9.895547      -269.2715
  15   2.0000      -1.017836       -27.6967
  16   2.0000      -0.928157       -25.2564
  17   2.0000      -0.847056       -23.0496
  18   2.0000      -0.800952       -21.7950
  19   2.0000      -0.751493       -20.4492
  20   2.0000      -0.705520       -19.1982
  21   2.0000      -0.676428       -18.4065
  22   2.0000      -0.657232       -17.8842
  23   2.0000      -0.647256       -17.6127
  24   2.0000      -0.601804       -16.3759
  25   2.0000      -0.565131       -15.3780
  26   2.0000      -0.559668       -15.2293
  27   2.0000      -0.533817       -14.5259
  28   2.0000      -0.502548       -13.6750
  29   2.0000      -0.476269       -12.9599
  30   2.0000      -0.456898       -12.4328
  31   2.0000      -0.452925       -12.3247
  32   2.0000      -0.438580       -11.9344
  33   2.0000      -0.428389       -11.6571
  34   2.0000      -0.405259       -11.0277
  35   2.0000      -0.393235       -10.7005
  36   2.0000      -0.387913       -10.5557
  37   2.0000      -0.387034       -10.5317
  38   2.0000      -0.372916       -10.1476
  39   2.0000      -0.367535       -10.0011
  40   2.0000      -0.362846        -9.8735
  41   2.0000      -0.360752        -9.8166
  42   2.0000      -0.342506        -9.3201
  43   2.0000      -0.334632        -9.1058
  44   2.0000      -0.315309        -8.5800
  45   2.0000      -0.305454        -8.3118
  46   2.0000      -0.297691        -8.1006
  47   2.0000      -0.290331        -7.9003
  48   2.0000      -0.249981        -6.8023
  49   2.0000      -0.233175        -6.3450
  50   2.0000      -0.227521        -6.1912
  51   2.0000      -0.220195        -5.9918
  52   2.0000      -0.194371        -5.2891
  53   0.0000      -0.073058        -1.9880
  54   0.0000      -0.047436        -1.2908
  55   0.0000      -0.008918        -0.2427
  56   0.0000       0.005627         0.1531
  57   0.0000       0.027407         0.7458

MULLIKEN ATOMIC CHARGES
-----------------------
   0 C :   -0.175318
   1 N :   -0.308565
   2 C :    0.151746
   3 O :   -0.173303
   4 O :   -0.214832
   5 C :    0.153116
   6 C :   -0.162919
   7 C :   -0.039153
   8 C :   -0.116600
   9 C :    0.144180
  10 C :    0.081970
  11 C :   -0.123142
  12 C :   -0.040007
  13 C :   -0.034466
  14 C :   -0.133664
  15 H :    0.119550
  16 H :    0.122817
  17 H :    0.143869
  18 H :    0.239677
  19 H :    0.065070
  20 H :    0.055885
  21 H :    0.037011
  22 H :    0.054183
  23 H :    0.056106
  24 H :    0.055291
  25 H :    0.041497
Sum of atomic charges:    0.0000000

LOEWDIN ATOMIC CHARGES
----------------------
   0 C :   -0.263695
   1 N :   -0.176226
   2 C :    0.022018
   3 O :   -0.169590
   4 O :   -0.040159
   5 C :    0.045198
   6 C :   -0.161324
   7 C :   -0.118078
   8 C :   -0.125897
   9 C :   -0.021179
  10 C :   -0.042259
  11 C :   -0.110103
  12 C :   -0.121616
  13 C :   -0.121126
  14 C :   -0.109436
  15 H :    0.123650
  16 H :    0.118296
  17 H :    0.133346
  18 H :    0.243989
  19 H :    0.134614
  20 H :    0.127284
  21 H :    0.124598
  22 H :    0.131008
  23 H :    0.125970
  24 H :    0.125516
  25 H :    0.125198

  Mayer bond orders larger than 0.100000
B(  0-C ,  1-N ) :   1.0133 B(  0-C , 15-H ) :   0.9524 B(  0-C , 16-H ) :   0.9440
B(  0-C , 17-H ) :   0.9416 B(  1-N ,  2-C ) :   1.2036 B(  1-N , 18-H ) :   0.8659
B(  2-C ,  3-O ) :   2.1426 B(  2-C ,  4-O ) :   1.0312 B(  4-O ,  5-C ) :   1.0955
B(  5-C ,  6-C ) :   1.4222 B(  5-C , 10-C ) :   1.2337 B(  6-C ,  7-C ) :   1.2185
B(  6-C , 19-H ) :   0.9516 B(  7-C ,  8-C ) :   1.4420 B(  7-C , 20-H ) :   0.9625
B(  8-C ,  9-C ) :   1.2296 B(  8-C , 21-H ) :   0.9684 B(  9-C , 10-C ) :   1.2684
B(  9-C , 14-C ) :   1.2417 B( 10-C , 11-C ) :   1.2696 B( 11-C , 12-C ) :   1.4350
B( 11-C , 22-H ) :   0.9607 B( 12-C , 13-C ) :   1.2595 B( 12-C , 23-H ) :   0.9636
B( 13-C , 14-C ) :   1.4587 B( 13-C , 24-H ) :   0.9623 B( 14-C , 25-H ) :   0.9644

Dispersion correction           -0.034085182
FINAL SINGLE POINT ENERGY      -667.727093312472

DIPOLE MOMENT
-------------

Method             : SCF
Type of density    : Electron Density
Multiplicity       :   1
Irrep              :   0
Energy             :  -667.8018674302683166 Eh
Relativity type    :
Basis              : AO
                                X                 Y                 Z
Electronic contribution:     -2.090996791      -0.332251771      -6.205837282
Nuclear contribution   :      2.450509274       0.513332435       7.789549975
                        -----------------------------------------
Total Dipole Moment    :      0.359512484       0.181080664       1.583712693
                        -----------------------------------------
Magnitude (a.u.)       :      1.634070172
Magnitude (Debye)      :      4.153476294

Rotational constants in cm-1:             0.038449             0.014519             0.012339
Rotational constants in MHz :          1152.685950           435.260036           369.928697

                             ****ORCA TERMINATED NORMALLY****
TOTAL RUN TIME: 0 days 0 hours 0 minutes 19 seconds 413 msec
