                         Program Version 6.0.1  -  RELEASE   -
|  1> ! pbe def2-sv(p) def2/J RI DEFGRID1 loosescf d4 GCP(DFT/SV(P)) printgap
|  2> %output
|  3>     printlevel normal
|  4> end
|  5> * xyz 0 1
|  6> C -2.544761608 1.0056203275 -0.0001968923
|  7> C -1.2317055637 0.2832293641 0.0002538506
|  8> C -1.2004037303 -1.1084080868 0.0003477736
|  9> C 0.0058738195 -1.7809970841 -4.23169e-05
| 10> C 1.1999143908 -1.0806116168 -0.0002672048
| 11> C 1.1794955577 0.3073081664 -0.0001613063
| 12> C -0.0369938569 0.982071443 3.8386e-06
| 13> O 2.3226021663 1.0485657443 0.000193358
| 14> H -2.3975098739 2.0821848761 0.0104472497
| 15> H -3.1212059351 0.7411843653 -0.8858864855
| 16> H -3.1315168278 0.724686836 0.8734505754
| 17> H -2.1276371237 -1.6621851838 0.0004877281
| 18> H 0.023004418 -2.8610035787 -0.000200081
| 19> H 2.144897126 -1.6081501381 -0.0005636941
| 20> H -0.023917596 2.0610027855 0.0001999347
| 21> H 3.0893329624 0.4630844165 -0.0002626765
| 22> *
| 23>
| 24>                          ****END OF INPUT****

CARTESIAN COORDINATES (ANGSTROEM)
---------------------------------
  C     -2.544762    1.005620   -0.000197
  C     -1.231706    0.283229    0.000254
  C     -1.200404   -1.108408    0.000348
  C      0.005874   -1.780997   -0.000042
  C      1.199914   -1.080612   -0.000267
  C      1.179496    0.307308   -0.000161
  C     -0.036994    0.982071    0.000004
  O      2.322602    1.048566    0.000193
  H     -2.397510    2.082185    0.010447
  H     -3.121206    0.741184   -0.885886
  H     -3.131517    0.724687    0.873451
  H     -2.127637   -1.662185    0.000488
  H      0.023004   -2.861004   -0.000200
  H      2.144897   -1.608150   -0.000564
  H     -0.023918    2.061003    0.000200
  H      3.089333    0.463084   -0.000263

 Total Charge           Charge          ....    0
 Multiplicity           Mult            ....    1
 Number of Electrons    NEL             ....   58
 Basis Dimension        Dim             ....  128

ORBITAL ENERGIES
----------------

  NO   OCC          E(Eh)            E(eV)
   0   2.0000     -18.778409      -510.9865
   1   2.0000      -9.947905      -270.6962
   2   2.0000      -9.900196      -269.3980
   3   2.0000      -9.890664      -269.1387
   4   2.0000      -9.886335      -269.0208
   5   2.0000      -9.881262      -268.8828
   6   2.0000      -9.880485      -268.8617
   7   2.0000      -9.879492      -268.8346
   8   2.0000      -0.960819       -26.1452
   9   2.0000      -0.771530       -20.9944
  10   2.0000      -0.692523       -18.8445
  11   2.0000      -0.663014       -18.0415
  12   2.0000      -0.613562       -16.6959
  13   2.0000      -0.550800       -14.9880
  14   2.0000      -0.537711       -14.6318
  15   2.0000      -0.473200       -12.8764
  16   2.0000      -0.443395       -12.0654
  17   2.0000      -0.421303       -11.4642
  18   2.0000      -0.385323       -10.4852
  19   2.0000      -0.378380       -10.2962
  20   2.0000      -0.364084        -9.9072
  21   2.0000      -0.353358        -9.6154
  22   2.0000      -0.348651        -9.4873
  23   2.0000      -0.322921        -8.7871
  24   2.0000      -0.310843        -8.4585
  25   2.0000      -0.289819        -7.8864
  26   2.0000      -0.286363        -7.7923
  27   2.0000      -0.219483        -5.9724
  28   2.0000      -0.191339        -5.2066
  29   0.0000      -0.027969        -0.7611
  30   0.0000      -0.017262        -0.4697
  31   0.0000       0.025831         0.7029
  32   0.0000       0.049999         1.3605
  33   0.0000       0.066232         1.8023

MULLIKEN ATOMIC CHARGES
-----------------------
   0 C :   -0.225275
   1 C :    0.056209
   2 C :   -0.109443
   3 C :   -0.053882
   4 C :   -0.170169
   5 C :    0.251881
   6 C :   -0.197126
   7 O :   -0.335274
   8 H :    0.101608
   9 H :    0.115554
  10 H :    0.115183
  11 H :    0.030323
  12 H :    0.049895
  13 H :    0.025575
  14 H :    0.030343
  15 H :    0.314597
Sum of atomic charges:   -0.0000000

LOEWDIN ATOMIC CHARGES
----------------------
   0 C :   -0.320986
   1 C :   -0.038827
   2 C :   -0.149932
   3 C :   -0.113721
   4 C :   -0.185192
   5 C :    0.024975
   6 C :   -0.152040
   7 O :   -0.237163
   8 H :    0.123933
   9 H :    0.132287
  10 H :    0.132072
  11 H :    0.119167
  12 H :    0.123103
  13 H :    0.118329
  14 H :    0.127629
  15 H :    0.296366

  Mayer bond orders larger than 0.100000
B(  0-C ,  1-C ) :   1.0972 B(  0-C ,  8-H ) :   0.9463 B(  0-C ,  9-H ) :   0.9364
B(  0-C , 10-H ) :   0.9367 B(  1-C ,  2-C ) :   1.3659 B(  1-C ,  6-C ) :   1.3904
B(  2-C ,  3-C ) :   1.3853 B(  2-C , 11-H ) :   0.9697 B(  3-C ,  4-C ) :   1.3567
B(  3-C , 12-H ) :   0.9603 B(  4-C ,  5-C ) :   1.3280 B(  4-C , 13-H ) :   0.9572
B(  5-C ,  6-C ) :   1.3327 B(  5-C ,  7-O ) :   1.1837 B(  6-C , 14-H ) :   0.9637
B(  7-O , 15-H ) :   0.8445

Dispersion correction           -0.015379187
FINAL SINGLE POINT ENERGY      -346.022770173783

DIPOLE MOMENT
-------------

Method             : SCF
Type of density    : Electron Density
Multiplicity       :   1
Irrep              :   0
Energy             :  -346.0724877661789378 Eh
Relativity type    :
Basis              : AO
                                X                 Y                 Z
Electronic contribution:      5.402285154      -0.297586789       0.001018493
Nuclear contribution   :     -5.167315904      -0.039998806      -0.002180677
                        -----------------------------------------
Total Dipole Moment    :      0.234969251      -0.337585594      -0.001162184
                        -----------------------------------------
Magnitude (a.u.)       :      0.411310020
Magnitude (Debye)      :      1.045466987

Rotational constants in cm-1:             0.124454             0.060310             0.040931
Rotational constants in MHz :          3731.024693          1808.042308          1227.094913

                             ****ORCA TERMINATED NORMALLY****
TOTAL RUN TIME: 0 days 0 hours 0 minutes 19 seconds 717 msec
