                         Program Version 6.0.0  -   RELEASE  -
|  1> ! r2SCAN-3c DEF2-TZVP FREQ
|  2> * xyzfile 0 1 censo.xyz
|  3>
|  4>                          ****END OF INPUT****

CARTESIAN COORDINATES (ANGSTROEM)
---------------------------------
  C     -1.951266    0.629651   -0.281274
  C     -1.855811   -0.879981   -0.051480
  C     -0.487409   -1.510855   -0.334221
  C      0.579712   -1.107699    0.691006
  C      1.347178    0.181110    0.392467
  C      0.513288    1.322081   -0.183916
  C     -0.887659    1.483607    0.420075
  O      2.398153   -0.057117   -0.581689
  H     -2.946056    0.963408    0.040356
  H     -1.890908    0.834416   -1.359266
  H     -2.122941   -1.102660    0.991160
  H     -2.614087   -1.369932   -0.675578
  H     -0.604047   -2.600513   -0.308673
  H     -0.154087   -1.262017   -1.350956
  H      0.102810   -1.007090    1.674541
  H      1.326359   -1.904698    0.801877
  H      1.816806    0.516584    1.329421
  H      1.086488    2.248801   -0.067515
  H      0.410958    1.154948   -1.264229
  H     -0.870017    1.265585    1.496482
  H     -1.183855    2.534544    0.326589
  H      2.998826   -0.709793   -0.199161

 Total Charge           Charge          ....    0
 Multiplicity           Mult            ....    1
 Number of Electrons    NEL             ....   64
 Basis Dimension        Dim             ....  332

ORBITAL ENERGIES
----------------

  NO   OCC          E(Eh)            E(eV)
   0   2.0000     -18.943426      -515.4768
   1   2.0000     -10.077847      -274.2322
   2   2.0000     -10.027071      -272.8505
   3   2.0000     -10.026845      -272.8443
   4   2.0000     -10.024744      -272.7871
   5   2.0000     -10.024608      -272.7835
   6   2.0000     -10.024429      -272.7786
   7   2.0000     -10.021391      -272.6959
   8   2.0000      -0.972145       -26.4534
   9   2.0000      -0.786373       -21.3983
  10   2.0000      -0.725961       -19.7544
  11   2.0000      -0.717948       -19.5364
  12   2.0000      -0.619638       -16.8612
  13   2.0000      -0.607709       -16.5366
  14   2.0000      -0.531851       -14.4724
  15   2.0000      -0.513474       -13.9723
  16   2.0000      -0.462741       -12.5918
  17   2.0000      -0.451284       -12.2800
  18   2.0000      -0.431423       -11.7396
  19   2.0000      -0.405336       -11.0297
  20   2.0000      -0.385267       -10.4836
  21   2.0000      -0.376862       -10.2549
  22   2.0000      -0.372186       -10.1277
  23   2.0000      -0.346308        -9.4235
  24   2.0000      -0.321988        -8.7617
  25   2.0000      -0.313739        -8.5373
  26   2.0000      -0.309128        -8.4118
  27   2.0000      -0.292207        -7.9514
  28   2.0000      -0.285072        -7.7572
  29   2.0000      -0.278610        -7.5814
  30   2.0000      -0.274404        -7.4669
  31   2.0000      -0.233041        -6.3414
  32   0.0000       0.031299         0.8517
  33   0.0000       0.046974         1.2782
  34   0.0000       0.057555         1.5661
  35   0.0000       0.074233         2.0200
  36   0.0000       0.085772         2.3340

MULLIKEN ATOMIC CHARGES
-----------------------
   0 C :   -0.176911
   1 C :   -0.173762
   2 C :   -0.149934
   3 C :   -0.155285
   4 C :    0.024893
   5 C :   -0.109083
   6 C :   -0.160699
   7 O :   -0.457399
   8 H :    0.086413
   9 H :    0.080503
  10 H :    0.077396
  11 H :    0.087079
  12 H :    0.087978
  13 H :    0.090593
  14 H :    0.073391
  15 H :    0.078660
  16 H :    0.057137
  17 H :    0.096617
  18 H :    0.084435
  19 H :    0.077873
  20 H :    0.092206
  21 H :    0.287900
Sum of atomic charges:   -0.0000000

LOEWDIN ATOMIC CHARGES
----------------------
   0 C :   -0.268268
   1 C :   -0.269274
   2 C :   -0.258404
   3 C :   -0.254023
   4 C :   -0.339157
   5 C :   -0.240933
   6 C :   -0.257870
   7 O :   -0.038924
   8 H :    0.134056
   9 H :    0.135027
  10 H :    0.133137
  11 H :    0.134597
  12 H :    0.134532
  13 H :    0.139436
  14 H :    0.138078
  15 H :    0.133236
  16 H :    0.129974
  17 H :    0.137518
  18 H :    0.143385
  19 H :    0.134347
  20 H :    0.135896
  21 H :    0.163634

  Mayer bond orders larger than 0.100000
B(  0-C ,  1-C ) :   0.9975 B(  0-C ,  6-C ) :   0.9836 B(  0-C ,  8-H ) :   0.9649
B(  0-C ,  9-H ) :   0.9671 B(  1-C ,  2-C ) :   0.9865 B(  1-C , 10-H ) :   0.9668
B(  1-C , 11-H ) :   0.9666 B(  2-C ,  3-C ) :   0.9715 B(  2-C , 12-H ) :   0.9658
B(  2-C , 13-H ) :   0.9606 B(  3-C ,  4-C ) :   0.9788 B(  3-C , 14-H ) :   0.9514
B(  3-C , 15-H ) :   0.9627 B(  4-C ,  5-C ) :   0.9577 B(  4-C ,  7-O ) :   1.0190
B(  4-C , 16-H ) :   0.9739 B(  5-C ,  6-C ) :   0.9524 B(  5-C , 17-H ) :   0.9639
B(  5-C , 18-H ) :   0.9570 B(  6-C , 19-H ) :   0.9637 B(  6-C , 20-H ) :   0.9676
B(  7-O , 21-H ) :   0.9065

Dispersion correction           -0.006733406
FINAL SINGLE POINT ENERGY      -350.323071824971

DIPOLE MOMENT
-------------

Method             : SCF
Type of density    : Electron Density
Multiplicity       :   1
Irrep              :   0
Energy             :  -350.3269551565239794 Eh
Relativity type    :
Basis              : AO
                                X                 Y                 Z
Electronic contribution:      4.269369292       0.150591433      -0.826481268
Nuclear contribution   :     -4.407947208      -0.419127921       1.340126447
                        -----------------------------------------
Total Dipole Moment    :     -0.138577917      -0.268536488       0.513645179
                        -----------------------------------------
Magnitude (a.u.)       :      0.595942157
Magnitude (Debye)      :      1.514764583

VIBRATIONAL FREQUENCIES
-----------------------

Scaling factor for frequencies =  1.000000000  (already applied!)

     0:       0.00 cm**-1
     1:       0.00 cm**-1
     2:       0.00 cm**-1
     3:       0.00 cm**-1
     4:       0.00 cm**-1
     5:       0.00 cm**-1
     6:     108.63 cm**-1
     7:     177.30 cm**-1
     8:     258.82 cm**-1
     9:     295.19 cm**-1
    10:     312.74 cm**-1
    11:     368.17 cm**-1
    12:     382.14 cm**-1
    13:     418.79 cm**-1
    14:     476.04 cm**-1
    15:     513.95 cm**-1
    16:     580.16 cm**-1
    17:     732.50 cm**-1
    18:     796.59 cm**-1
    19:     827.66 cm**-1
    20:     845.68 cm**-1
    21:     862.18 cm**-1
    22:     912.84 cm**-1
    23:     965.61 cm**-1
    24:     981.56 cm**-1
    25:    1014.96 cm**-1
    26:    1021.43 cm**-1
    27:    1026.40 cm**-1
    28:    1079.98 cm**-1
    29:    1117.54 cm**-1
    30:    1131.15 cm**-1
    31:    1168.94 cm**-1
    32:    1219.45 cm**-1
    33:    1224.53 cm**-1
    34:    1235.77 cm**-1
    35:    1277.94 cm**-1
    36:    1305.69 cm**-1
    37:    1311.78 cm**-1
    38:    1347.75 cm**-1
    39:    1352.16 cm**-1
    40:    1366.04 cm**-1
    41:    1371.19 cm**-1
    42:    1380.04 cm**-1
    43:    1384.70 cm**-1
    44:    1387.74 cm**-1
    45:    1424.57 cm**-1
    46:    1466.61 cm**-1
    47:    1474.05 cm**-1
    48:    1477.23 cm**-1
    49:    1477.67 cm**-1
    50:    1491.47 cm**-1
    51:    1496.16 cm**-1
    52:    2965.42 cm**-1
    53:    2983.98 cm**-1
    54:    2986.19 cm**-1
    55:    2994.79 cm**-1
    56:    2997.21 cm**-1
    57:    3001.37 cm**-1
    58:    3006.45 cm**-1
    59:    3030.59 cm**-1
    60:    3036.23 cm**-1
    61:    3039.60 cm**-1
    62:    3046.26 cm**-1
    63:    3050.14 cm**-1
    64:    3057.88 cm**-1
    65:    3768.57 cm**-1

IR SPECTRUM
-----------

 Mode   freq       eps      Int      T**2         TX        TY        TZ
       cm**-1   L/(mol*cm) km/mol    a.u.
----------------------------------------------------------------------------
  6:    108.63   0.000161    0.81  0.000462  (-0.020813 -0.005048 -0.001916)
  7:    177.30   0.000063    0.32  0.000112  ( 0.003921 -0.009299 -0.003115)
  8:    258.82   0.000040    0.20  0.000048  ( 0.003301 -0.001586  0.005879)
  9:    295.19   0.000392    1.98  0.000415  (-0.020277 -0.000717  0.001702)
 10:    312.74   0.000238    1.20  0.000237  (-0.011849 -0.008037 -0.005665)
 11:    368.17   0.010470   52.91  0.008875  (-0.066457 -0.058033 -0.033019)
 12:    382.14   0.011513   58.18  0.009402  (-0.059718 -0.067824 -0.035149)
 13:    418.79   0.001330    6.72  0.000991  (-0.021297  0.018191  0.014381)
 14:    476.04   0.000619    3.13  0.000406  ( 0.018114  0.000347 -0.008792)
 15:    513.95   0.000450    2.28  0.000273  ( 0.015226 -0.006227 -0.001698)
 16:    580.16   0.000379    1.91  0.000204  ( 0.012942  0.006002  0.000522)
 17:    732.50   0.000038    0.19  0.000016  ( 0.002318  0.000714  0.003243)
 18:    796.59   0.001226    6.20  0.000480  ( 0.019125 -0.000161 -0.010703)
 19:    827.66   0.001046    5.28  0.000394  ( 0.001331 -0.019661 -0.002437)
 20:    845.68   0.000243    1.23  0.000090  ( 0.005335  0.006910 -0.003688)
 21:    862.18   0.000409    2.07  0.000148  (-0.009065  0.008098 -0.000563)
 22:    912.84   0.005312   26.84  0.001816  (-0.034934  0.005444  0.023788)
 23:    965.61   0.000779    3.94  0.000252  (-0.011259  0.008189 -0.007610)
 24:    981.56   0.007121   35.99  0.002264  (-0.040659 -0.002085  0.024628)
 25:   1014.96   0.002883   14.57  0.000887  ( 0.023720 -0.010702 -0.014468)
 26:   1021.43   0.001501    7.58  0.000458  ( 0.020702 -0.000074 -0.005470)
 27:   1026.40   0.002677   13.53  0.000814  (-0.024181  0.001491  0.015064)
 28:   1079.98   0.001081    5.47  0.000312  (-0.012754  0.005491  0.010940)
 29:   1117.54   0.000925    4.68  0.000258  (-0.012991  0.002576  0.009108)
 30:   1131.15   0.001328    6.71  0.000366  (-0.010292  0.011440  0.011388)
 31:   1168.94   0.000484    2.44  0.000129  ( 0.006736  0.008688 -0.002870)
 32:   1219.45   0.000139    0.70  0.000036  ( 0.000622 -0.005872 -0.000849)
 33:   1224.53   0.002665   13.47  0.000679  (-0.021872  0.002712  0.013912)
 34:   1235.77   0.001350    6.82  0.000341  (-0.015854 -0.001851  0.009279)
 35:   1277.94   0.004088   20.66  0.000998  (-0.022818  0.004939  0.021290)
 36:   1305.69   0.000601    3.03  0.000144  ( 0.004953  0.003333 -0.010387)
 37:   1311.78   0.001085    5.48  0.000258  ( 0.013716  0.000061 -0.008368)
 38:   1347.75   0.000480    2.42  0.000111  (-0.002770  0.004654  0.009039)
 39:   1352.16   0.000285    1.44  0.000066  ( 0.007777  0.000584 -0.002225)
 40:   1366.04   0.000463    2.34  0.000106  (-0.009749  0.000392  0.003242)
 41:   1371.19   0.001114    5.63  0.000253  (-0.011027 -0.005292  0.010191)
 42:   1380.04   0.000353    1.78  0.000080  (-0.004690  0.006141 -0.004475)
 43:   1384.70   0.000605    3.06  0.000136  (-0.010871 -0.003355  0.002611)
 44:   1387.74   0.000301    1.52  0.000068  (-0.007456 -0.001155  0.003287)
 45:   1424.57   0.002317   11.71  0.000508  ( 0.008266  0.011171 -0.017735)
 46:   1466.61   0.000800    4.04  0.000170  (-0.007475  0.010688 -0.000083)
 47:   1474.05   0.001025    5.18  0.000217  ( 0.003087 -0.013500  0.005023)
 48:   1477.23   0.000544    2.75  0.000115  (-0.000461  0.010661 -0.001001)
 49:   1477.67   0.001067    5.39  0.000225  ( 0.011521  0.009441  0.001866)
 50:   1491.47   0.001436    7.26  0.000301  (-0.006239  0.000436  0.016167)
 51:   1496.16   0.002644   13.36  0.000551  (-0.000853 -0.000289 -0.023464)
 52:   2965.42   0.007870   39.77  0.000828  (-0.009830 -0.013277 -0.023563)
 53:   2983.98   0.005393   27.25  0.000564  (-0.015955 -0.013965  0.010695)
 54:   2986.19   0.005701   28.81  0.000596  ( 0.017233 -0.010789  0.013504)
 55:   2994.79   0.002321   11.73  0.000242  ( 0.007623 -0.011129  0.007740)
 56:   2997.21   0.008887   44.91  0.000925  (-0.006637 -0.012056 -0.027128)
 57:   3001.37   0.005227   26.42  0.000543  ( 0.009128 -0.011934  0.017826)
 58:   3006.45   0.001949    9.85  0.000202  ( 0.011133  0.001340 -0.008752)
 59:   3030.59   0.014217   71.85  0.001464  (-0.038115 -0.000795 -0.003251)
 60:   3036.23   0.000748    3.78  0.000077  ( 0.003326 -0.006870  0.004316)
 61:   3039.60   0.015602   78.85  0.001602  ( 0.016270 -0.030405 -0.020313)
 62:   3046.26   0.003398   17.17  0.000348  ( 0.010933  0.015118  0.000074)
 63:   3050.14   0.019355   97.81  0.001980  ( 0.004687  0.025397 -0.036238)
 64:   3057.88   0.009837   49.71  0.001004  ( 0.006961  0.018892  0.024464)
 65:   3768.57   0.002513   12.70  0.000208  ( 0.012584 -0.006947  0.001207)

--------------------------
THERMOCHEMISTRY AT 298.15K
--------------------------

Temperature         ...   298.15 K
Pressure            ...     1.00 atm
Total Mass          ...   114.19 AMU
Quasi RRHO          ...     True
Cut-Off Frequency   ...     1.00 cm^-1

Throughout the following assumptions are being made:
  (1) The electronic state is orbitally nondegenerate
  (2) There are no thermally accessible electronically excited states
  (3) Hindered rotations indicated by low frequency modes are not
      treated as such but are treated as vibrations and this may
      cause some error
  (4) All equations used are the standard statistical mechanics
      equations for an ideal gas
  (5) All vibrations are strictly harmonic

freq.     108.63  E(vib)   ...       0.45
freq.     177.30  E(vib)   ...       0.37
freq.     258.82  E(vib)   ...       0.30
freq.     295.19  E(vib)   ...       0.27
freq.     312.74  E(vib)   ...       0.25
freq.     368.17  E(vib)   ...       0.21
freq.     382.14  E(vib)   ...       0.21
freq.     418.79  E(vib)   ...       0.18
freq.     476.04  E(vib)   ...       0.15
freq.     513.95  E(vib)   ...       0.13
freq.     580.16  E(vib)   ...       0.11
freq.     732.50  E(vib)   ...       0.06
freq.     796.59  E(vib)   ...       0.05
freq.     827.66  E(vib)   ...       0.04
freq.     845.68  E(vib)   ...       0.04
freq.     862.18  E(vib)   ...       0.04
freq.     912.84  E(vib)   ...       0.03
freq.     965.61  E(vib)   ...       0.03
freq.     981.56  E(vib)   ...       0.02
freq.    1014.96  E(vib)   ...       0.02
freq.    1021.43  E(vib)   ...       0.02
freq.    1026.40  E(vib)   ...       0.02
freq.    1079.98  E(vib)   ...       0.02
freq.    1117.54  E(vib)   ...       0.01
freq.    1131.15  E(vib)   ...       0.01
freq.    1168.94  E(vib)   ...       0.01
freq.    1219.45  E(vib)   ...       0.01
freq.    1224.53  E(vib)   ...       0.01
freq.    1235.77  E(vib)   ...       0.01
freq.    1277.94  E(vib)   ...       0.01
freq.    1305.69  E(vib)   ...       0.01
freq.    1311.78  E(vib)   ...       0.01
freq.    1347.75  E(vib)   ...       0.01
freq.    1352.16  E(vib)   ...       0.01
freq.    1366.04  E(vib)   ...       0.01
freq.    1371.19  E(vib)   ...       0.01
freq.    1380.04  E(vib)   ...       0.01
freq.    1384.70  E(vib)   ...       0.00
freq.    1387.74  E(vib)   ...       0.00
freq.    1424.57  E(vib)   ...       0.00
freq.    1466.61  E(vib)   ...       0.00
freq.    1474.05  E(vib)   ...       0.00
freq.    1477.23  E(vib)   ...       0.00
freq.    1477.67  E(vib)   ...       0.00
freq.    1491.47  E(vib)   ...       0.00
freq.    1496.16  E(vib)   ...       0.00
freq.    2965.42  E(vib)   ...       0.00
freq.    2983.98  E(vib)   ...       0.00
freq.    2986.19  E(vib)   ...       0.00
freq.    2994.79  E(vib)   ...       0.00
freq.    2997.21  E(vib)   ...       0.00
freq.    3001.37  E(vib)   ...       0.00
freq.    3006.45  E(vib)   ...       0.00
freq.    3030.59  E(vib)   ...       0.00
freq.    3036.23  E(vib)   ...       0.00
freq.    3039.60  E(vib)   ...       0.00
freq.    3046.26  E(vib)   ...       0.00
freq.    3050.14  E(vib)   ...       0.00
freq.    3057.88  E(vib)   ...       0.00
freq.    3768.57  E(vib)   ...       0.00

------------
INNER ENERGY
------------

The inner energy is: U= E(el) + E(ZPE) + E(vib) + E(rot) + E(trans)
    E(el)   - is the total energy from the electronic structure calculation
              = E(kin-el) + E(nuc-el) + E(el-el) + E(nuc-nuc)
    E(ZPE)  - the the zero temperature vibrational energy from the frequency calculation
    E(vib)  - the the finite temperature correction to E(ZPE) due to population
              of excited vibrational states
    E(rot)  - is the rotational thermal energy
    E(trans)- is the translational thermal energy

Summary of contributions to the inner energy U:
Electronic energy                ...   -350.32307182 Eh
Zero point energy                ...      0.20233364 Eh     126.97 kcal/mol
Thermal vibrational correction   ...      0.00509051 Eh       3.19 kcal/mol
Thermal rotational correction    ...      0.00141627 Eh       0.89 kcal/mol
Thermal translational correction ...      0.00141627 Eh       0.89 kcal/mol
-----------------------------------------------------------------------
Total thermal energy                   -350.11281514 Eh

Summary of corrections to the electronic energy:
(perhaps to be used in another calculation)
Total thermal correction                  0.00792305 Eh       4.97 kcal/mol
Non-thermal (ZPE) correction              0.20233364 Eh     126.97 kcal/mol
-----------------------------------------------------------------------
Total correction                          0.21025668 Eh     131.94 kcal/mol

--------
ENTHALPY
--------

The enthalpy is H = U + kB*T
                kB is Boltzmann's constant
Total thermal energy              ...   -350.11281514 Eh
Thermal Enthalpy correction       ...      0.00094421 Eh       0.59 kcal/mol
-----------------------------------------------------------------------
Total Enthalpy                    ...   -350.11187093 Eh

Note: Only C1 symmetry has been detected, increase convergence thresholds
      if your molecule has a higher symmetry. Symmetry factor of 1.0 is
      used for the rotational entropy correction.

Note: Rotational entropy computed according to Herzberg
Infrared and Raman Spectra, Chapter V,1, Van Nostrand Reinhold, 1945
Point Group:  C1, Symmetry Number:   1
Rotational constants in cm-1:     0.099446     0.057197     0.042182

Vibrational entropy computed according to the QRRHO of S. Grimme
Chem.Eur.J. 2012 18 9955 using a reference frequency of 100.0 cm-1

-------
ENTROPY
-------

The entropy contributions are T*S = T*(S(el)+S(vib)+S(rot)+S(trans))
     S(el)   - electronic entropy
     S(vib)  - vibrational entropy
     S(rot)  - rotational entropy
     S(trans)- translational entropy
The entropies will be listed as multiplied by the temperature to get
units of energy

Electronic entropy                ...      0.00000000 Eh      0.00 kcal/mol
Vibrational entropy               ...      0.00808358 Eh      5.07 kcal/mol
Rotational entropy                ...      0.01344576 Eh      8.44 kcal/mol
Translational entropy             ...      0.01905915 Eh     11.96 kcal/mol
-----------------------------------------------------------------------
Final entropy term                ...      0.04058849 Eh     25.47 kcal/mol

In case the symmetry of your molecule has not been determined correctly
or in case you have a reason to use a different symmetry number we print
out the resulting rotational entropy values for sn=1,12:

 non-linear molecules -----------------------------------

                             ****ORCA TERMINATED NORMALLY****
TOTAL RUN TIME: 0 days 0 hours 22 minutes 1 seconds 296 msec
