                         Program Version 6.0.0  -   RELEASE  -
|  1> ! r2SCAN-3c DEF2-TZVP FREQ
|  2> * xyzfile 0 1 vacuum_censo.xyz
|  3>
|  4>                          ****END OF INPUT****

CARTESIAN COORDINATES (ANGSTROEM)
---------------------------------
  C     -1.945594    0.627438   -0.288567
  C     -1.854487   -0.883010   -0.059719
  C     -0.482631   -1.514401   -0.324833
  C      0.573027   -1.103903    0.709105
  C      1.354931    0.173682    0.387882
  C      0.517453    1.327369   -0.165116
  C     -0.889473    1.480839    0.426492
  O      2.357152   -0.068928   -0.617110
  H     -2.944777    0.961823    0.018368
  H     -1.872306    0.833095   -1.365514
  H     -2.139886   -1.107600    0.977986
  H     -2.604781   -1.371736   -0.694061
  H     -0.599490   -2.604085   -0.300222
  H     -0.129778   -1.267309   -1.334571
  H      0.088395   -0.986229    1.687843
  H      1.309228   -1.908352    0.841393
  H      1.848451    0.505929    1.317223
  H      1.092669    2.249895   -0.031242
  H      0.434049    1.179209   -1.249027
  H     -0.885583    1.262340    1.503351
  H     -1.188596    2.531373    0.335694
  H      2.981712   -0.712804   -0.265188

 Total Charge           Charge          ....    0
 Multiplicity           Mult            ....    1
 Number of Electrons    NEL             ....   64
 Basis Dimension        Dim             ....  332

ORBITAL ENERGIES
----------------

  NO   OCC          E(Eh)            E(eV)
   0   2.0000     -18.944666      -515.5106
   1   2.0000     -10.077774      -274.2302
   2   2.0000     -10.026653      -272.8391
   3   2.0000     -10.026100      -272.8241
   4   2.0000     -10.024087      -272.7693
   5   2.0000     -10.023893      -272.7640
   6   2.0000     -10.023760      -272.7604
   7   2.0000     -10.020536      -272.6727
   8   2.0000      -0.976842       -26.5812
   9   2.0000      -0.785231       -21.3672
  10   2.0000      -0.725075       -19.7303
  11   2.0000      -0.717063       -19.5123
  12   2.0000      -0.619238       -16.8503
  13   2.0000      -0.607413       -16.5286
  14   2.0000      -0.531763       -14.4700
  15   2.0000      -0.513676       -13.9778
  16   2.0000      -0.465395       -12.6640
  17   2.0000      -0.450648       -12.2628
  18   2.0000      -0.430606       -11.7174
  19   2.0000      -0.404465       -11.0061
  20   2.0000      -0.384756       -10.4697
  21   2.0000      -0.376331       -10.2405
  22   2.0000      -0.371570       -10.1109
  23   2.0000      -0.345670        -9.4062
  24   2.0000      -0.322246        -8.7688
  25   2.0000      -0.313102        -8.5199
  26   2.0000      -0.309036        -8.4093
  27   2.0000      -0.291559        -7.9337
  28   2.0000      -0.284772        -7.7491
  29   2.0000      -0.278053        -7.5662
  30   2.0000      -0.273320        -7.4374
  31   2.0000      -0.233714        -6.3597
  32   0.0000       0.031533         0.8580
  33   0.0000       0.047857         1.3023
  34   0.0000       0.058324         1.5871
  35   0.0000       0.074473         2.0265
  36   0.0000       0.087105         2.3702

MULLIKEN ATOMIC CHARGES
-----------------------
   0 C :   -0.175027
   1 C :   -0.175736
   2 C :   -0.145646
   3 C :   -0.160068
   4 C :    0.033410
   5 C :   -0.118914
   6 C :   -0.160084
   7 O :   -0.455510
   8 H :    0.086651
   9 H :    0.079844
  10 H :    0.077534
  11 H :    0.086497
  12 H :    0.087395
  13 H :    0.090319
  14 H :    0.073411
  15 H :    0.079687
  16 H :    0.054494
  17 H :    0.096615
  18 H :    0.086294
  19 H :    0.078291
  20 H :    0.091925
  21 H :    0.288615
Sum of atomic charges:   -0.0000000

LOEWDIN ATOMIC CHARGES
----------------------
   0 C :   -0.267847
   1 C :   -0.269449
   2 C :   -0.258788
   3 C :   -0.254266
   4 C :   -0.347416
   5 C :   -0.241410
   6 C :   -0.258434
   7 O :   -0.026409
   8 H :    0.133836
   9 H :    0.134962
  10 H :    0.133044
  11 H :    0.134384
  12 H :    0.134130
  13 H :    0.139531
  14 H :    0.137665
  15 H :    0.132830
  16 H :    0.129517
  17 H :    0.136983
  18 H :    0.143520
  19 H :    0.134086
  20 H :    0.135895
  21 H :    0.163636

  Mayer bond orders larger than 0.100000
B(  0-C ,  1-C ) :   0.9981 B(  0-C ,  6-C ) :   0.9833 B(  0-C ,  8-H ) :   0.9650
B(  0-C ,  9-H ) :   0.9668 B(  1-C ,  2-C ) :   0.9875 B(  1-C , 10-H ) :   0.9667
B(  1-C , 11-H ) :   0.9666 B(  2-C ,  3-C ) :   0.9711 B(  2-C , 12-H ) :   0.9658
B(  2-C , 13-H ) :   0.9597 B(  3-C ,  4-C ) :   0.9813 B(  3-C , 14-H ) :   0.9521
B(  3-C , 15-H ) :   0.9632 B(  4-C ,  5-C ) :   0.9568 B(  4-C ,  7-O ) :   1.0250
B(  4-C , 16-H ) :   0.9709 B(  5-C ,  6-C ) :   0.9528 B(  5-C , 17-H ) :   0.9640
B(  5-C , 18-H ) :   0.9579 B(  6-C , 19-H ) :   0.9639 B(  6-C , 20-H ) :   0.9675
B(  7-O , 21-H ) :   0.9060

Dispersion correction           -0.006736322
FINAL SINGLE POINT ENERGY      -350.323329681160

DIPOLE MOMENT
-------------

Method             : SCF
Type of density    : Electron Density
Multiplicity       :   1
Irrep              :   0
Energy             :  -350.3272074447040154 Eh
Relativity type    :
Basis              : AO
                                X                 Y                 Z
Electronic contribution:      4.242890989       0.115782110      -0.867670290
Nuclear contribution   :     -4.326850348      -0.380586178       1.365532693
                        -----------------------------------------
Total Dipole Moment    :     -0.083959359      -0.264804068       0.497862403
                        -----------------------------------------
Magnitude (a.u.)       :      0.570120462
Magnitude (Debye)      :      1.449131050

VIBRATIONAL FREQUENCIES
-----------------------

Scaling factor for frequencies =  1.000000000  (already applied!)

     0:       0.00 cm**-1
     1:       0.00 cm**-1
     2:       0.00 cm**-1
     3:       0.00 cm**-1
     4:       0.00 cm**-1
     5:       0.00 cm**-1
     6:     105.16 cm**-1
     7:     178.16 cm**-1
     8:     258.14 cm**-1
     9:     295.75 cm**-1
    10:     310.08 cm**-1
    11:     331.67 cm**-1
    12:     375.46 cm**-1
    13:     418.54 cm**-1
    14:     476.88 cm**-1
    15:     513.46 cm**-1
    16:     582.48 cm**-1
    17:     731.00 cm**-1
    18:     798.96 cm**-1
    19:     826.92 cm**-1
    20:     842.85 cm**-1
    21:     860.96 cm**-1
    22:     921.37 cm**-1
    23:     962.44 cm**-1
    24:     984.40 cm**-1
    25:    1015.89 cm**-1
    26:    1020.08 cm**-1
    27:    1033.80 cm**-1
    28:    1080.01 cm**-1
    29:    1116.90 cm**-1
    30:    1128.11 cm**-1
    31:    1169.52 cm**-1
    32:    1218.61 cm**-1
    33:    1222.80 cm**-1
    34:    1234.79 cm**-1
    35:    1276.12 cm**-1
    36:    1303.95 cm**-1
    37:    1312.26 cm**-1
    38:    1348.64 cm**-1
    39:    1352.79 cm**-1
    40:    1366.46 cm**-1
    41:    1369.65 cm**-1
    42:    1380.20 cm**-1
    43:    1384.76 cm**-1
    44:    1392.11 cm**-1
    45:    1423.32 cm**-1
    46:    1467.59 cm**-1
    47:    1474.32 cm**-1
    48:    1477.31 cm**-1
    49:    1478.03 cm**-1
    50:    1492.45 cm**-1
    51:    1495.69 cm**-1
    52:    2939.05 cm**-1
    53:    2982.99 cm**-1
    54:    2986.73 cm**-1
    55:    2989.93 cm**-1
    56:    2995.23 cm**-1
    57:    3003.87 cm**-1
    58:    3011.83 cm**-1
    59:    3028.04 cm**-1
    60:    3032.92 cm**-1
    61:    3038.35 cm**-1
    62:    3045.83 cm**-1
    63:    3050.34 cm**-1
    64:    3060.57 cm**-1
    65:    3800.79 cm**-1

IR SPECTRUM
-----------

 Mode   freq       eps      Int      T**2         TX        TY        TZ
       cm**-1   L/(mol*cm) km/mol    a.u.
----------------------------------------------------------------------------
  6:    105.16   0.000153    0.77  0.000453  ( 0.021031  0.003198 -0.000799)
  7:    178.16   0.000070    0.35  0.000122  (-0.000976  0.010302  0.003921)
  8:    258.14   0.000178    0.90  0.000215  ( 0.010865  0.004793  0.008629)
  9:    295.75   0.001451    7.34  0.001532  ( 0.035158  0.016480  0.004888)
 10:    310.08   0.001871    9.46  0.001883  (-0.030065 -0.027503 -0.014931)
 11:    331.67   0.018608   94.04  0.017508  (-0.088655 -0.088034 -0.043571)
 12:    375.46   0.001054    5.32  0.000876  ( 0.012658  0.024258  0.011268)
 13:    418.54   0.001212    6.13  0.000904  ( 0.019284 -0.017683 -0.014807)
 14:    476.88   0.000662    3.34  0.000433  (-0.018906 -0.001011  0.008629)
 15:    513.46   0.000446    2.25  0.000271  (-0.015039  0.006430  0.001872)
 16:    582.48   0.000309    1.56  0.000165  (-0.011892 -0.004821  0.000831)
 17:    731.00   0.000057    0.29  0.000024  ( 0.004642  0.000292  0.001589)
 18:    798.96   0.000832    4.20  0.000325  (-0.015540  0.000853  0.009086)
 19:    826.92   0.001148    5.80  0.000433  (-0.002533  0.020363  0.003464)
 20:    842.85   0.000301    1.52  0.000111  (-0.006820 -0.006344  0.004956)
 21:    860.96   0.000460    2.32  0.000167  ( 0.010143 -0.007983  0.000043)
 22:    921.37   0.003424   17.31  0.001160  ( 0.026630 -0.004281 -0.020792)
 23:    962.44   0.000797    4.03  0.000259  ( 0.012401 -0.008067  0.006301)
 24:    984.40   0.005946   30.05  0.001885  ( 0.035949  0.004221 -0.023976)
 25:   1015.89   0.001163    5.88  0.000357  (-0.013603  0.008904  0.009634)
 26:   1020.08   0.001314    6.64  0.000402  (-0.019132  0.000600  0.005972)
 27:   1033.80   0.007357   37.18  0.002221  ( 0.038988 -0.005151 -0.025968)
 28:   1080.01   0.001215    6.14  0.000351  ( 0.012665 -0.005474 -0.012677)
 29:   1116.90   0.001071    5.41  0.000299  ( 0.013582 -0.002368 -0.010442)
 30:   1128.11   0.001198    6.06  0.000331  ( 0.008313 -0.011142 -0.011757)
 31:   1169.52   0.000454    2.30  0.000121  (-0.004770 -0.009748  0.001852)
 32:   1218.61   0.000128    0.64  0.000033  (-0.001835 -0.005405  0.000303)
 33:   1222.80   0.003690   18.65  0.000942  ( 0.024651 -0.003240 -0.017985)
 34:   1234.79   0.000959    4.85  0.000242  ( 0.012933  0.002159 -0.008394)
 35:   1276.12   0.004213   21.29  0.001030  ( 0.021841 -0.004562 -0.023075)
 36:   1303.95   0.000617    3.12  0.000148  (-0.004370 -0.003426  0.010807)
 37:   1312.26   0.001063    5.37  0.000253  (-0.013032  0.000248  0.009102)
 38:   1348.64   0.000374    1.89  0.000086  ( 0.002198 -0.004626 -0.007763)
 39:   1352.79   0.000186    0.94  0.000043  (-0.006397 -0.001187  0.000732)
 40:   1366.46   0.000336    1.70  0.000077  ( 0.008290 -0.000934 -0.002653)
 41:   1369.65   0.001142    5.77  0.000260  ( 0.010201  0.005544 -0.011195)
 42:   1380.20   0.000319    1.61  0.000072  ( 0.004271 -0.005974  0.004262)
 43:   1384.76   0.000456    2.31  0.000103  ( 0.009583  0.002796 -0.001788)
 44:   1392.11   0.000909    4.60  0.000204  ( 0.013225  0.001978 -0.005002)
 45:   1423.32   0.001997   10.09  0.000438  (-0.005752 -0.011082  0.016792)
 46:   1467.59   0.000763    3.86  0.000162  ( 0.006619 -0.010885  0.000234)
 47:   1474.32   0.000885    4.47  0.000187  (-0.004266  0.012030 -0.004948)
 48:   1477.31   0.000905    4.57  0.000191  (-0.002350 -0.013617  0.000507)
 49:   1478.03   0.000754    3.81  0.000159  ( 0.010296  0.007237  0.000859)
 50:   1492.45   0.001394    7.05  0.000292  ( 0.006564 -0.000374 -0.015758)
 51:   1495.69   0.002724   13.77  0.000568  ( 0.001326  0.000164  0.023803)
 52:   2939.05   0.010421   52.66  0.001106  ( 0.013100  0.012589  0.027863)
 53:   2982.99   0.005204   26.30  0.000544  ( 0.017853  0.011819 -0.009275)
 54:   2986.73   0.007866   39.75  0.000822  (-0.016944  0.014930 -0.017660)
 55:   2989.93   0.002799   14.15  0.000292  (-0.007287  0.007519 -0.013510)
 56:   2995.23   0.007777   39.30  0.000810  ( 0.006781  0.009717  0.025882)
 57:   3003.87   0.002575   13.01  0.000268  ( 0.004482 -0.015071  0.004505)
 58:   3011.83   0.001771    8.95  0.000183  (-0.009466 -0.003671  0.008965)
 59:   3028.04   0.014099   71.25  0.001453  (-0.036547  0.010604  0.002213)
 60:   3032.92   0.005448   27.53  0.000561  (-0.016090 -0.016499 -0.005427)
 61:   3038.35   0.012882   65.10  0.001323  (-0.013379  0.026852  0.020567)
 62:   3045.83   0.005265   26.61  0.000539  (-0.006172  0.004081 -0.022016)
 63:   3050.34   0.017117   86.50  0.001751  (-0.009454 -0.028432  0.029213)
 64:   3060.57   0.008954   45.25  0.000913  (-0.007983 -0.018090 -0.022848)
 65:   3800.79   0.002589   13.08  0.000213  ( 0.012865 -0.006817  0.000777)

--------------------------
THERMOCHEMISTRY AT 298.15K
--------------------------

Temperature         ...   298.15 K
Pressure            ...     1.00 atm
Total Mass          ...   114.19 AMU
Quasi RRHO          ...     True
Cut-Off Frequency   ...     1.00 cm^-1

Throughout the following assumptions are being made:
  (1) The electronic state is orbitally nondegenerate
  (2) There are no thermally accessible electronically excited states
  (3) Hindered rotations indicated by low frequency modes are not
      treated as such but are treated as vibrations and this may
      cause some error
  (4) All equations used are the standard statistical mechanics
      equations for an ideal gas
  (5) All vibrations are strictly harmonic

freq.     105.16  E(vib)   ...       0.45
freq.     178.16  E(vib)   ...       0.37
freq.     258.14  E(vib)   ...       0.30
freq.     295.75  E(vib)   ...       0.27
freq.     310.08  E(vib)   ...       0.26
freq.     331.67  E(vib)   ...       0.24
freq.     375.46  E(vib)   ...       0.21
freq.     418.54  E(vib)   ...       0.18
freq.     476.88  E(vib)   ...       0.15
freq.     513.46  E(vib)   ...       0.13
freq.     582.48  E(vib)   ...       0.11
freq.     731.00  E(vib)   ...       0.06
freq.     798.96  E(vib)   ...       0.05
freq.     826.92  E(vib)   ...       0.04
freq.     842.85  E(vib)   ...       0.04
freq.     860.96  E(vib)   ...       0.04
freq.     921.37  E(vib)   ...       0.03
freq.     962.44  E(vib)   ...       0.03
freq.     984.40  E(vib)   ...       0.02
freq.    1015.89  E(vib)   ...       0.02
freq.    1020.08  E(vib)   ...       0.02
freq.    1033.80  E(vib)   ...       0.02
freq.    1080.01  E(vib)   ...       0.02
freq.    1116.90  E(vib)   ...       0.01
freq.    1128.11  E(vib)   ...       0.01
freq.    1169.52  E(vib)   ...       0.01
freq.    1218.61  E(vib)   ...       0.01
freq.    1222.80  E(vib)   ...       0.01
freq.    1234.79  E(vib)   ...       0.01
freq.    1276.12  E(vib)   ...       0.01
freq.    1303.95  E(vib)   ...       0.01
freq.    1312.26  E(vib)   ...       0.01
freq.    1348.64  E(vib)   ...       0.01
freq.    1352.79  E(vib)   ...       0.01
freq.    1366.46  E(vib)   ...       0.01
freq.    1369.65  E(vib)   ...       0.01
freq.    1380.20  E(vib)   ...       0.01
freq.    1384.76  E(vib)   ...       0.00
freq.    1392.11  E(vib)   ...       0.00
freq.    1423.32  E(vib)   ...       0.00
freq.    1467.59  E(vib)   ...       0.00
freq.    1474.32  E(vib)   ...       0.00
freq.    1477.31  E(vib)   ...       0.00
freq.    1478.03  E(vib)   ...       0.00
freq.    1492.45  E(vib)   ...       0.00
freq.    1495.69  E(vib)   ...       0.00
freq.    2939.05  E(vib)   ...       0.00
freq.    2982.99  E(vib)   ...       0.00
freq.    2986.73  E(vib)   ...       0.00
freq.    2989.93  E(vib)   ...       0.00
freq.    2995.23  E(vib)   ...       0.00
freq.    3003.87  E(vib)   ...       0.00
freq.    3011.83  E(vib)   ...       0.00
freq.    3028.04  E(vib)   ...       0.00
freq.    3032.92  E(vib)   ...       0.00
freq.    3038.35  E(vib)   ...       0.00
freq.    3045.83  E(vib)   ...       0.00
freq.    3050.34  E(vib)   ...       0.00
freq.    3060.57  E(vib)   ...       0.00
freq.    3800.79  E(vib)   ...       0.00

------------
INNER ENERGY
------------

The inner energy is: U= E(el) + E(ZPE) + E(vib) + E(rot) + E(trans)
    E(el)   - is the total energy from the electronic structure calculation
              = E(kin-el) + E(nuc-el) + E(el-el) + E(nuc-nuc)
    E(ZPE)  - the the zero temperature vibrational energy from the frequency calculation
    E(vib)  - the the finite temperature correction to E(ZPE) due to population
              of excited vibrational states
    E(rot)  - is the rotational thermal energy
    E(trans)- is the translational thermal energy

Summary of contributions to the inner energy U:
Electronic energy                ...   -350.32332968 Eh
Zero point energy                ...      0.20224956 Eh     126.91 kcal/mol
Thermal vibrational correction   ...      0.00514401 Eh       3.23 kcal/mol
Thermal rotational correction    ...      0.00141627 Eh       0.89 kcal/mol
Thermal translational correction ...      0.00141627 Eh       0.89 kcal/mol
-----------------------------------------------------------------------
Total thermal energy                   -350.11310357 Eh

Summary of corrections to the electronic energy:
(perhaps to be used in another calculation)
Total thermal correction                  0.00797655 Eh       5.01 kcal/mol
Non-thermal (ZPE) correction              0.20224956 Eh     126.91 kcal/mol
-----------------------------------------------------------------------
Total correction                          0.21022611 Eh     131.92 kcal/mol

--------
ENTHALPY
--------

The enthalpy is H = U + kB*T
                kB is Boltzmann's constant
Total thermal energy              ...   -350.11310357 Eh
Thermal Enthalpy correction       ...      0.00094421 Eh       0.59 kcal/mol
-----------------------------------------------------------------------
Total Enthalpy                    ...   -350.11215936 Eh

Note: Only C1 symmetry has been detected, increase convergence thresholds
      if your molecule has a higher symmetry. Symmetry factor of 1.0 is
      used for the rotational entropy correction.

Note: Rotational entropy computed according to Herzberg
Infrared and Raman Spectra, Chapter V,1, Van Nostrand Reinhold, 1945
Point Group:  C1, Symmetry Number:   1
Rotational constants in cm-1:     0.098804     0.057647     0.042509

Vibrational entropy computed according to the QRRHO of S. Grimme
Chem.Eur.J. 2012 18 9955 using a reference frequency of 100.0 cm-1

-------
ENTROPY
-------

The entropy contributions are T*S = T*(S(el)+S(vib)+S(rot)+S(trans))
     S(el)   - electronic entropy
     S(vib)  - vibrational entropy
     S(rot)  - rotational entropy
     S(trans)- translational entropy
The entropies will be listed as multiplied by the temperature to get
units of energy

Electronic entropy                ...      0.00000000 Eh      0.00 kcal/mol
Vibrational entropy               ...      0.00819045 Eh      5.14 kcal/mol
Rotational entropy                ...      0.01344147 Eh      8.43 kcal/mol
Translational entropy             ...      0.01905915 Eh     11.96 kcal/mol
-----------------------------------------------------------------------
Final entropy term                ...      0.04069107 Eh     25.53 kcal/mol

In case the symmetry of your molecule has not been determined correctly
or in case you have a reason to use a different symmetry number we print
out the resulting rotational entropy values for sn=1,12:

 non-linear molecules -----------------------------------

                             ****ORCA TERMINATED NORMALLY****
TOTAL RUN TIME: 0 days 0 hours 22 minutes 12 seconds 123 msec
