                         Program Version 6.0.1  -  RELEASE   -
|  1> ! r2scan-3c def2/J RI DEFGRID2 scfconv6 printgap
|  2> %output
|  3>     printlevel normal
|  4> end
|  5> * xyz 0 1
|  6> C 0.9578758682 1.2548028882 0.0235860015
|  7> C 0.4518358132 -0.1418910516 -0.353170189
|  8> C 1.3967416973 -1.235503783 0.129451699
|  9> C -0.9436512463 -0.3240770206 0.1939479496
| 10> O -1.8676593502 0.4065278524 -0.0269552117
| 11> H 0.2406353793 2.0081012502 -0.2917797023
| 12> H 1.9126088812 1.4531310821 -0.4568664145
| 13> H 1.0888804768 1.3296605531 1.1011469679
| 14> H 0.3668200911 -0.1860255964 -1.4461362013
| 15> H 2.3833312355 -1.1009588277 -0.3069524867
| 16> H 1.0281705423 -2.2185328004 -0.1551434738
| 17> H 1.4954247632 -1.2022795516 1.2125218838
| 18> H -1.0674016847 -1.213427253 0.8447965993
| 19> *
| 20>
| 21>                          ****END OF INPUT****

CARTESIAN COORDINATES (ANGSTROEM)
---------------------------------
  C      0.957876    1.254803    0.023586
  C      0.451836   -0.141891   -0.353170
  C      1.396742   -1.235504    0.129452
  C     -0.943651   -0.324077    0.193948
  O     -1.867659    0.406528   -0.026955
  H      0.240635    2.008101   -0.291780
  H      1.912609    1.453131   -0.456866
  H      1.088880    1.329661    1.101147
  H      0.366820   -0.186026   -1.446136
  H      2.383331   -1.100959   -0.306952
  H      1.028171   -2.218533   -0.155143
  H      1.495425   -1.202280    1.212522
  H     -1.067402   -1.213427    0.844797

 Total Charge           Charge          ....    0
 Multiplicity           Mult            ....    1
 Number of Electrons    NEL             ....   40
 Basis Dimension        Dim             ....  140

ORBITAL ENERGIES
----------------

  NO   OCC          E(Eh)            E(eV)
   0   2.0000     -18.952189      -515.7153
   1   2.0000     -10.119366      -275.3619
   2   2.0000     -10.052227      -273.5350
   3   2.0000     -10.033633      -273.0290
   4   2.0000     -10.030780      -272.9514
   5   2.0000      -1.020563       -27.7709
   6   2.0000      -0.782000       -21.2793
   7   2.0000      -0.666738       -18.1429
   8   2.0000      -0.615372       -16.7451
   9   2.0000      -0.532409       -14.4876
  10   2.0000      -0.450120       -12.2484
  11   2.0000      -0.435607       -11.8535
  12   2.0000      -0.418563       -11.3897
  13   2.0000      -0.381658       -10.3854
  14   2.0000      -0.372022       -10.1232
  15   2.0000      -0.360590        -9.8122
  16   2.0000      -0.346066        -9.4169
  17   2.0000      -0.321324        -8.7437
  18   2.0000      -0.314903        -8.5690
  19   2.0000      -0.222335        -6.0501
  20   0.0000      -0.063783        -1.7356
  21   0.0000       0.086127         2.3436
  22   0.0000       0.111870         3.0441
  23   0.0000       0.117634         3.2010
  24   0.0000       0.130563         3.5528

MULLIKEN ATOMIC CHARGES
-----------------------
   0 C :   -0.481668
   1 C :    0.049880
   2 C :   -0.521557
   3 C :    0.077040
   4 O :   -0.328605
   5 H :    0.174680
   6 H :    0.149200
   7 H :    0.148064
   8 H :    0.164284
   9 H :    0.152418
  10 H :    0.151876
  11 H :    0.152610
  12 H :    0.111777
Sum of atomic charges:   -0.0000000

LOEWDIN ATOMIC CHARGES
----------------------
   0 C :   -0.392378
   1 C :   -0.246801
   2 C :   -0.417760
   3 C :    0.210532
   4 O :   -0.438218
   5 H :    0.168420
   6 H :    0.155133
   7 H :    0.156415
   8 H :    0.180468
   9 H :    0.158845
  10 H :    0.156580
  11 H :    0.156783
  12 H :    0.151982

  Mayer bond orders larger than 0.100000
B(  0-C ,  1-C ) :   0.8967 B(  0-C ,  5-H ) :   0.9647 B(  0-C ,  6-H ) :   0.9718
B(  0-C ,  7-H ) :   0.9814 B(  1-C ,  2-C ) :   0.8856 B(  1-C ,  3-C ) :   0.8388
B(  1-C ,  8-H ) :   0.9220 B(  2-C ,  9-H ) :   0.9681 B(  2-C , 10-H ) :   0.9721
B(  2-C , 11-H ) :   0.9804 B(  3-C ,  4-O ) :   1.9392 B(  3-C , 12-H ) :   0.9875

Dispersion correction           -0.002773867
FINAL SINGLE POINT ENERGY      -232.392072261727

DIPOLE MOMENT
-------------

Method             : SCF
Type of density    : Electron Density
Multiplicity       :   1
Irrep              :   0
Energy             :  -232.3954292953675065 Eh
Relativity type    :
Basis              : AO
                                X                 Y                 Z
Electronic contribution:     -6.004815494       0.603077172      -0.432984945
Nuclear contribution   :      6.960201631      -1.054409013       0.470172252
                        -----------------------------------------
Total Dipole Moment    :      0.955386137      -0.451331841       0.037187306
                        -----------------------------------------
Magnitude (a.u.)       :      1.057282364
Magnitude (Debye)      :      2.687398199

Rotational constants in cm-1:             0.269690             0.128997             0.094997
Rotational constants in MHz :          8085.093279          3867.245943          2847.936107

                             ****ORCA TERMINATED NORMALLY****
TOTAL RUN TIME: 0 days 0 hours 0 minutes 19 seconds 454 msec
