                         Program Version 6.0.1  -  RELEASE   -
|  1> ! pbe def2-sv(p) def2/J RI DEFGRID1 loosescf d4 GCP(DFT/SV(P)) printgap
|  2> %output
|  3>     printlevel normal
|  4> end
|  5> * xyz 0 1
|  6> C -2.2797840565 -0.9649529202 -0.303912602
|  7> C -1.1469994407 -0.2159465316 0.4112382601
|  8> H -1.5486436971 0.2204982528 1.3357460905
|  9> C -0.5626950351 0.9014294848 -0.4639455156
| 10> H -0.4044401878 0.5245924083 -1.4826590628
| 11> C 0.7871472755 1.3320161616 0.134146528
| 12> H 0.6701307968 1.566739505 1.1988702639
| 13> C 1.7792051069 0.1598501284 0.0264607835
| 14> H 2.2693460614 0.1972986144 -0.9587851843
| 15> C 1.0299460973 -1.193309066 0.0981442847
| 16> H 1.6532053163 -1.9141955364 0.6553995948
| 17> O -0.1511550571 -1.1498871558 0.839867811
| 18> O 0.8287244486 -1.6259605162 -1.2170110977
| 19> O 2.7119306948 0.2962485631 1.0633211219
| 20> O 1.2636350069 2.508447319 -0.4504726939
| 21> O -1.4526434507 1.9741908793 -0.5945198816
| 22> O -2.8576251797 -1.9342329819 0.5289407647
| 23> H -1.8860208928 -1.4270961529 -1.2220027977
| 24> H -3.0653951046 -0.2579376161 -0.5768017497
| 25> H 0.3518267899 -2.4656001751 -1.2067861272
| 26> H 3.4378356171 -0.3249099629 0.9377704979
| 27> H 1.2963364207 2.3989072171 -1.4086893058
| 28> H -1.3916493874 2.5341025057 0.1891623045
| 29> H -2.1397220041 -2.372087006 1.0044778005
| 30> *
| 31>
| 32>                          ****END OF INPUT****

CARTESIAN COORDINATES (ANGSTROEM)
---------------------------------
  C     -2.279784   -0.964953   -0.303913
  C     -1.146999   -0.215947    0.411238
  H     -1.548644    0.220498    1.335746
  C     -0.562695    0.901429   -0.463946
  H     -0.404440    0.524592   -1.482659
  C      0.787147    1.332016    0.134147
  H      0.670131    1.566740    1.198870
  C      1.779205    0.159850    0.026461
  H      2.269346    0.197299   -0.958785
  C      1.029946   -1.193309    0.098144
  H      1.653205   -1.914196    0.655400
  O     -0.151155   -1.149887    0.839868
  O      0.828724   -1.625961   -1.217011
  O      2.711931    0.296249    1.063321
  O      1.263635    2.508447   -0.450473
  O     -1.452643    1.974191   -0.594520
  O     -2.857625   -1.934233    0.528941
  H     -1.886021   -1.427096   -1.222003
  H     -3.065395   -0.257938   -0.576802
  H      0.351827   -2.465600   -1.206786
  H      3.437836   -0.324910    0.937770
  H      1.296336    2.398907   -1.408689
  H     -1.391649    2.534103    0.189162
  H     -2.139722   -2.372087    1.004478

 Total Charge           Charge          ....    0
 Multiplicity           Mult            ....    1
 Number of Electrons    NEL             ....   96
 Basis Dimension        Dim             ....  192

ORBITAL ENERGIES
----------------

  NO   OCC          E(Eh)            E(eV)
   0   2.0000     -18.782963      -511.1104
   1   2.0000     -18.776489      -510.9342
   2   2.0000     -18.760308      -510.4939
   3   2.0000     -18.756950      -510.4026
   4   2.0000     -18.752931      -510.2932
   5   2.0000     -18.740901      -509.9658
   6   2.0000      -9.996551      -272.0200
   7   2.0000      -9.949717      -270.7456
   8   2.0000      -9.947623      -270.6886
   9   2.0000      -9.946785      -270.6658
  10   2.0000      -9.946482      -270.6575
  11   2.0000      -9.927800      -270.1492
  12   2.0000      -0.994888       -27.0723
  13   2.0000      -0.950939       -25.8764
  14   2.0000      -0.939455       -25.5639
  15   2.0000      -0.930054       -25.3081
  16   2.0000      -0.921788       -25.0831
  17   2.0000      -0.914268       -24.8785
  18   2.0000      -0.709940       -19.3185
  19   2.0000      -0.697622       -18.9833
  20   2.0000      -0.620217       -16.8770
  21   2.0000      -0.596414       -16.2292
  22   2.0000      -0.572806       -15.5869
  23   2.0000      -0.536998       -14.6125
  24   2.0000      -0.512100       -13.9350
  25   2.0000      -0.495344       -13.4790
  26   2.0000      -0.473714       -12.8904
  27   2.0000      -0.464032       -12.6269
  28   2.0000      -0.442637       -12.0448
  29   2.0000      -0.431269       -11.7354
  30   2.0000      -0.415080       -11.2949
  31   2.0000      -0.405937       -11.0461
  32   2.0000      -0.391714       -10.6591
  33   2.0000      -0.386870       -10.5273
  34   2.0000      -0.364612        -9.9216
  35   2.0000      -0.360057        -9.7976
  36   2.0000      -0.338053        -9.1989
  37   2.0000      -0.315628        -8.5887
  38   2.0000      -0.308356        -8.3908
  39   2.0000      -0.293077        -7.9750
  40   2.0000      -0.287112        -7.8127
  41   2.0000      -0.276729        -7.5302
  42   2.0000      -0.262814        -7.1515
  43   2.0000      -0.247178        -6.7261
  44   2.0000      -0.235684        -6.4133
  45   2.0000      -0.222600        -6.0573
  46   2.0000      -0.220797        -6.0082
  47   2.0000      -0.205297        -5.5864
  48   0.0000       0.011425         0.3109
  49   0.0000       0.021741         0.5916
  50   0.0000       0.026883         0.7315
  51   0.0000       0.032258         0.8778
  52   0.0000       0.045599         1.2408

MULLIKEN ATOMIC CHARGES
-----------------------
   0 C :    0.089436
   1 C :    0.021989
   2 H :    0.062035
   3 C :    0.012751
   4 H :    0.066794
   5 C :    0.043550
   6 H :    0.065974
   7 C :    0.081637
   8 H :    0.058879
   9 C :    0.157039
  10 H :    0.048825
  11 O :   -0.324295
  12 O :   -0.398369
  13 O :   -0.401429
  14 O :   -0.399037
  15 O :   -0.398172
  16 O :   -0.432700
  17 H :    0.051142
  18 H :    0.092495
  19 H :    0.305770
  20 H :    0.301220
  21 H :    0.299412
  22 H :    0.302142
  23 H :    0.292911
Sum of atomic charges:   -0.0000000

LOEWDIN ATOMIC CHARGES
----------------------
   0 C :   -0.132261
   1 C :   -0.076221
   2 H :    0.113319
   3 C :   -0.088697
   4 H :    0.114283
   5 C :   -0.073973
   6 H :    0.121414
   7 C :   -0.081017
   8 H :    0.106052
   9 C :   -0.011694
  10 H :    0.093049
  11 O :   -0.145642
  12 O :   -0.314401
  13 O :   -0.307873
  14 O :   -0.302297
  15 O :   -0.303002
  16 O :   -0.339073
  17 H :    0.089248
  18 H :    0.119951
  19 H :    0.285043
  20 H :    0.286482
  21 H :    0.285187
  22 H :    0.287582
  23 H :    0.274540

  Mayer bond orders larger than 0.100000
B(  0-C ,  1-C ) :   1.0766 B(  0-C , 16-O ) :   1.0766 B(  0-C , 17-H ) :   0.8958
B(  0-C , 18-H ) :   0.9114 B(  1-C ,  2-H ) :   0.8756 B(  1-C ,  3-C ) :   0.9477
B(  1-C , 11-O ) :   0.9341 B(  3-C ,  4-H ) :   0.8656 B(  3-C ,  5-C ) :   1.0302
B(  3-C , 15-O ) :   1.0655 B(  5-C ,  6-H ) :   0.8486 B(  5-C ,  7-C ) :   1.0026
B(  5-C , 14-O ) :   1.0731 B(  7-C ,  8-H ) :   0.8770 B(  7-C ,  9-C ) :   0.9728
B(  7-C , 13-O ) :   1.0992 B(  9-C , 10-H ) :   0.8941 B(  9-C , 11-O ) :   1.0875
B(  9-C , 12-O ) :   1.0802 B( 12-O , 19-H ) :   0.8316 B( 13-O , 20-H ) :   0.8476
B( 14-O , 21-H ) :   0.8498 B( 15-O , 22-H ) :   0.8464 B( 16-O , 23-H ) :   0.8414

Dispersion correction           -0.024476182
FINAL SINGLE POINT ENERGY      -685.687323380909

DIPOLE MOMENT
-------------

Method             : SCF
Type of density    : Electron Density
Multiplicity       :   1
Irrep              :   0
Energy             :  -685.8176870446397970 Eh
Relativity type    :
Basis              : AO
                                X                 Y                 Z
Electronic contribution:      1.591158883       0.544152996       1.188055500
Nuclear contribution   :     -0.705293894      -1.237072469      -1.436911901
                        -----------------------------------------
Total Dipole Moment    :      0.885864988      -0.692919473      -0.248856400
                        -----------------------------------------
Magnitude (a.u.)       :      1.151878328
Magnitude (Debye)      :      2.927842029

Rotational constants in cm-1:             0.042395             0.025804             0.018921
Rotational constants in MHz :          1270.959978           773.585087           567.249729

                             ****ORCA TERMINATED NORMALLY****
TOTAL RUN TIME: 0 days 0 hours 0 minutes 8 seconds 190 msec
