                         Program Version 6.0.1  -  RELEASE   -
|  1> ! r2scan-3c def2/J RI DEFGRID2 scfconv6 printgap
|  2> %output
|  3>     printlevel normal
|  4> end
|  5> * xyz 0 1
|  6> C -4.7749082743 -0.9521126483 0.0042256397
|  7> N -3.3389726867 -1.0476389083 0.0600981773
|  8> C -2.5346235886 0.0371591441 -0.0129834139
|  9> O -2.923748933 1.1706639412 -0.1249765099
| 10> O -1.2463259485 -0.3862478355 0.0589250146
| 11> C -0.1396407877 0.4459107572 0.0304434567
| 12> C -0.17852806 1.8152930174 0.0354442179
| 13> C 1.0168216279 2.55025541 0.015655386
| 14> C 2.2291463527 1.9244764009 -0.004932726
| 15> C 2.3036149161 0.5156552647 -0.0073240706
| 16> C 1.1061474531 -0.2445429153 0.0095812247
| 17> C 1.1905514548 -1.6514554454 0.0060204423
| 18> C 2.4048688206 -2.2795857662 -0.0122116758
| 19> C 3.5900932325 -1.5303058288 -0.0276581264
| 20> C 3.5389848949 -0.164646188 -0.0257106344
| 21> H -5.0278041693 0.1037629868 -0.0740076374
| 22> H -5.2245804602 -1.3660587035 0.9087966182
| 23> H -5.1660171706 -1.4823564762 -0.8664593908
| 24> H -2.9107162045 -1.9547980271 0.1464850183
| 25> H -1.121633859 2.3344737627 0.0499600728
| 26> H 0.9572802167 3.6283517652 0.0181723482
| 27> H 3.1466598859 2.4944102476 -0.0192598576
| 28> H 0.2761966746 -2.2243009031 0.0179723184
| 29> H 2.4585272094 -3.3585148021 -0.0147263121
| 30> H 4.5416216584 -2.0415855407 -0.0414490386
| 31> H 4.4481529703 0.4192849165 -0.0378817336
| 32> *
| 33>
| 34>                          ****END OF INPUT****

CARTESIAN COORDINATES (ANGSTROEM)
---------------------------------
  C     -4.774908   -0.952113    0.004226
  N     -3.338973   -1.047639    0.060098
  C     -2.534624    0.037159   -0.012983
  O     -2.923749    1.170664   -0.124977
  O     -1.246326   -0.386248    0.058925
  C     -0.139641    0.445911    0.030443
  C     -0.178528    1.815293    0.035444
  C      1.016822    2.550255    0.015655
  C      2.229146    1.924476   -0.004933
  C      2.303615    0.515655   -0.007324
  C      1.106147   -0.244543    0.009581
  C      1.190551   -1.651455    0.006020
  C      2.404869   -2.279586   -0.012212
  C      3.590093   -1.530306   -0.027658
  C      3.538985   -0.164646   -0.025711
  H     -5.027804    0.103763   -0.074008
  H     -5.224580   -1.366059    0.908797
  H     -5.166017   -1.482356   -0.866459
  H     -2.910716   -1.954798    0.146485
  H     -1.121634    2.334474    0.049960
  H      0.957280    3.628352    0.018172
  H      3.146660    2.494410   -0.019260
  H      0.276197   -2.224301    0.017972
  H      2.458527   -3.358515   -0.014726
  H      4.541622   -2.041586   -0.041449
  H      4.448153    0.419285   -0.037882

 Total Charge           Charge          ....    0
 Multiplicity           Mult            ....    1
 Number of Electrons    NEL             ....  106
 Basis Dimension        Dim             ....  355

ORBITAL ENERGIES
----------------

  NO   OCC          E(Eh)            E(eV)
   0   2.0000     -19.013873      -517.3938
   1   2.0000     -18.927065      -515.0316
   2   2.0000     -14.196574      -386.3084
   3   2.0000     -10.183450      -277.1058
   4   2.0000     -10.106552      -275.0133
   5   2.0000     -10.071367      -274.0558
   6   2.0000     -10.049623      -273.4641
   7   2.0000     -10.048029      -273.4208
   8   2.0000     -10.038216      -273.1537
   9   2.0000     -10.038145      -273.1518
  10   2.0000     -10.037474      -273.1335
  11   2.0000     -10.037104      -273.1235
  12   2.0000     -10.036481      -273.1065
  13   2.0000     -10.032479      -272.9976
  14   2.0000     -10.030272      -272.9376
  15   2.0000      -1.088490       -29.6193
  16   2.0000      -0.998548       -27.1719
  17   2.0000      -0.906398       -24.6644
  18   2.0000      -0.847964       -23.0743
  19   2.0000      -0.795075       -21.6351
  20   2.0000      -0.752416       -20.4743
  21   2.0000      -0.716138       -19.4871
  22   2.0000      -0.707135       -19.2421
  23   2.0000      -0.677667       -18.4402
  24   2.0000      -0.618275       -16.8241
  25   2.0000      -0.593293       -16.1443
  26   2.0000      -0.586275       -15.9533
  27   2.0000      -0.558608       -15.2005
  28   2.0000      -0.528173       -14.3723
  29   2.0000      -0.492073       -13.3900
  30   2.0000      -0.474024       -12.8989
  31   2.0000      -0.459992       -12.5170
  32   2.0000      -0.455082       -12.3834
  33   2.0000      -0.451834       -12.2950
  34   2.0000      -0.424186       -11.5427
  35   2.0000      -0.417519       -11.3613
  36   2.0000      -0.410622       -11.1736
  37   2.0000      -0.400516       -10.8986
  38   2.0000      -0.392629       -10.6840
  39   2.0000      -0.374843       -10.2000
  40   2.0000      -0.372321       -10.1314
  41   2.0000      -0.368706       -10.0330
  42   2.0000      -0.362440        -9.8625
  43   2.0000      -0.340402        -9.2628
  44   2.0000      -0.329605        -8.9690
  45   2.0000      -0.313277        -8.5247
  46   2.0000      -0.306315        -8.3353
  47   2.0000      -0.302737        -8.2379
  48   2.0000      -0.257576        -7.0090
  49   2.0000      -0.249779        -6.7968
  50   2.0000      -0.239743        -6.5237
  51   2.0000      -0.233921        -6.3653
  52   2.0000      -0.196779        -5.3546
  53   0.0000      -0.066100        -1.7987
  54   0.0000      -0.037627        -1.0239
  55   0.0000      -0.004939        -0.1344
  56   0.0000       0.028954         0.7879
  57   0.0000       0.050587         1.3765

MULLIKEN ATOMIC CHARGES
-----------------------
   0 C :   -0.397437
   1 N :   -0.149109
   2 C :    0.335920
   3 O :   -0.480995
   4 O :   -0.111890
   5 C :    0.243631
   6 C :   -0.200044
   7 C :   -0.184056
   8 C :   -0.271057
   9 C :    0.184270
  10 C :    0.038151
  11 C :   -0.315472
  12 C :   -0.133751
  13 C :   -0.148899
  14 C :   -0.220104
  15 H :    0.195679
  16 H :    0.144700
  17 H :    0.144872
  18 H :    0.244990
  19 H :    0.200551
  20 H :    0.146029
  21 H :    0.143568
  22 H :    0.156621
  23 H :    0.144562
  24 H :    0.145235
  25 H :    0.144036
Sum of atomic charges:    0.0000000

LOEWDIN ATOMIC CHARGES
----------------------
   0 C :   -0.109073
   1 N :   -0.607851
   2 C :    0.464137
   3 O :   -0.418469
   4 O :   -0.511339
   5 C :    0.235160
   6 C :   -0.130244
   7 C :   -0.152553
   8 C :   -0.156629
   9 C :   -0.053775
  10 C :   -0.018744
  11 C :   -0.129482
  12 C :   -0.164486
  13 C :   -0.163169
  14 C :   -0.142360
  15 H :    0.206564
  16 H :    0.169573
  17 H :    0.169176
  18 H :    0.276465
  19 H :    0.208517
  20 H :    0.170119
  21 H :    0.170319
  22 H :    0.181388
  23 H :    0.167544
  24 H :    0.167827
  25 H :    0.171386

  Mayer bond orders larger than 0.100000
B(  0-C ,  1-N ) :   0.9005 B(  0-C , 15-H ) :   0.9600 B(  0-C , 16-H ) :   0.9611
B(  0-C , 17-H ) :   0.9600 B(  1-N ,  2-C ) :   1.2547 B(  1-N , 18-H ) :   0.9119
B(  2-C ,  3-O ) :   1.8164 B(  2-C ,  4-O ) :   1.0558 B(  4-O ,  5-C ) :   0.9935
B(  4-O , 10-C ) :  -0.1192 B(  5-C ,  6-C ) :   1.5284 B(  5-C , 10-C ) :   1.1782
B(  5-C , 11-C ) :  -0.1095 B(  6-C ,  7-C ) :   1.1982 B(  6-C , 19-H ) :   0.9280
B(  7-C ,  8-C ) :   1.4881 B(  7-C , 20-H ) :   0.9661 B(  8-C ,  9-C ) :   1.1534
B(  8-C , 21-H ) :   0.9471 B(  9-C , 10-C ) :   1.4347 B(  9-C , 14-C ) :   1.1836
B( 10-C , 11-C ) :   1.2671 B( 11-C , 12-C ) :   1.4752 B( 11-C , 22-H ) :   0.9617
B( 12-C , 13-C ) :   1.2735 B( 12-C , 23-H ) :   0.9505 B( 13-C , 14-C ) :   1.5117
B( 13-C , 24-H ) :   0.9490 B( 14-C , 25-H ) :   0.9517

Dispersion correction           -0.010487752
FINAL SINGLE POINT ENERGY      -668.976693493116

DIPOLE MOMENT
-------------

Method             : SCF
Type of density    : Electron Density
Multiplicity       :   1
Irrep              :   0
Energy             :  -668.9815746444379556 Eh
Relativity type    :
Basis              : AO
                                X                 Y                 Z
Electronic contribution:      3.256246880       2.196553563       0.008965077
Nuclear contribution   :     -3.478443556      -3.228322393       0.081537858
                        -----------------------------------------
Total Dipole Moment    :     -0.222196677      -1.031768829       0.090502934
                        -----------------------------------------
Magnitude (a.u.)       :      1.059296494
Magnitude (Debye)      :      2.692517709

Rotational constants in cm-1:             0.042310             0.012384             0.009602
Rotational constants in MHz :          1268.435918           371.264584           287.864044

                             ****ORCA TERMINATED NORMALLY****
TOTAL RUN TIME: 0 days 0 hours 1 minutes 28 seconds 580 msec
