                         Program Version 6.0.1  -  RELEASE   -
|  1> ! pbe def2-sv(p) def2/J RI DEFGRID1 loosescf d4 GCP(DFT/SV(P)) printgap
|  2> %output
|  3>     printlevel normal
|  4> end
|  5> * xyz 0 1
|  6> C -3.2761734615 -0.3942458729 0.2248501313
|  7> C -1.8950138543 -0.3345605741 -0.4349525127
|  8> H -2.0370893774 -0.1142036771 -1.4988326747
|  9> C -1.1262079892 -1.6462582852 -0.2826277469
| 10> C 0.3492531636 -1.4025773504 -0.5786558347
| 11> C 0.9929677853 -0.5289801951 0.5154585868
| 12> H 1.3491556013 -1.1854472225 1.3168100526
| 13> C -0.0456764352 0.4310237435 1.1320362907
| 14> C -1.1254488504 0.8311485761 0.161499302
| 15> O -1.3950364512 1.9781936308 -0.0967732184
| 16> C 2.1895691306 0.196237256 -0.0594987654
| 17> C 2.0917094552 1.3595844211 -0.6815744362
| 18> C 3.4943865282 -0.5271667364 0.0885804195
| 19> H -3.7952598878 0.5517187824 0.0926621804
| 20> H -3.870915174 -1.1873997041 -0.2225639071
| 21> H -3.1823129224 -0.5915325052 1.2912242928
| 22> H -1.240223265 -2.0399029518 0.7297007025
| 23> H -1.53259391 -2.3891937282 -0.9717109619
| 24> H 0.885348824 -2.3498483744 -0.6547583034
| 25> H 0.4342486475 -0.8933527824 -1.5418664835
| 26> H -0.5489696165 -0.0752441353 1.9596101358
| 27> H 0.4470965437 1.3211875044 1.5243299749
| 28> H 2.9551537387 1.8446168276 -1.1047225471
| 29> H 1.1569304067 1.8799149925 -0.7931691716
| 30> H 3.7518847321 -0.6281512542 1.1429706223
| 31> H 3.421140024 -1.5291908165 -0.3329348517
| 32> H 4.2959556975 0.0061329991 -0.4148798781
| 33> *
| 34>
| 35>                          ****END OF INPUT****

CARTESIAN COORDINATES (ANGSTROEM)
---------------------------------
  C     -3.276173   -0.394246    0.224850
  C     -1.895014   -0.334561   -0.434953
  H     -2.037089   -0.114204   -1.498833
  C     -1.126208   -1.646258   -0.282628
  C      0.349253   -1.402577   -0.578656
  C      0.992968   -0.528980    0.515459
  H      1.349156   -1.185447    1.316810
  C     -0.045676    0.431024    1.132036
  C     -1.125449    0.831149    0.161499
  O     -1.395036    1.978194   -0.096773
  C      2.189569    0.196237   -0.059499
  C      2.091709    1.359584   -0.681574
  C      3.494387   -0.527167    0.088580
  H     -3.795260    0.551719    0.092662
  H     -3.870915   -1.187400   -0.222564
  H     -3.182313   -0.591533    1.291224
  H     -1.240223   -2.039903    0.729701
  H     -1.532594   -2.389194   -0.971711
  H      0.885349   -2.349848   -0.654758
  H      0.434249   -0.893353   -1.541866
  H     -0.548970   -0.075244    1.959610
  H      0.447097    1.321188    1.524330
  H      2.955154    1.844617   -1.104723
  H      1.156930    1.879915   -0.793169
  H      3.751885   -0.628151    1.142971
  H      3.421140   -1.529191   -0.332935
  H      4.295956    0.006133   -0.414880

 Total Charge           Charge          ....    0
 Multiplicity           Mult            ....    1
 Number of Electrons    NEL             ....   84
 Basis Dimension        Dim             ....  186

ORBITAL ENERGIES
----------------

  NO   OCC          E(Eh)            E(eV)
   0   2.0000     -18.734725      -509.7978
   1   2.0000      -9.967988      -271.2428
   2   2.0000      -9.909921      -269.6627
   3   2.0000      -9.901822      -269.4423
   4   2.0000      -9.899134      -269.3691
   5   2.0000      -9.895303      -269.2649
   6   2.0000      -9.894752      -269.2499
   7   2.0000      -9.891224      -269.1539
   8   2.0000      -9.885792      -269.0061
   9   2.0000      -9.882346      -268.9123
  10   2.0000      -9.865998      -268.4675
  11   2.0000      -0.936956       -25.4959
  12   2.0000      -0.773353       -21.0440
  13   2.0000      -0.729368       -19.8471
  14   2.0000      -0.682136       -18.5619
  15   2.0000      -0.661741       -18.0069
  16   2.0000      -0.612584       -16.6693
  17   2.0000      -0.607019       -16.5178
  18   2.0000      -0.554580       -15.0909
  19   2.0000      -0.536309       -14.5937
  20   2.0000      -0.470648       -12.8070
  21   2.0000      -0.466767       -12.7014
  22   2.0000      -0.441914       -12.0251
  23   2.0000      -0.422221       -11.4892
  24   2.0000      -0.408341       -11.1115
  25   2.0000      -0.399270       -10.8647
  26   2.0000      -0.386062       -10.5053
  27   2.0000      -0.374850       -10.2002
  28   2.0000      -0.367721       -10.0062
  29   2.0000      -0.358436        -9.7536
  30   2.0000      -0.356881        -9.7112
  31   2.0000      -0.351129        -9.5547
  32   2.0000      -0.340479        -9.2649
  33   2.0000      -0.328764        -8.9461
  34   2.0000      -0.323521        -8.8034
  35   2.0000      -0.311966        -8.4890
  36   2.0000      -0.307731        -8.3738
  37   2.0000      -0.287557        -7.8248
  38   2.0000      -0.283213        -7.7066
  39   2.0000      -0.273146        -7.4327
  40   2.0000      -0.216030        -5.8785
  41   2.0000      -0.189299        -5.1511
  42   0.0000      -0.050756        -1.3811
  43   0.0000      -0.012822        -0.3489
  44   0.0000       0.023017         0.6263
  45   0.0000       0.045611         1.2411
  46   0.0000       0.050683         1.3792

MULLIKEN ATOMIC CHARGES
-----------------------
   0 C :   -0.222962
   1 C :   -0.200278
   2 H :    0.087620
   3 C :   -0.084313
   4 C :   -0.098521
   5 C :   -0.159716
   6 H :    0.059307
   7 C :   -0.057363
   8 C :   -0.006742
   9 O :   -0.157395
  10 C :   -0.057529
  11 C :   -0.250272
  12 C :   -0.213329
  13 H :    0.118620
  14 H :    0.108514
  15 H :    0.095319
  16 H :    0.068309
  17 H :    0.088350
  18 H :    0.086641
  19 H :    0.086401
  20 H :    0.095945
  21 H :    0.098783
  22 H :    0.082676
  23 H :    0.115412
  24 H :    0.109920
  25 H :    0.107281
  26 H :    0.099318
Sum of atomic charges:    0.0000000

LOEWDIN ATOMIC CHARGES
----------------------
   0 C :   -0.317132
   1 C :   -0.174347
   2 H :    0.134779
   3 C :   -0.219239
   4 C :   -0.212177
   5 C :   -0.125339
   6 H :    0.119774
   7 C :   -0.235998
   8 C :    0.048039
   9 O :   -0.122767
  10 C :   -0.052755
  11 C :   -0.268444
  12 C :   -0.322556
  13 H :    0.127755
  14 H :    0.122765
  15 H :    0.117417
  16 H :    0.115113
  17 H :    0.122484
  18 H :    0.120275
  19 H :    0.123427
  20 H :    0.140211
  21 H :    0.134255
  22 H :    0.119359
  23 H :    0.125320
  24 H :    0.128746
  25 H :    0.126528
  26 H :    0.124505

  Mayer bond orders larger than 0.100000
B(  0-C ,  1-C ) :   1.1023 B(  0-C , 13-H ) :   0.9440 B(  0-C , 14-H ) :   0.9476
B(  0-C , 15-H ) :   0.9442 B(  1-C ,  2-H ) :   0.8731 B(  1-C ,  3-C ) :   1.0767
B(  1-C ,  8-C ) :   0.9371 B(  3-C ,  4-C ) :   1.1762 B(  3-C , 16-H ) :   0.8880
B(  3-C , 17-H ) :   0.9073 B(  4-C ,  5-C ) :   1.0948 B(  4-C , 18-H ) :   0.9105
B(  4-C , 19-H ) :   0.8987 B(  5-C ,  6-H ) :   0.8732 B(  5-C ,  7-C ) :   1.0741
B(  5-C , 10-C ) :   0.9990 B(  7-C ,  8-C ) :   1.0819 B(  7-C , 20-H ) :   0.8627
B(  7-C , 21-H ) :   0.8937 B(  8-C ,  9-O ) :   2.1570 B( 10-C , 11-C ) :   2.0433
B( 10-C , 12-C ) :   1.1277 B( 11-C , 22-H ) :   0.9033 B( 11-C , 23-H ) :   0.8941
B( 12-C , 24-H ) :   0.9276 B( 12-C , 25-H ) :   0.9318 B( 12-C , 26-H ) :   0.9409

Dispersion correction           -0.028949465
FINAL SINGLE POINT ENERGY      -464.824044300849

DIPOLE MOMENT
-------------

Method             : SCF
Type of density    : Electron Density
Multiplicity       :   1
Irrep              :   0
Energy             :  -464.9096358746996884 Eh
Relativity type    :
Basis              : AO
                                X                 Y                 Z
Electronic contribution:     -2.112948661       5.718749452      -0.258436151
Nuclear contribution   :      2.314925899      -6.894237393       0.488165180
                        -----------------------------------------
Total Dipole Moment    :      0.201977239      -1.175487941       0.229729029
                        -----------------------------------------
Magnitude (a.u.)       :      1.214636625
Magnitude (Debye)      :      3.087360945

Rotational constants in cm-1:             0.068688             0.025467             0.020984
Rotational constants in MHz :          2059.200737           763.487719           629.077107

                             ****ORCA TERMINATED NORMALLY****
TOTAL RUN TIME: 0 days 0 hours 0 minutes 26 seconds 135 msec
