                         Program Version 6.0.1  -  RELEASE   -
|  1> ! pbe def2-sv(p) def2/J RI DEFGRID1 loosescf d4 GCP(DFT/SV(P)) printgap
|  2> %output
|  3>     printlevel normal
|  4> end
|  5> * xyz 0 1
|  6> C -1.0186294319 -1.8020751375 -6.3708e-06
|  7> C 0.3524325964 -1.6178273377 5.7522e-06
|  8> C 0.8739400305 -0.325884851 1.30059e-05
|  9> C 0.0133066187 0.77120394 6.463e-06
| 10> C -1.359814284 0.58184707 -2.7726e-06
| 11> C -1.8735007578 -0.7155611335 -9.563e-06
| 12> O -2.2347438382 1.6168396968 4.9997e-06
| 13> C 2.3237158973 -0.1012218658 3.11976e-05
| 14> O 2.8617615209 0.9770467321 -3.03942e-05
| 15> H -1.4293458993 -2.800336243 -5.76003e-05
| 16> H 1.0203706235 -2.4660785648 -2.52146e-05
| 17> H 0.4420884232 1.7643667776 1.83506e-05
| 18> H -2.9440628947 -0.8453018964 -2.5389e-05
| 19> H -1.7563058969 2.4553155147 1.47191e-05
| 20> H 2.9193236057 -1.0359247423 2.8833e-05
| 21> *
| 22>
| 23>                          ****END OF INPUT****

CARTESIAN COORDINATES (ANGSTROEM)
---------------------------------
  C     -1.018629   -1.802075   -0.000006
  C      0.352433   -1.617827    0.000006
  C      0.873940   -0.325885    0.000013
  C      0.013307    0.771204    0.000006
  C     -1.359814    0.581847   -0.000003
  C     -1.873501   -0.715561   -0.000010
  O     -2.234744    1.616840    0.000005
  C      2.323716   -0.101222    0.000031
  O      2.861762    0.977047   -0.000030
  H     -1.429346   -2.800336   -0.000058
  H      1.020371   -2.466079   -0.000025
  H      0.442088    1.764367    0.000018
  H     -2.944063   -0.845302   -0.000025
  H     -1.756306    2.455316    0.000015
  H      2.919324   -1.035925    0.000029

 Total Charge           Charge          ....    0
 Multiplicity           Mult            ....    1
 Number of Electrons    NEL             ....   64
 Basis Dimension        Dim             ....  138

ORBITAL ENERGIES
----------------

  NO   OCC          E(Eh)            E(eV)
   0   2.0000     -18.796187      -511.4703
   1   2.0000     -18.749651      -510.2039
   2   2.0000      -9.970435      -271.3093
   3   2.0000      -9.966885      -271.2127
   4   2.0000      -9.912538      -269.7339
   5   2.0000      -9.911480      -269.7051
   6   2.0000      -9.908886      -269.6345
   7   2.0000      -9.907240      -269.5897
   8   2.0000      -9.904850      -269.5247
   9   2.0000      -0.979225       -26.6461
  10   2.0000      -0.946348       -25.7514
  11   2.0000      -0.790366       -21.5069
  12   2.0000      -0.700251       -19.0548
  13   2.0000      -0.681694       -18.5498
  14   2.0000      -0.600622       -16.3438
  15   2.0000      -0.570781       -15.5317
  16   2.0000      -0.521241       -14.1837
  17   2.0000      -0.504304       -13.7228
  18   2.0000      -0.458868       -12.4864
  19   2.0000      -0.429781       -11.6949
  20   2.0000      -0.412980       -11.2378
  21   2.0000      -0.397019       -10.8034
  22   2.0000      -0.385251       -10.4832
  23   2.0000      -0.377501       -10.2723
  24   2.0000      -0.359004        -9.7690
  25   2.0000      -0.354236        -9.6392
  26   2.0000      -0.329835        -8.9753
  27   2.0000      -0.315941        -8.5972
  28   2.0000      -0.308514        -8.3951
  29   2.0000      -0.245395        -6.6775
  30   2.0000      -0.213943        -5.8217
  31   2.0000      -0.209360        -5.6970
  32   0.0000      -0.096229        -2.6185
  33   0.0000      -0.038079        -1.0362
  34   0.0000       0.004542         0.1236
  35   0.0000       0.017721         0.4822
  36   0.0000       0.044525         1.2116

MULLIKEN ATOMIC CHARGES
-----------------------
   0 C :   -0.043646
   1 C :   -0.098228
   2 C :    0.081568
   3 C :   -0.221628
   4 C :    0.261175
   5 C :   -0.109017
   6 O :   -0.325558
   7 C :    0.038364
   8 O :   -0.153633
   9 H :    0.062904
  10 H :    0.050561
  11 H :    0.040075
  12 H :    0.058126
  13 H :    0.321996
  14 H :    0.036943
Sum of atomic charges:   -0.0000000

LOEWDIN ATOMIC CHARGES
----------------------
   0 C :   -0.111184
   1 C :   -0.120964
   2 C :   -0.089461
   3 C :   -0.139196
   4 C :    0.023621
   5 C :   -0.124629
   6 O :   -0.226537
   7 C :    0.003882
   8 O :   -0.118870
   9 H :    0.129450
  10 H :    0.126819
  11 H :    0.130128
  12 H :    0.135479
  13 H :    0.302088
  14 H :    0.079373

  Mayer bond orders larger than 0.100000
B(  0-C ,  1-C ) :   1.3490 B(  0-C ,  5-C ) :   1.3789 B(  0-C ,  9-H ) :   0.9645
B(  1-C ,  2-C ) :   1.3302 B(  1-C , 10-H ) :   0.9612 B(  2-C ,  3-C ) :   1.3274
B(  2-C ,  7-C ) :   0.9812 B(  3-C ,  4-C ) :   1.2876 B(  3-C , 11-H ) :   0.9518
B(  4-C ,  5-C ) :   1.3373 B(  4-C ,  6-O ) :   1.2017 B(  5-C , 12-H ) :   0.9645
B(  6-O , 13-H ) :   0.8406 B(  7-C ,  8-O ) :   2.1479 B(  7-C , 14-H ) :   0.9145

Dispersion correction           -0.015453086
FINAL SINGLE POINT ENERGY      -419.926077213103

DIPOLE MOMENT
-------------

Method             : SCF
Type of density    : Electron Density
Multiplicity       :   1
Irrep              :   0
Energy             :  -419.9724386080951604 Eh
Relativity type    :
Basis              : AO
                                X                 Y                 Z
Electronic contribution:      0.966607242       2.417020307       0.000058961
Nuclear contribution   :     -1.630575744      -2.708518825      -0.000043814
                        -----------------------------------------
Total Dipole Moment    :     -0.663968502      -0.291498518       0.000015147
                        -----------------------------------------
Magnitude (a.u.)       :      0.725138302
Magnitude (Debye)      :      1.843155087

Rotational constants in cm-1:             0.098382             0.043557             0.030191
Rotational constants in MHz :          2949.404618          1305.811373           905.092974

                             ****ORCA TERMINATED NORMALLY****
TOTAL RUN TIME: 0 days 0 hours 0 minutes 17 seconds 913 msec
