                         Program Version 6.0.1  -  RELEASE   -
|  1> ! pbe def2-sv(p) def2/J RI DEFGRID1 loosescf d4 GCP(DFT/SV(P)) printgap
|  2> %output
|  3>     printlevel normal
|  4> end
|  5> * xyz 0 1
|  6> C -2.8286774254 -0.5888788216 0.0109300545
|  7> O -1.5021574841 -0.8813097677 0.4414570319
|  8> C -0.5443411829 -0.0745521442 -0.027342458
|  9> O -0.7349405129 0.8477851311 -0.7637529675
| 10> C 0.7986444023 -0.5229354212 0.5253784326
| 11> Cl 2.1004366623 0.5190520055 -0.071136173
| 12> H -3.4670974091 -1.3353272502 0.475349246
| 13> H -2.8945084047 -0.6478753782 -1.0768476123
| 14> H -3.1159643813 0.4151826159 0.3278253937
| 15> H 1.0013768994 -1.5475781789 0.2122070612
| 16> H 0.7832210702 -0.4721883 1.6145379989
| 17> *
| 18>
| 19>                          ****END OF INPUT****

CARTESIAN COORDINATES (ANGSTROEM)
---------------------------------
  C     -2.828677   -0.588879    0.010930
  O     -1.502157   -0.881310    0.441457
  C     -0.544341   -0.074552   -0.027342
  O     -0.734941    0.847785   -0.763753
  C      0.798644   -0.522935    0.525378
  Cl     2.100437    0.519052   -0.071136
  H     -3.467097   -1.335327    0.475349
  H     -2.894508   -0.647875   -1.076848
  H     -3.115964    0.415183    0.327825
  H      1.001377   -1.547578    0.212207
  H      0.783221   -0.472188    1.614538

 Total Charge           Charge          ....    0
 Multiplicity           Mult            ....    1
 Number of Electrons    NEL             ....   56
 Basis Dimension        Dim             ....   98

ORBITAL ENERGIES
----------------

  NO   OCC          E(Eh)            E(eV)
   0   2.0000    -100.625403     -2738.1564
   1   2.0000     -18.813176      -511.9325
   2   2.0000     -18.751996      -510.2677
   3   2.0000     -10.021085      -272.6876
   4   2.0000      -9.957249      -270.9505
   5   2.0000      -9.949830      -270.7486
   6   2.0000      -9.161332      -249.2925
   7   2.0000      -6.993451      -190.3015
   8   2.0000      -6.980685      -189.9541
   9   2.0000      -6.980578      -189.9512
  10   2.0000      -1.020981       -27.7823
  11   2.0000      -0.932525       -25.3753
  12   2.0000      -0.784778       -21.3549
  13   2.0000      -0.690776       -18.7970
  14   2.0000      -0.615954       -16.7610
  15   2.0000      -0.517217       -14.0742
  16   2.0000      -0.468052       -12.7363
  17   2.0000      -0.458764       -12.4836
  18   2.0000      -0.428185       -11.6515
  19   2.0000      -0.415540       -11.3074
  20   2.0000      -0.384742       -10.4694
  21   2.0000      -0.374208       -10.1827
  22   2.0000      -0.349295        -9.5048
  23   2.0000      -0.320515        -8.7217
  24   2.0000      -0.273659        -7.4466
  25   2.0000      -0.253706        -6.9037
  26   2.0000      -0.250826        -6.8253
  27   2.0000      -0.238411        -6.4875
  28   0.0000      -0.032574        -0.8864
  29   0.0000       0.006139         0.1670
  30   0.0000       0.041087         1.1180
  31   0.0000       0.061163         1.6643
  32   0.0000       0.089814         2.4440

MULLIKEN ATOMIC CHARGES
-----------------------
   0 C :   -0.111686
   1 O :   -0.253437
   2 C :    0.123966
   3 O :   -0.161489
   4 C :   -0.176086
   5 Cl:   -0.112303
   6 H :    0.124729
   7 H :    0.123247
   8 H :    0.123087
   9 H :    0.159999
  10 H :    0.159974
Sum of atomic charges:   -0.0000000

LOEWDIN ATOMIC CHARGES
----------------------
   0 C :   -0.203524
   1 O :   -0.082434
   2 C :    0.005714
   3 O :   -0.128979
   4 C :   -0.312417
   5 Cl:    0.065277
   6 H :    0.122167
   7 H :    0.121094
   8 H :    0.121047
   9 H :    0.146037
  10 H :    0.146018

  Mayer bond orders larger than 0.100000
B(  0-C ,  1-O ) :   0.9401 B(  0-C ,  6-H ) :   0.9587 B(  0-C ,  7-H ) :   0.9519
B(  0-C ,  8-H ) :   0.9522 B(  1-O ,  2-C ) :   1.1873 B(  2-C ,  3-O ) :   2.1349
B(  2-C ,  4-C ) :   0.9539 B(  4-C ,  5-Cl) :   1.0968 B(  4-C ,  9-H ) :   0.9089
B(  4-C , 10-H ) :   0.9089

Dispersion correction           -0.008186249
FINAL SINGLE POINT ENERGY      -727.082379611555

DIPOLE MOMENT
-------------

Method             : SCF
Type of density    : Electron Density
Multiplicity       :   1
Irrep              :   0
Energy             :  -727.1244383895508463 Eh
Relativity type    :
Basis              : AO
                                X                 Y                 Z
Electronic contribution:      9.304282199       3.230664680      -1.028696312
Nuclear contribution   :    -10.069675861      -4.063137195       1.547759728
                        -----------------------------------------
Total Dipole Moment    :     -0.765393661      -0.832472515       0.519063416
                        -----------------------------------------
Magnitude (a.u.)       :      1.244292881
Magnitude (Debye)      :      3.162741157

Rotational constants in cm-1:             0.331430             0.046965             0.041786
Rotational constants in MHz :          9936.023947          1407.967307          1252.698800

                             ****ORCA TERMINATED NORMALLY****
TOTAL RUN TIME: 0 days 0 hours 0 minutes 7 seconds 421 msec
