                         Program Version 6.0.1  -  RELEASE   -
|  1> ! r2scan-3c def2/J RI DEFGRID2 scfconv6 printgap
|  2> %output
|  3>     printlevel normal
|  4> end
|  5> * xyz 0 1
|  6> C -2.4460565372 -1.1073193184 0.5032781375
|  7> C -1.7168333669 0.0919520835 -0.030239267
|  8> C -2.3706344543 1.1477969764 -0.5029683134
|  9> C -0.2448375786 0.0380003318 -0.018045863
| 10> C 0.5041111213 1.1829052261 0.2503997303
| 11> C 1.8853281225 1.1403705147 0.264154382
| 12> C 2.5485620783 -0.0481129873 0.0086096583
| 13> C 1.8175284033 -1.1936945669 -0.2550342932
| 14> C 0.4355111037 -1.1534229428 -0.2625467237
| 15> H -1.9837864899 -1.4579877157 1.4243592101
| 16> H -3.4876120093 -0.8645250068 0.6977673085
| 17> H -2.4188124819 -1.9223980842 -0.2196598893
| 18> H -1.8606586143 1.9971873814 -0.9235532859
| 19> H -3.4469186383 1.1895750569 -0.507419629
| 20> H -0.0055293195 2.1094881485 0.4696838169
| 21> H 2.4479052077 2.0375431426 0.4791730313
| 22> H 3.6280906644 -0.0819323498 0.0186696581
| 23> H 2.3271167332 -2.1254879181 -0.454806899
| 24> H -0.1176303268 -2.0549789096 -0.4790273461
| 25> *
| 26>
| 27>                          ****END OF INPUT****

CARTESIAN COORDINATES (ANGSTROEM)
---------------------------------
  C     -2.446057   -1.107319    0.503278
  C     -1.716833    0.091952   -0.030239
  C     -2.370634    1.147797   -0.502968
  C     -0.244838    0.038000   -0.018046
  C      0.504111    1.182905    0.250400
  C      1.885328    1.140371    0.264154
  C      2.548562   -0.048113    0.008610
  C      1.817528   -1.193695   -0.255034
  C      0.435511   -1.153423   -0.262547
  H     -1.983786   -1.457988    1.424359
  H     -3.487612   -0.864525    0.697767
  H     -2.418812   -1.922398   -0.219660
  H     -1.860659    1.997187   -0.923553
  H     -3.446919    1.189575   -0.507420
  H     -0.005529    2.109488    0.469684
  H      2.447905    2.037543    0.479173
  H      3.628091   -0.081932    0.018670
  H      2.327117   -2.125488   -0.454807
  H     -0.117630   -2.054979   -0.479027

 Total Charge           Charge          ....    0
 Multiplicity           Mult            ....    1
 Number of Electrons    NEL             ....   64
 Basis Dimension        Dim             ....  221

ORBITAL ENERGIES
----------------

  NO   OCC          E(Eh)            E(eV)
   0   2.0000     -10.046427      -273.3772
   1   2.0000     -10.044332      -273.3202
   2   2.0000     -10.035796      -273.0879
   3   2.0000     -10.035285      -273.0740
   4   2.0000     -10.034971      -273.0654
   5   2.0000     -10.034408      -273.0501
   6   2.0000     -10.033723      -273.0315
   7   2.0000     -10.028099      -272.8784
   8   2.0000     -10.018293      -272.6116
   9   2.0000      -0.833660       -22.6851
  10   2.0000      -0.777030       -21.1441
  11   2.0000      -0.718041       -19.5389
  12   2.0000      -0.703952       -19.1555
  13   2.0000      -0.657688       -17.8966
  14   2.0000      -0.586032       -15.9467
  15   2.0000      -0.573238       -15.5986
  16   2.0000      -0.517457       -14.0807
  17   2.0000      -0.478421       -13.0185
  18   2.0000      -0.432278       -11.7629
  19   2.0000      -0.430151       -11.7050
  20   2.0000      -0.413894       -11.2626
  21   2.0000      -0.399063       -10.8590
  22   2.0000      -0.392231       -10.6731
  23   2.0000      -0.377683       -10.2773
  24   2.0000      -0.352585        -9.5943
  25   2.0000      -0.344015        -9.3611
  26   2.0000      -0.336538        -9.1577
  27   2.0000      -0.310619        -8.4524
  28   2.0000      -0.303971        -8.2715
  29   2.0000      -0.260814        -7.0971
  30   2.0000      -0.238445        -6.4884
  31   2.0000      -0.212360        -5.7786
  32   0.0000      -0.052496        -1.4285
  33   0.0000      -0.032625        -0.8878
  34   0.0000       0.013663         0.3718
  35   0.0000       0.080436         2.1888
  36   0.0000       0.110274         3.0007

MULLIKEN ATOMIC CHARGES
-----------------------
   0 C :   -0.518903
   1 C :    0.031267
   2 C :   -0.337774
   3 C :    0.226453
   4 C :   -0.227127
   5 C :   -0.154604
   6 C :   -0.148161
   7 C :   -0.164917
   8 C :   -0.210287
   9 H :    0.172066
  10 H :    0.152104
  11 H :    0.159129
  12 H :    0.144042
  13 H :    0.141107
  14 H :    0.153752
  15 H :    0.145767
  16 H :    0.146766
  17 H :    0.145491
  18 H :    0.143830
Sum of atomic charges:   -0.0000000

LOEWDIN ATOMIC CHARGES
----------------------
   0 C :   -0.389259
   1 C :   -0.106024
   2 C :   -0.301417
   3 C :   -0.074293
   4 C :   -0.144893
   5 C :   -0.161359
   6 C :   -0.167695
   7 C :   -0.161176
   8 C :   -0.150211
   9 H :    0.165029
  10 H :    0.161526
  11 H :    0.163298
  12 H :    0.161831
  13 H :    0.158063
  14 H :    0.173840
  15 H :    0.167496
  16 H :    0.166839
  17 H :    0.167266
  18 H :    0.171139

  Mayer bond orders larger than 0.100000
B(  0-C ,  1-C ) :   0.8736 B(  0-C ,  9-H ) :   0.9806 B(  0-C , 10-H ) :   0.9820
B(  0-C , 11-H ) :   0.9652 B(  1-C ,  2-C ) :   1.8420 B(  1-C ,  3-C ) :   0.9089
B(  2-C , 12-H ) :   0.9731 B(  2-C , 13-H ) :   0.9646 B(  3-C ,  4-C ) :   1.4062
B(  3-C ,  8-C ) :   1.3845 B(  4-C ,  5-C ) :   1.4401 B(  4-C , 14-H ) :   0.9388
B(  5-C ,  6-C ) :   1.4169 B(  5-C , 15-H ) :   0.9485 B(  6-C ,  7-C ) :   1.4199
B(  6-C , 16-H ) :   0.9479 B(  7-C ,  8-C ) :   1.4416 B(  7-C , 17-H ) :   0.9489
B(  8-C , 18-H ) :   0.9412

Dispersion correction           -0.006482830
FINAL SINGLE POINT ENERGY      -348.855935642761

DIPOLE MOMENT
-------------

Method             : SCF
Type of density    : Electron Density
Multiplicity       :   1
Irrep              :   0
Energy             :  -348.8547458037381830 Eh
Relativity type    :
Basis              : AO
                                X                 Y                 Z
Electronic contribution:      4.606854018       0.955923592      -0.417499427
Nuclear contribution   :     -4.613758033      -1.100955958       0.473949558
                        -----------------------------------------
Total Dipole Moment    :     -0.006904015      -0.145032366       0.056450130
                        -----------------------------------------
Magnitude (a.u.)       :      0.155784049
Magnitude (Debye)      :      0.395971584

Rotational constants in cm-1:             0.120698             0.040381             0.031846
Rotational constants in MHz :          3618.422158          1210.581584           954.721409

                             ****ORCA TERMINATED NORMALLY****
TOTAL RUN TIME: 0 days 0 hours 0 minutes 22 seconds 205 msec
