                         Program Version 6.0.1  -  RELEASE   -
|  1> ! r2scan-3c def2/J RI DEFGRID2 scfconv6 printgap
|  2> %output
|  3>     printlevel normal
|  4> end
|  5> * xyz 0 1
|  6> C -3.3865262391 -0.5516070777 -0.0704216553
|  7> C -1.9061441717 -0.4637600713 -0.4231255422
|  8> H -1.7806163465 -0.6013427419 -1.5037993746
|  9> C -1.0864146971 -1.5416099992 0.3008820173
| 10> C 0.3963924865 -1.4319385074 -0.0342965732
| 11> C 0.9298628097 -0.0498018854 0.3586954673
| 12> H 0.748423874 0.0871677994 1.4306329717
| 13> C 0.138107252 1.0298585183 -0.3960537207
| 14> C -1.3309961791 0.8963739036 -0.0697575464
| 15> O -1.9728632038 1.7783833955 0.4410749264
| 16> C 2.4175429667 0.0601663281 0.1231247538
| 17> C 3.2664446938 0.0500780661 1.1388814669
| 18> C 2.8902700004 0.1669610607 -1.2952532751
| 19> H -3.7873819611 -1.5249457907 -0.3434288537
| 20> H -3.5263746912 -0.3999029742 0.9970675079
| 21> H -3.9442659784 0.2199026729 -0.5950531428
| 22> H -1.2282107877 -1.4292345911 1.3783742448
| 23> H -1.4618682359 -2.527343436 0.0173089629
| 24> H 0.9552281902 -2.2011604078 0.5027820853
| 25> H 0.5405660652 -1.5975606748 -1.1041089135
| 26> H 0.4842608852 2.0247830756 -0.1109182822
| 27> H 0.2697946584 0.9002326608 -1.4715777606
| 28> H 4.3317188415 0.1061094778 0.9912745755
| 29> H 2.9334740683 -0.0136616377 2.1610656565
| 30> H 2.4265772336 -0.5928400315 -1.9213607591
| 31> H 2.6379952107 1.1439240068 -1.7063805288
| 32> H 3.9690355055 0.0465876931 -1.3461449992
| 33> *
| 34>
| 35>                          ****END OF INPUT****

CARTESIAN COORDINATES (ANGSTROEM)
---------------------------------
  C     -3.386526   -0.551607   -0.070422
  C     -1.906144   -0.463760   -0.423126
  H     -1.780616   -0.601343   -1.503799
  C     -1.086415   -1.541610    0.300882
  C      0.396392   -1.431939   -0.034297
  C      0.929863   -0.049802    0.358695
  H      0.748424    0.087168    1.430633
  C      0.138107    1.029859   -0.396054
  C     -1.330996    0.896374   -0.069758
  O     -1.972863    1.778383    0.441075
  C      2.417543    0.060166    0.123125
  C      3.266445    0.050078    1.138881
  C      2.890270    0.166961   -1.295253
  H     -3.787382   -1.524946   -0.343429
  H     -3.526375   -0.399903    0.997068
  H     -3.944266    0.219903   -0.595053
  H     -1.228211   -1.429235    1.378374
  H     -1.461868   -2.527343    0.017309
  H      0.955228   -2.201160    0.502782
  H      0.540566   -1.597561   -1.104109
  H      0.484261    2.024783   -0.110918
  H      0.269795    0.900233   -1.471578
  H      4.331719    0.106109    0.991275
  H      2.933474   -0.013662    2.161066
  H      2.426577   -0.592840   -1.921361
  H      2.637995    1.143924   -1.706381
  H      3.969036    0.046588   -1.346145

 Total Charge           Charge          ....    0
 Multiplicity           Mult            ....    1
 Number of Electrons    NEL             ....   84
 Basis Dimension        Dim             ....  294

ORBITAL ENERGIES
----------------

  NO   OCC          E(Eh)            E(eV)
   0   2.0000     -18.936833      -515.2974
   1   2.0000     -10.113473      -275.2016
   2   2.0000     -10.052556      -273.5439
   3   2.0000     -10.046326      -273.3744
   4   2.0000     -10.045383      -273.3488
   5   2.0000     -10.041841      -273.2524
   6   2.0000     -10.038690      -273.1666
   7   2.0000     -10.038272      -273.1553
   8   2.0000     -10.032254      -272.9915
   9   2.0000     -10.017949      -272.6023
  10   2.0000     -10.017850      -272.5995
  11   2.0000      -1.008435       -27.4409
  12   2.0000      -0.823606       -22.4115
  13   2.0000      -0.778901       -21.1950
  14   2.0000      -0.730224       -19.8704
  15   2.0000      -0.706465       -19.2239
  16   2.0000      -0.663644       -18.0587
  17   2.0000      -0.643098       -17.4996
  18   2.0000      -0.581554       -15.8249
  19   2.0000      -0.569747       -15.5036
  20   2.0000      -0.512265       -13.9394
  21   2.0000      -0.490310       -13.3420
  22   2.0000      -0.454426       -12.3656
  23   2.0000      -0.445844       -12.1320
  24   2.0000      -0.427761       -11.6400
  25   2.0000      -0.417886       -11.3713
  26   2.0000      -0.411122       -11.1872
  27   2.0000      -0.405849       -11.0437
  28   2.0000      -0.388971       -10.5844
  29   2.0000      -0.383443       -10.4340
  30   2.0000      -0.371891       -10.1197
  31   2.0000      -0.353978        -9.6322
  32   2.0000      -0.347923        -9.4675
  33   2.0000      -0.343899        -9.3580
  34   2.0000      -0.333753        -9.0819
  35   2.0000      -0.326861        -8.8944
  36   2.0000      -0.315441        -8.5836
  37   2.0000      -0.307876        -8.3777
  38   2.0000      -0.298530        -8.1234
  39   2.0000      -0.289943        -7.8897
  40   2.0000      -0.232281        -6.3207
  41   2.0000      -0.208398        -5.6708
  42   0.0000      -0.046596        -1.2679
  43   0.0000      -0.011685        -0.3180
  44   0.0000       0.076654         2.0859
  45   0.0000       0.079045         2.1509
  46   0.0000       0.088659         2.4125

MULLIKEN ATOMIC CHARGES
-----------------------
   0 C :   -0.507563
   1 C :   -0.006524
   2 H :    0.160770
   3 C :   -0.335944
   4 C :   -0.365668
   5 C :   -0.006766
   6 H :    0.167336
   7 C :   -0.368796
   8 C :    0.180068
   9 O :   -0.332766
  10 C :    0.090484
  11 C :   -0.370509
  12 C :   -0.533698
  13 H :    0.143015
  14 H :    0.162957
  15 H :    0.161017
  16 H :    0.166270
  17 H :    0.152838
  18 H :    0.163776
  19 H :    0.158879
  20 H :    0.177779
  21 H :    0.175253
  22 H :    0.139074
  23 H :    0.143136
  24 H :    0.161762
  25 H :    0.169729
  26 H :    0.154092
Sum of atomic charges:   -0.0000000

LOEWDIN ATOMIC CHARGES
----------------------
   0 C :   -0.395125
   1 C :   -0.208527
   2 H :    0.174830
   3 C :   -0.273689
   4 C :   -0.279206
   5 C :   -0.189656
   6 H :    0.173279
   7 C :   -0.250931
   8 C :    0.230418
   9 O :   -0.445514
  10 C :   -0.121702
  11 C :   -0.314475
  12 C :   -0.394538
  13 H :    0.151984
  14 H :    0.164612
  15 H :    0.164677
  16 H :    0.163950
  17 H :    0.161874
  18 H :    0.167280
  19 H :    0.158748
  20 H :    0.182265
  21 H :    0.177090
  22 H :    0.156830
  23 H :    0.158570
  24 H :    0.159480
  25 H :    0.165156
  26 H :    0.162321

  Mayer bond orders larger than 0.100000
B(  0-C ,  1-C ) :   0.8892 B(  0-C , 13-H ) :   0.9769 B(  0-C , 14-H ) :   0.9886
B(  0-C , 15-H ) :   0.9714 B(  1-C ,  2-H ) :   0.9244 B(  1-C ,  3-C ) :   0.8689
B(  1-C ,  8-C ) :   0.8879 B(  1-C ,  9-O ) :  -0.1097 B(  3-C ,  4-C ) :   0.8665
B(  3-C , 16-H ) :   1.0025 B(  3-C , 17-H ) :   0.9429 B(  4-C ,  5-C ) :   0.9204
B(  4-C , 18-H ) :   0.9459 B(  4-C , 19-H ) :   1.0079 B(  5-C ,  6-H ) :   0.9861
B(  5-C ,  7-C ) :   0.8765 B(  5-C , 10-C ) :   0.8673 B(  7-C ,  8-C ) :   0.9258
B(  7-C , 20-H ) :   0.9446 B(  7-C , 21-H ) :   0.9788 B(  8-C ,  9-O ) :   2.0125
B( 10-C , 11-C ) :   1.8749 B( 10-C , 12-C ) :   0.8652 B( 11-C , 22-H ) :   0.9687
B( 11-C , 23-H ) :   0.9888 B( 12-C , 24-H ) :   0.9814 B( 12-C , 25-H ) :   0.9673
B( 12-C , 26-H ) :   0.9763

Dispersion correction           -0.009573621
FINAL SINGLE POINT ENERGY      -465.783186473953

DIPOLE MOMENT
-------------

Method             : SCF
Type of density    : Electron Density
Multiplicity       :   1
Irrep              :   0
Energy             :  -465.7845987346040602 Eh
Relativity type    :
Basis              : AO
                                X                 Y                 Z
Electronic contribution:     -2.745978373       5.014246287       1.880461557
Nuclear contribution   :      3.318457575      -5.939697101      -2.455458540
                        -----------------------------------------
Total Dipole Moment    :      0.572479202      -0.925450814      -0.574996983
                        -----------------------------------------
Magnitude (a.u.)       :      1.230777468
Magnitude (Debye)      :      3.128387707

Rotational constants in cm-1:             0.073366             0.021899             0.019677
Rotational constants in MHz :          2199.467915           656.528217           589.906543

                             ****ORCA TERMINATED NORMALLY****
TOTAL RUN TIME: 0 days 0 hours 0 minutes 44 seconds 752 msec
