                         Program Version 6.0.1  -  RELEASE   -
|  1> ! pbe def2-sv(p) def2/J RI DEFGRID1 loosescf d4 GCP(DFT/SV(P)) printgap
|  2> %output
|  3>     printlevel normal
|  4> end
|  5> * xyz 0 1
|  6> C -1.4123129526 -0.8673921901 0.2179442323
|  7> S 2.42011e-05 0.1635821334 -0.4258590075
|  8> O 0.0001250207 1.3702559131 0.4009231222
|  9> C 1.4121212748 -0.8678442321 0.2179421414
| 10> H -1.9587228092 -0.2457818746 0.9186125052
| 11> H -1.0733419811 -1.7743049875 0.7022505468
| 12> H -2.0453425459 -1.1171332386 -0.6270952143
| 13> H 1.0726567642 -1.7685215614 0.7134146683
| 14> H 1.9659607132 -0.2421295661 0.909114966
| 15> H 2.0383196725 -1.1283377061 -0.6289186204
| 16> *
| 17>
| 18>                          ****END OF INPUT****

CARTESIAN COORDINATES (ANGSTROEM)
---------------------------------
  C     -1.412313   -0.867392    0.217944
  S      0.000024    0.163582   -0.425859
  O      0.000125    1.370256    0.400923
  C      1.412121   -0.867844    0.217942
  H     -1.958723   -0.245782    0.918613
  H     -1.073342   -1.774305    0.702251
  H     -2.045343   -1.117133   -0.627095
  H      1.072657   -1.768522    0.713415
  H      1.965961   -0.242130    0.909115
  H      2.038320   -1.128338   -0.628919

 Total Charge           Charge          ....    0
 Multiplicity           Mult            ....    1
 Number of Electrons    NEL             ....   42
 Basis Dimension        Dim             ....   72

ORBITAL ENERGIES
----------------

  NO   OCC          E(Eh)            E(eV)
   0   2.0000     -88.124800     -2397.9977
   1   2.0000     -18.704850      -508.9848
   2   2.0000      -9.900586      -269.4086
   3   2.0000      -9.900522      -269.4069
   4   2.0000      -7.758165      -211.1104
   5   2.0000      -5.785512      -157.4318
   6   2.0000      -5.784209      -157.3963
   7   2.0000      -5.776814      -157.1951
   8   2.0000      -0.929485       -25.2926
   9   2.0000      -0.700120       -19.0512
  10   2.0000      -0.643664       -17.5150
  11   2.0000      -0.537488       -14.6258
  12   2.0000      -0.414613       -11.2822
  13   2.0000      -0.410602       -11.1731
  14   2.0000      -0.399037       -10.8584
  15   2.0000      -0.379789       -10.3346
  16   2.0000      -0.357091        -9.7169
  17   2.0000      -0.342872        -9.3300
  18   2.0000      -0.310913        -8.4604
  19   2.0000      -0.221743        -6.0339
  20   2.0000      -0.180710        -4.9174
  21   0.0000       0.004953         0.1348
  22   0.0000       0.010727         0.2919
  23   0.0000       0.039054         1.0627
  24   0.0000       0.056257         1.5308
  25   0.0000       0.078664         2.1406

MULLIKEN ATOMIC CHARGES
-----------------------
   0 C :   -0.395993
   1 S :    0.426563
   2 O :   -0.512152
   3 C :   -0.395970
   4 H :    0.156882
   5 H :    0.139670
   6 H :    0.142284
   7 H :    0.139753
   8 H :    0.156869
   9 H :    0.142094
Sum of atomic charges:   -0.0000000

LOEWDIN ATOMIC CHARGES
----------------------
   0 C :   -0.499952
   1 S :    0.759313
   2 O :   -0.553484
   3 C :   -0.499994
   4 H :    0.141471
   5 H :    0.127416
   6 H :    0.128186
   7 H :    0.127441
   8 H :    0.141473
   9 H :    0.128130

  Mayer bond orders larger than 0.100000
B(  0-C ,  1-S ) :   0.8639 B(  0-C ,  4-H ) :   0.9372 B(  0-C ,  5-H ) :   0.9397
B(  0-C ,  6-H ) :   0.9459 B(  1-S ,  2-O ) :   1.6080 B(  1-S ,  3-C ) :   0.8638
B(  3-C ,  7-H ) :   0.9398 B(  3-C ,  8-H ) :   0.9373 B(  3-C ,  9-H ) :   0.9458

Dispersion correction           -0.006719644
FINAL SINGLE POINT ENERGY      -552.518316498796

DIPOLE MOMENT
-------------

Method             : SCF
Type of density    : Electron Density
Multiplicity       :   1
Irrep              :   0
Energy             :  -552.5520974339351596 Eh
Relativity type    :
Basis              : AO
                                X                 Y                 Z
Electronic contribution:      0.000089079       4.567011335      -2.107107930
Nuclear contribution   :     -0.000439962      -5.872577170       1.882766888
                        -----------------------------------------
Total Dipole Moment    :     -0.000350884      -1.305565835      -0.224341043
                        -----------------------------------------
Magnitude (a.u.)       :      1.324700410
Magnitude (Debye)      :      3.367120853

Rotational constants in cm-1:             0.237486             0.212289             0.135544
Rotational constants in MHz :          7119.656160          6364.271343          4063.513582

                             ****ORCA TERMINATED NORMALLY****
TOTAL RUN TIME: 0 days 0 hours 0 minutes 2 seconds 818 msec
