                         Program Version 6.0.1  -  RELEASE   -
|  1> ! pbe def2-sv(p) def2/J RI DEFGRID1 loosescf d4 GCP(DFT/SV(P)) printgap
|  2> %output
|  3>     printlevel normal
|  4> end
|  5> * xyz 0 1
|  6> C -3.3105437361 0.7151637644 0.383726735
|  7> C -2.4752898948 -0.3945009242 -0.2445607926
|  8> C -0.9829301931 -0.2143871589 -0.1313895855
|  9> C -0.1559851531 -1.3220111165 -0.3012997496
| 10> C 1.216919729 -1.2165308707 -0.2269292462
| 11> C 1.803517502 0.0192280305 0.0260429069
| 12> C 0.9921432901 1.1313034428 0.1968196696
| 13> C -0.3849165655 1.0119982116 0.1160850369
| 14> O 3.1629326172 0.0909532683 0.0980430266
| 15> H -3.0203774683 0.8723689953 1.4202052413
| 16> H -4.3634691706 0.4426402768 0.3595624179
| 17> H -3.1945444698 1.6502794877 -0.1586897992
| 18> H -2.734023878 -0.4772694761 -1.3056783072
| 19> H -2.7406451088 -1.3468680493 0.2223343265
| 20> H -0.6000598568 -2.2878845337 -0.4964321149
| 21> H 1.8533049664 -2.0771081419 -0.3587098573
| 22> H 1.4389542442 2.0976866586 0.394208218
| 23> H -0.9866972823 1.8966301173 0.2517105325
| 24> H 3.430070256 1.0001455935 0.2781241896
| 25> *
| 26>
| 27>                          ****END OF INPUT****

CARTESIAN COORDINATES (ANGSTROEM)
---------------------------------
  C     -3.310544    0.715164    0.383727
  C     -2.475290   -0.394501   -0.244561
  C     -0.982930   -0.214387   -0.131390
  C     -0.155985   -1.322011   -0.301300
  C      1.216920   -1.216531   -0.226929
  C      1.803518    0.019228    0.026043
  C      0.992143    1.131303    0.196820
  C     -0.384917    1.011998    0.116085
  O      3.162933    0.090953    0.098043
  H     -3.020377    0.872369    1.420205
  H     -4.363469    0.442640    0.359562
  H     -3.194544    1.650279   -0.158690
  H     -2.734024   -0.477269   -1.305678
  H     -2.740645   -1.346868    0.222334
  H     -0.600060   -2.287885   -0.496432
  H      1.853305   -2.077108   -0.358710
  H      1.438954    2.097687    0.394208
  H     -0.986697    1.896630    0.251711
  H      3.430070    1.000146    0.278124

 Total Charge           Charge          ....    0
 Multiplicity           Mult            ....    1
 Number of Electrons    NEL             ....   66
 Basis Dimension        Dim             ....  146

ORBITAL ENERGIES
----------------

  NO   OCC          E(Eh)            E(eV)
   0   2.0000     -18.776902      -510.9455
   1   2.0000      -9.946228      -270.6506
   2   2.0000      -9.891121      -269.1511
   3   2.0000      -9.888934      -269.0916
   4   2.0000      -9.888393      -269.0769
   5   2.0000      -9.887779      -269.0601
   6   2.0000      -9.886480      -269.0248
   7   2.0000      -9.882484      -268.9161
   8   2.0000      -9.876767      -268.7605
   9   2.0000      -0.959371       -26.1058
  10   2.0000      -0.772339       -21.0164
  11   2.0000      -0.704644       -19.1743
  12   2.0000      -0.669167       -18.2090
  13   2.0000      -0.642841       -17.4926
  14   2.0000      -0.567993       -15.4559
  15   2.0000      -0.557812       -15.1788
  16   2.0000      -0.512819       -13.9545
  17   2.0000      -0.491674       -13.3791
  18   2.0000      -0.437846       -11.9144
  19   2.0000      -0.409966       -11.1557
  20   2.0000      -0.400265       -10.8918
  21   2.0000      -0.389399       -10.5961
  22   2.0000      -0.372257       -10.1296
  23   2.0000      -0.360610        -9.8127
  24   2.0000      -0.358188        -9.7468
  25   2.0000      -0.330070        -8.9817
  26   2.0000      -0.320409        -8.7188
  27   2.0000      -0.311076        -8.4648
  28   2.0000      -0.295003        -8.0274
  29   2.0000      -0.286088        -7.7849
  30   2.0000      -0.280158        -7.6235
  31   2.0000      -0.225732        -6.1425
  32   2.0000      -0.186884        -5.0854
  33   0.0000      -0.031526        -0.8579
  34   0.0000      -0.013713        -0.3732
  35   0.0000       0.026413         0.7187
  36   0.0000       0.045254         1.2314
  37   0.0000       0.063260         1.7214

MULLIKEN ATOMIC CHARGES
-----------------------
   0 C :   -0.278558
   1 C :   -0.144567
   2 C :    0.085207
   3 C :   -0.122018
   4 C :   -0.118177
   5 C :    0.247298
   6 C :   -0.153949
   7 C :   -0.143398
   8 O :   -0.337449
   9 H :    0.106536
  10 H :    0.103135
  11 H :    0.109782
  12 H :    0.101460
  13 H :    0.089952
  14 H :    0.037760
  15 H :    0.042493
  16 H :    0.023157
  17 H :    0.037205
  18 H :    0.314133
Sum of atomic charges:   -0.0000000

LOEWDIN ATOMIC CHARGES
----------------------
   0 C :   -0.340932
   1 C :   -0.219914
   2 C :   -0.063261
   3 C :   -0.112558
   4 C :   -0.146186
   5 C :    0.018514
   6 C :   -0.175730
   7 C :   -0.121230
   8 O :   -0.239648
   9 H :    0.120774
  10 H :    0.121647
  11 H :    0.118416
  12 H :    0.128407
  13 H :    0.123486
  14 H :    0.121621
  15 H :    0.129659
  16 H :    0.118164
  17 H :    0.122671
  18 H :    0.296098

  Mayer bond orders larger than 0.100000
B(  0-C ,  1-C ) :   1.1855 B(  0-C ,  9-H ) :   0.9536 B(  0-C , 10-H ) :   0.9478
B(  0-C , 11-H ) :   0.9393 B(  1-C ,  2-C ) :   1.0545 B(  1-C , 12-H ) :   0.9003
B(  1-C , 13-H ) :   0.9133 B(  2-C ,  3-C ) :   1.3630 B(  2-C ,  7-C ) :   1.4068
B(  3-C ,  4-C ) :   1.3765 B(  3-C , 14-H ) :   0.9651 B(  4-C ,  5-C ) :   1.3522
B(  4-C , 15-H ) :   0.9649 B(  5-C ,  6-C ) :   1.3210 B(  5-C ,  8-O ) :   1.1805
B(  6-C ,  7-C ) :   1.3404 B(  6-C , 16-H ) :   0.9545 B(  7-C , 17-H ) :   0.9522
B(  8-O , 18-H ) :   0.8451

Dispersion correction           -0.018617690
FINAL SINGLE POINT ENERGY      -385.234163443045

DIPOLE MOMENT
-------------

Method             : SCF
Type of density    : Electron Density
Multiplicity       :   1
Irrep              :   0
Energy             :  -385.2937998724218005 Eh
Relativity type    :
Basis              : AO
                                X                 Y                 Z
Electronic contribution:     10.111566594      -1.165256518      -0.500489053
Nuclear contribution   :    -10.195570713       1.662489112       0.570578845
                        -----------------------------------------
Total Dipole Moment    :     -0.084004119       0.497232594       0.070089791
                        -----------------------------------------
Magnitude (a.u.)       :      0.509126235
Magnitude (Debye)      :      1.294096046

Rotational constants in cm-1:             0.155243             0.032067             0.026976
Rotational constants in MHz :          4654.063508           961.348388           808.709925

                             ****ORCA TERMINATED NORMALLY****
TOTAL RUN TIME: 0 days 0 hours 0 minutes 9 seconds 380 msec
