                         Program Version 6.0.1  -  RELEASE   -
|  1> ! r2scan-3c def2/J RI DEFGRID2 scfconv6 printgap
|  2> %output
|  3>     printlevel normal
|  4> end
|  5> * xyz 0 1
|  6> C 3.7188736516 -0.3075257274 -0.2052213388
|  7> C 2.2933502639 -0.1677437752 0.3202534407
|  8> H 2.33645429 0.0829023323 1.3867323866
|  9> C 1.5156420233 -1.4721637111 0.1597278794
| 10> C 0.0780836648 -1.3272871156 0.6526397666
| 11> C -0.6631137365 -0.2292273361 -0.1161505412
| 12> H -0.6227885876 -0.4772862842 -1.1819594453
| 13> C 0.1155161206 1.0870429891 0.093103204
| 14> H 0.1398528061 1.2993350706 1.1766319922
| 15> C 1.5511462655 0.9468114823 -0.4103347194
| 16> O -0.4455770929 2.1936947827 -0.5839512804
| 17> C -2.1511670681 -0.0618065308 0.2800780798
| 18> C -2.9758733681 0.3675045172 -0.9379614551
| 19> C -2.7931947886 -1.3177988621 0.8706742916
| 20> H 4.2673580073 0.6222802939 -0.0744383801
| 21> H 4.2466059336 -1.0965022194 0.3261976525
| 22> H 3.7100867673 -0.5538024408 -1.2647839958
| 23> H 1.5089499096 -1.757026669 -0.8949962077
| 24> H 2.0120935615 -2.2698537564 0.717062109
| 25> H -0.4307421992 -2.2822569178 0.5241246662
| 26> H 0.0844829958 -1.0853250631 1.7183580426
| 27> H 1.5213312046 0.7403625283 -1.4815286034
| 28> H 2.0590620012 1.9025407881 -0.2718192775
| 29> H -1.3011371649 2.3962594962 -0.192102969
| 30> H -2.2142672623 0.7211127 1.0481489702
| 31> H -3.9754656955 0.673994211 -0.635012192
| 32> H -3.0729242602 -0.4691929659 -1.627351905
| 33> H -2.5084345541 1.1889679884 -1.4738419765
| 34> H -3.8448235301 -1.1216627915 1.0713701608
| 35> H -2.3223605095 -1.6094782073 1.8050699066
| 36> H -2.7340938025 -2.1481177066 0.1708420433
| 37> *
| 38>
| 39>                          ****END OF INPUT****

CARTESIAN COORDINATES (ANGSTROEM)
---------------------------------
  C      3.718874   -0.307526   -0.205221
  C      2.293350   -0.167744    0.320253
  H      2.336454    0.082902    1.386732
  C      1.515642   -1.472164    0.159728
  C      0.078084   -1.327287    0.652640
  C     -0.663114   -0.229227   -0.116151
  H     -0.622789   -0.477286   -1.181959
  C      0.115516    1.087043    0.093103
  H      0.139853    1.299335    1.176632
  C      1.551146    0.946811   -0.410335
  O     -0.445577    2.193695   -0.583951
  C     -2.151167   -0.061807    0.280078
  C     -2.975873    0.367505   -0.937961
  C     -2.793195   -1.317799    0.870674
  H      4.267358    0.622280   -0.074438
  H      4.246606   -1.096502    0.326198
  H      3.710087   -0.553802   -1.264784
  H      1.508950   -1.757027   -0.894996
  H      2.012094   -2.269854    0.717062
  H     -0.430742   -2.282257    0.524125
  H      0.084483   -1.085325    1.718358
  H      1.521331    0.740363   -1.481529
  H      2.059062    1.902541   -0.271819
  H     -1.301137    2.396259   -0.192103
  H     -2.214267    0.721113    1.048149
  H     -3.975466    0.673994   -0.635012
  H     -3.072924   -0.469193   -1.627352
  H     -2.508435    1.188968   -1.473842
  H     -3.844824   -1.121663    1.071370
  H     -2.322361   -1.609478    1.805070
  H     -2.734094   -2.148118    0.170842

 Total Charge           Charge          ....    0
 Multiplicity           Mult            ....    1
 Number of Electrons    NEL             ....   88
 Basis Dimension        Dim             ....  314

ORBITAL ENERGIES
----------------

  NO   OCC          E(Eh)            E(eV)
   0   2.0000     -18.943802      -515.4870
   1   2.0000     -10.075490      -274.1680
   2   2.0000     -10.037936      -273.1461
   3   2.0000     -10.031069      -272.9593
   4   2.0000     -10.027924      -272.8737
   5   2.0000     -10.023646      -272.7573
   6   2.0000     -10.021654      -272.7031
   7   2.0000     -10.017253      -272.5833
   8   2.0000     -10.016909      -272.5740
   9   2.0000     -10.014791      -272.5163
  10   2.0000     -10.014134      -272.4984
  11   2.0000      -0.984571       -26.7915
  12   2.0000      -0.806062       -21.9341
  13   2.0000      -0.769813       -20.9477
  14   2.0000      -0.714524       -19.4432
  15   2.0000      -0.698764       -19.0143
  16   2.0000      -0.650577       -17.7031
  17   2.0000      -0.640679       -17.4338
  18   2.0000      -0.574768       -15.6402
  19   2.0000      -0.565041       -15.3755
  20   2.0000      -0.527831       -14.3630
  21   2.0000      -0.524553       -14.2738
  22   2.0000      -0.478614       -13.0238
  23   2.0000      -0.439222       -11.9519
  24   2.0000      -0.424048       -11.5389
  25   2.0000      -0.419946       -11.4273
  26   2.0000      -0.409139       -11.1332
  27   2.0000      -0.396169       -10.7803
  28   2.0000      -0.381255       -10.3745
  29   2.0000      -0.375410       -10.2154
  30   2.0000      -0.362541        -9.8653
  31   2.0000      -0.354004        -9.6329
  32   2.0000      -0.349352        -9.5063
  33   2.0000      -0.340600        -9.2682
  34   2.0000      -0.327456        -8.9105
  35   2.0000      -0.317139        -8.6298
  36   2.0000      -0.311205        -8.4683
  37   2.0000      -0.309612        -8.4250
  38   2.0000      -0.293751        -7.9934
  39   2.0000      -0.290041        -7.8924
  40   2.0000      -0.285253        -7.7621
  41   2.0000      -0.273265        -7.4359
  42   2.0000      -0.261759        -7.1228
  43   2.0000      -0.226360        -6.1596
  44   0.0000       0.054094         1.4720
  45   0.0000       0.082535         2.2459
  46   0.0000       0.089910         2.4466
  47   0.0000       0.098246         2.6734
  48   0.0000       0.113610         3.0915

MULLIKEN ATOMIC CHARGES
-----------------------
   0 C :   -0.500504
   1 C :   -0.045697
   2 H :    0.160754
   3 C :   -0.336847
   4 C :   -0.382333
   5 C :    0.034264
   6 H :    0.185757
   7 C :   -0.116062
   8 H :    0.158673
   9 C :   -0.386487
  10 O :   -0.424773
  11 C :   -0.056790
  12 C :   -0.559113
  13 C :   -0.521815
  14 H :    0.148479
  15 H :    0.146647
  16 H :    0.151195
  17 H :    0.156506
  18 H :    0.146583
  19 H :    0.153682
  20 H :    0.165229
  21 H :    0.166495
  22 H :    0.156519
  23 H :    0.299501
  24 H :    0.159424
  25 H :    0.150523
  26 H :    0.153262
  27 H :    0.168094
  28 H :    0.147995
  29 H :    0.153904
  30 H :    0.166933
Sum of atomic charges:   -0.0000000

LOEWDIN ATOMIC CHARGES
----------------------
   0 C :   -0.412098
   1 C :   -0.232828
   2 H :    0.158062
   3 C :   -0.292543
   4 C :   -0.288464
   5 C :   -0.195658
   6 H :    0.172381
   7 C :    0.067040
   8 H :    0.166326
   9 C :   -0.253717
  10 O :   -0.611265
  11 C :   -0.235267
  12 C :   -0.419487
  13 C :   -0.414898
  14 H :    0.154008
  15 H :    0.152880
  16 H :    0.154256
  17 H :    0.159403
  18 H :    0.157862
  19 H :    0.161554
  20 H :    0.159647
  21 H :    0.168011
  22 H :    0.169170
  23 H :    0.266708
  24 H :    0.155756
  25 H :    0.151246
  26 H :    0.155134
  27 H :    0.162862
  28 H :    0.154607
  29 H :    0.154648
  30 H :    0.154665

  Mayer bond orders larger than 0.100000
B(  0-C ,  1-C ) :   0.8885 B(  0-C , 14-H ) :   0.9757 B(  0-C , 15-H ) :   0.9768
B(  0-C , 16-H ) :   0.9965 B(  1-C ,  2-H ) :   0.9550 B(  1-C ,  3-C ) :   0.9106
B(  1-C ,  9-C ) :   0.9064 B(  3-C ,  4-C ) :   0.8952 B(  3-C , 17-H ) :   1.0159
B(  3-C , 18-H ) :   0.9446 B(  4-C ,  5-C ) :   0.8532 B(  4-C , 19-H ) :   0.9311
B(  4-C , 20-H ) :   1.0049 B(  5-C ,  6-H ) :   0.9751 B(  5-C ,  7-C ) :   0.8372
B(  5-C , 11-C ) :   0.7828 B(  7-C ,  8-H ) :   0.9959 B(  7-C ,  9-C ) :   0.9097
B(  7-C , 10-O ) :   0.8788 B(  9-C , 21-H ) :   1.0298 B(  9-C , 22-H ) :   0.9410
B( 10-O , 23-H ) :   0.8884 B( 11-C , 12-C ) :   0.9006 B( 11-C , 13-C ) :   0.8625
B( 11-C , 24-H ) :   0.9841 B( 12-C , 25-H ) :   0.9796 B( 12-C , 26-H ) :   0.9834
B( 12-C , 27-H ) :   0.9685 B( 13-C , 28-H ) :   0.9734 B( 13-C , 29-H ) :   0.9652
B( 13-C , 30-H ) :   1.0019

Dispersion correction           -0.010763920
FINAL SINGLE POINT ENERGY      -468.205285825333

DIPOLE MOMENT
-------------

Method             : SCF
Type of density    : Electron Density
Multiplicity       :   1
Irrep              :   0
Energy             :  -468.2098641743742746 Eh
Relativity type    :
Basis              : AO
                                X                 Y                 Z
Electronic contribution:      0.856712511       4.536254545      -0.353628188
Nuclear contribution   :     -1.076831694      -4.886012394       0.785682293
                        -----------------------------------------
Total Dipole Moment    :     -0.220119182      -0.349757849       0.432054105
                        -----------------------------------------
Magnitude (a.u.)       :      0.597874366
Magnitude (Debye)      :      1.519675867

Rotational constants in cm-1:             0.061728             0.023303             0.018286
Rotational constants in MHz :          1850.556402           698.620805           548.207995

                             ****ORCA TERMINATED NORMALLY****
TOTAL RUN TIME: 0 days 0 hours 0 minutes 39 seconds 365 msec
