                         Program Version 6.0.0  -   RELEASE  -
|  1> ! r2SCAN-3c DEF2-TZVP FREQ
|  2> * xyzfile 0 1 censo.xyz
|  3>
|  4>                          ****END OF INPUT****

CARTESIAN COORDINATES (ANGSTROEM)
---------------------------------
  C      4.489125   -0.306700   -0.022523
  C      3.666568   -1.086959    0.787820
  C      2.295635   -0.855500    0.826618
  C      1.758515    0.159395    0.040062
  C      2.567058    0.945183   -0.774499
  C      3.938594    0.709950   -0.798773
  N      0.345858    0.427127    0.087037
  C     -0.569307   -0.592762   -0.261842
  O     -0.162565   -1.710447   -0.617762
  C     -1.933202   -0.190775   -0.170834
  C     -2.311920    1.094144    0.177762
  C     -1.242287    2.004653    0.453399
  N      0.016686    1.685074    0.410207
  N     -3.580382    1.523747    0.267890
  Cl    -3.145382   -1.380112   -0.558631
  H      5.558397   -0.489814   -0.046866
  H      4.092986   -1.874489    1.400564
  H      1.649450   -1.448367    1.464061
  H      2.126461    1.728440   -1.381740
  H      4.574925    1.320259   -1.431176
  H     -1.467204    3.032195    0.724479
  H     -3.768143    2.484488    0.505738
  H     -4.355465    0.915893    0.057040

 Total Charge           Charge          ....    0
 Multiplicity           Mult            ....    1
 Number of Electrons    NEL             ....  114
 Basis Dimension        Dim             ....  519

ORBITAL ENERGIES
----------------

  NO   OCC          E(Eh)            E(eV)
   0   2.0000    -101.201424     -2753.8308
   1   2.0000     -18.908870      -514.5365
   2   2.0000     -14.254731      -387.8910
   3   2.0000     -14.220944      -386.9716
   4   2.0000     -14.212018      -386.7287
   5   2.0000     -10.137187      -275.8469
   6   2.0000     -10.120294      -275.3872
   7   2.0000     -10.102061      -274.8910
   8   2.0000     -10.089414      -274.5469
   9   2.0000     -10.082999      -274.3724
  10   2.0000     -10.044112      -273.3142
  11   2.0000     -10.042792      -273.2783
  12   2.0000     -10.041953      -273.2554
  13   2.0000     -10.040989      -273.2292
  14   2.0000     -10.040214      -273.2081
  15   2.0000      -9.376831      -255.1566
  16   2.0000      -7.121927      -193.7975
  17   2.0000      -7.111883      -193.5242
  18   2.0000      -7.111176      -193.5049
  19   2.0000      -1.032663       -28.1002
  20   2.0000      -0.968384       -26.3511
  21   2.0000      -0.936902       -25.4944
  22   2.0000      -0.850410       -23.1408
  23   2.0000      -0.836818       -22.7710
  24   2.0000      -0.808011       -21.9871
  25   2.0000      -0.748517       -20.3682
  26   2.0000      -0.721047       -19.6207
  27   2.0000      -0.717135       -19.5142
  28   2.0000      -0.641879       -17.4664
  29   2.0000      -0.635160       -17.2836
  30   2.0000      -0.583681       -15.8828
  31   2.0000      -0.578379       -15.7385
  32   2.0000      -0.557161       -15.1611
  33   2.0000      -0.518908       -14.1202
  34   2.0000      -0.512225       -13.9383
  35   2.0000      -0.478860       -13.0304
  36   2.0000      -0.468681       -12.7534
  37   2.0000      -0.455431       -12.3929
  38   2.0000      -0.434570       -11.8252
  39   2.0000      -0.418773       -11.3954
  40   2.0000      -0.407270       -11.0824
  41   2.0000      -0.403084       -10.9685
  42   2.0000      -0.395753       -10.7690
  43   2.0000      -0.381834       -10.3902
  44   2.0000      -0.372184       -10.1276
  45   2.0000      -0.353555        -9.6207
  46   2.0000      -0.347165        -9.4468
  47   2.0000      -0.333770        -9.0823
  48   2.0000      -0.321696        -8.7538
  49   2.0000      -0.307346        -8.3633
  50   2.0000      -0.295320        -8.0361
  51   2.0000      -0.287643        -7.8272
  52   2.0000      -0.257215        -6.9992
  53   2.0000      -0.241290        -6.5658
  54   2.0000      -0.227105        -6.1798
  55   2.0000      -0.216597        -5.8939
  56   2.0000      -0.207734        -5.6527
  57   0.0000      -0.085772        -2.3340
  58   0.0000      -0.041508        -1.1295
  59   0.0000      -0.036456        -0.9920
  60   0.0000      -0.022504        -0.6124
  61   0.0000       0.000054         0.0015

MULLIKEN ATOMIC CHARGES
-----------------------
   0 C :   -0.124280
   1 C :   -0.066211
   2 C :   -0.216908
   3 C :    0.300505
   4 C :   -0.250279
   5 C :   -0.062803
   6 N :    0.122770
   7 C :    0.211735
   8 O :   -0.396294
   9 C :   -0.051367
  10 C :    0.241004
  11 C :   -0.151560
  12 N :   -0.199823
  13 N :   -0.426396
  14 Cl:   -0.097168
  15 H :    0.111082
  16 H :    0.112044
  17 H :    0.114701
  18 H :    0.105684
  19 H :    0.110525
  20 H :    0.110361
  21 H :    0.248854
  22 H :    0.253825
Sum of atomic charges:    0.0000000

LOEWDIN ATOMIC CHARGES
----------------------
   0 C :   -0.136432
   1 C :   -0.130577
   2 C :   -0.087465
   3 C :   -0.157768
   4 C :   -0.099399
   5 C :   -0.134394
   6 N :    0.235567
   7 C :   -0.427392
   8 O :    0.054405
   9 C :   -0.402822
  10 C :   -0.281476
  11 C :   -0.226258
  12 N :    0.117880
  13 N :    0.031028
  14 Cl:    0.416851
  15 H :    0.143775
  16 H :    0.145493
  17 H :    0.154544
  18 H :    0.150080
  19 H :    0.144622
  20 H :    0.142582
  21 H :    0.176552
  22 H :    0.170604

  Mayer bond orders larger than 0.100000
B(  0-C ,  1-C ) :   1.3774 B(  0-C ,  5-C ) :   1.3896 B(  0-C , 15-H ) :   0.9676
B(  1-C ,  2-C ) :   1.4272 B(  1-C , 16-H ) :   0.9681 B(  2-C ,  3-C ) :   1.3734
B(  2-C , 17-H ) :   0.9690 B(  3-C ,  4-C ) :   1.3934 B(  3-C ,  6-N ) :   0.8282
B(  4-C ,  5-C ) :   1.4110 B(  4-C , 18-H ) :   0.9757 B(  5-C , 19-H ) :   0.9687
B(  6-N ,  7-C ) :   1.0890 B(  6-N , 12-N ) :   0.9849 B(  7-C ,  8-O ) :   1.9919
B(  7-C ,  9-C ) :   1.1152 B(  9-C , 10-C ) :   1.3657 B(  9-C , 14-Cl) :   1.0795
B( 10-C , 11-C ) :   1.0814 B( 10-C , 13-N ) :   1.2340 B( 11-C , 12-N ) :   1.6900
B( 11-C , 20-H ) :   1.0021 B( 13-N , 21-H ) :   0.9080 B( 13-N , 22-H ) :   0.8916

Dispersion correction           -0.010447093
FINAL SINGLE POINT ENERGY     -1085.438118702090

DIPOLE MOMENT
-------------

Method             : SCF
Type of density    : Electron Density
Multiplicity       :   1
Irrep              :   0
Energy             : -1085.4434495573129880 Eh
Relativity type    :
Basis              : AO
                                X                 Y                 Z
Electronic contribution:    -12.986587994      -5.330921675      -1.857383004
Nuclear contribution   :     12.055652406       7.083209231       2.364568194
                        -----------------------------------------
Total Dipole Moment    :     -0.930935588       1.752287556       0.507185190
                        -----------------------------------------
Magnitude (a.u.)       :      2.048020889
Magnitude (Debye)      :      5.205655401

VIBRATIONAL FREQUENCIES
-----------------------

Scaling factor for frequencies =  1.000000000  (already applied!)

     0:       0.00 cm**-1
     1:       0.00 cm**-1
     2:       0.00 cm**-1
     3:       0.00 cm**-1
     4:       0.00 cm**-1
     5:       0.00 cm**-1
     6:      26.70 cm**-1
     7:      48.16 cm**-1
     8:      91.04 cm**-1
     9:      96.52 cm**-1
    10:     140.01 cm**-1
    11:     183.29 cm**-1
    12:     226.25 cm**-1
    13:     265.06 cm**-1
    14:     277.28 cm**-1
    15:     293.62 cm**-1
    16:     326.57 cm**-1
    17:     414.91 cm**-1
    18:     419.10 cm**-1
    19:     445.36 cm**-1
    20:     500.41 cm**-1
    21:     515.18 cm**-1
    22:     551.98 cm**-1
    23:     579.21 cm**-1
    24:     594.41 cm**-1
    25:     634.62 cm**-1
    26:     665.99 cm**-1
    27:     679.16 cm**-1
    28:     704.31 cm**-1
    29:     750.73 cm**-1
    30:     766.96 cm**-1
    31:     776.32 cm**-1
    32:     830.51 cm**-1
    33:     835.57 cm**-1
    34:     837.38 cm**-1
    35:     916.57 cm**-1
    36:     952.89 cm**-1
    37:     974.30 cm**-1
    38:    1023.19 cm**-1
    39:    1025.42 cm**-1
    40:    1044.77 cm**-1
    41:    1073.19 cm**-1
    42:    1099.97 cm**-1
    43:    1144.33 cm**-1
    44:    1158.79 cm**-1
    45:    1182.56 cm**-1
    46:    1196.21 cm**-1
    47:    1266.95 cm**-1
    48:    1316.82 cm**-1
    49:    1338.33 cm**-1
    50:    1352.47 cm**-1
    51:    1368.98 cm**-1
    52:    1454.60 cm**-1
    53:    1480.99 cm**-1
    54:    1519.51 cm**-1
    55:    1525.75 cm**-1
    56:    1612.57 cm**-1
    57:    1625.92 cm**-1
    58:    1631.62 cm**-1
    59:    1643.09 cm**-1
    60:    1675.84 cm**-1
    61:    3161.70 cm**-1
    62:    3162.26 cm**-1
    63:    3171.27 cm**-1
    64:    3180.81 cm**-1
    65:    3189.63 cm**-1
    66:    3195.05 cm**-1
    67:    3566.60 cm**-1
    68:    3689.63 cm**-1

IR SPECTRUM
-----------

 Mode   freq       eps      Int      T**2         TX        TY        TZ
       cm**-1   L/(mol*cm) km/mol    a.u.
----------------------------------------------------------------------------
  6:     26.70   0.002262   11.43  0.026436  (-0.027848 -0.036083  0.156073)
  7:     48.16   0.000044    0.22  0.000285  (-0.014319  0.006209  0.006450)
  8:     91.04   0.000802    4.05  0.002750  (-0.027857 -0.040873  0.017424)
  9:     96.52   0.015504   78.35  0.050126  (-0.008642 -0.043103  0.219530)
 10:    140.01   0.015226   76.95  0.033937  ( 0.027135  0.040668 -0.177615)
 11:    183.29   0.003139   15.86  0.005344  (-0.005165 -0.017221  0.070856)
 12:    226.25   0.000247    1.25  0.000341  (-0.005632  0.012569  0.012298)
 13:    265.06   0.000241    1.22  0.000284  ( 0.004752  0.000873  0.016133)
 14:    277.28   0.000831    4.20  0.000935  (-0.029807 -0.006720  0.001067)
 15:    293.62   0.000557    2.82  0.000592  ( 0.006072 -0.023547 -0.000849)
 16:    326.57   0.000275    1.39  0.000263  ( 0.016155  0.001220  0.000714)
 17:    414.91   0.000010    0.05  0.000008  ( 0.002161  0.001056 -0.001333)
 18:    419.10   0.000530    2.68  0.000394  ( 0.019281  0.003347 -0.003392)
 19:    445.36   0.000048    0.24  0.000034  (-0.004494  0.002939 -0.002250)
 20:    500.41   0.000529    2.67  0.000330  (-0.000417  0.009435  0.015505)
 21:    515.18   0.000258    1.30  0.000156  (-0.000609  0.012019  0.003383)
 22:    551.98   0.000511    2.58  0.000289  (-0.006734  0.003640  0.015171)
 23:    579.21   0.001485    7.51  0.000800  (-0.026528  0.000773  0.009795)
 24:    594.41   0.002492   12.59  0.001308  ( 0.023130 -0.027348 -0.005035)
 25:    634.62   0.000096    0.48  0.000047  ( 0.001780 -0.002976 -0.005916)
 26:    665.99   0.004007   20.25  0.001878  ( 0.033144  0.023645  0.014831)
 27:    679.16   0.001523    7.70  0.000700  (-0.002143 -0.002692  0.026227)
 28:    704.31   0.008297   41.93  0.003676  (-0.008050 -0.037975 -0.046576)
 29:    750.73   0.000494    2.50  0.000205  ( 0.001621 -0.006231  0.012803)
 30:    766.96   0.001073    5.42  0.000436  (-0.019827 -0.002421  0.006123)
 31:    776.32   0.008421   42.56  0.003385  (-0.025452 -0.031435 -0.041824)
 32:    830.51   0.016787   84.83  0.006308  (-0.067804 -0.040787 -0.006833)
 33:    835.57   0.000495    2.50  0.000185  (-0.002988  0.004541 -0.012470)
 34:    837.38   0.002267   11.46  0.000845  (-0.000946  0.006272 -0.028365)
 35:    916.57   0.000209    1.06  0.000071  (-0.001948 -0.005226  0.006325)
 36:    952.89   0.000031    0.16  0.000010  ( 0.001910 -0.002425 -0.000837)
 37:    974.30   0.000014    0.07  0.000005  (-0.000195 -0.001951  0.000811)
 38:   1023.19   0.000433    2.19  0.000132  ( 0.003093  0.010249  0.004175)
 39:   1025.42   0.000833    4.21  0.000253  (-0.000221  0.015132  0.004942)
 40:   1044.77   0.001515    7.65  0.000452  ( 0.018023 -0.010835 -0.003186)
 41:   1073.19   0.002809   14.20  0.000817  ( 0.012094  0.023742  0.010339)
 42:   1099.97   0.001373    6.94  0.000390  (-0.009434 -0.010417  0.013859)
 43:   1144.33   0.002692   13.60  0.000734  (-0.008545  0.025224  0.004976)
 44:   1158.79   0.006227   31.47  0.001677  ( 0.036490 -0.018569 -0.000723)
 45:   1182.56   0.000098    0.50  0.000026  ( 0.004222 -0.002846  0.000072)
 46:   1196.21   0.000035    0.18  0.000009  (-0.002478  0.001713  0.000136)
 47:   1266.95   0.008541   43.16  0.002104  ( 0.045435 -0.006254 -0.000609)
 48:   1316.82   0.005972   30.18  0.001415  (-0.012312 -0.033446 -0.012043)
 49:   1338.33   0.000054    0.28  0.000013  ( 0.001338  0.002028 -0.002608)
 50:   1352.47   0.000232    1.17  0.000053  ( 0.001121 -0.004798  0.005400)
 51:   1368.98   0.010128   51.18  0.002309  (-0.046949  0.010200 -0.000616)
 52:   1454.60   0.009307   47.03  0.001997  ( 0.020542 -0.038057 -0.011240)
 53:   1480.99   0.001125    5.68  0.000237  ( 0.003314  0.013879 -0.005780)
 54:   1519.51   0.005508   27.84  0.001131  ( 0.033553 -0.000020  0.002324)
 55:   1525.75   0.002912   14.72  0.000596  (-0.023683  0.004585  0.003701)
 56:   1612.57   0.011485   58.04  0.002223  ( 0.004146 -0.043070 -0.018719)
 57:   1625.92   0.001262    6.38  0.000242  (-0.014066 -0.004145  0.005209)
 58:   1631.62   0.005366   27.12  0.001026  ( 0.025323 -0.019577 -0.001372)
 59:   1643.09   0.052101  263.30  0.009895  ( 0.056600 -0.077727 -0.025498)
 60:   1675.84   0.091190  460.84  0.016981  ( 0.114007 -0.061473 -0.014288)
 61:   3161.70   0.000050    0.25  0.000005  ( 0.001944 -0.001084 -0.000066)
 62:   3162.26   0.001738    8.78  0.000172  ( 0.004954 -0.011748 -0.002994)
 63:   3171.27   0.001789    9.04  0.000176  (-0.002984 -0.009981  0.008216)
 64:   3180.81   0.004184   21.15  0.000411  (-0.019320  0.005714 -0.002142)
 65:   3189.63   0.001632    8.25  0.000160  ( 0.007796  0.006108 -0.007845)
 66:   3195.05   0.000391    1.98  0.000038  (-0.003922  0.003025 -0.003702)
 67:   3566.60   0.021286  107.57  0.001862  ( 0.039582 -0.016923 -0.003037)
 68:   3689.63   0.010225   51.67  0.000865  (-0.011017 -0.026155 -0.007704)

--------------------------
THERMOCHEMISTRY AT 298.15K
--------------------------

Temperature         ...   298.15 K
Pressure            ...     1.00 atm
Total Mass          ...   221.65 AMU
Quasi RRHO          ...     True
Cut-Off Frequency   ...     1.00 cm^-1

Throughout the following assumptions are being made:
  (1) The electronic state is orbitally nondegenerate
  (2) There are no thermally accessible electronically excited states
  (3) Hindered rotations indicated by low frequency modes are not
      treated as such but are treated as vibrations and this may
      cause some error
  (4) All equations used are the standard statistical mechanics
      equations for an ideal gas
  (5) All vibrations are strictly harmonic

freq.      26.70  E(vib)   ...       0.56
freq.      48.16  E(vib)   ...       0.53
freq.      91.04  E(vib)   ...       0.47
freq.      96.52  E(vib)   ...       0.47
freq.     140.01  E(vib)   ...       0.41
freq.     183.29  E(vib)   ...       0.37
freq.     226.25  E(vib)   ...       0.33
freq.     265.06  E(vib)   ...       0.29
freq.     277.28  E(vib)   ...       0.28
freq.     293.62  E(vib)   ...       0.27
freq.     326.57  E(vib)   ...       0.24
freq.     414.91  E(vib)   ...       0.19
freq.     419.10  E(vib)   ...       0.18
freq.     445.36  E(vib)   ...       0.17
freq.     500.41  E(vib)   ...       0.14
freq.     515.18  E(vib)   ...       0.13
freq.     551.98  E(vib)   ...       0.12
freq.     579.21  E(vib)   ...       0.11
freq.     594.41  E(vib)   ...       0.10
freq.     634.62  E(vib)   ...       0.09
freq.     665.99  E(vib)   ...       0.08
freq.     679.16  E(vib)   ...       0.08
freq.     704.31  E(vib)   ...       0.07
freq.     750.73  E(vib)   ...       0.06
freq.     766.96  E(vib)   ...       0.06
freq.     776.32  E(vib)   ...       0.05
freq.     830.51  E(vib)   ...       0.04
freq.     835.57  E(vib)   ...       0.04
freq.     837.38  E(vib)   ...       0.04
freq.     916.57  E(vib)   ...       0.03
freq.     952.89  E(vib)   ...       0.03
freq.     974.30  E(vib)   ...       0.03
freq.    1023.19  E(vib)   ...       0.02
freq.    1025.42  E(vib)   ...       0.02
freq.    1044.77  E(vib)   ...       0.02
freq.    1073.19  E(vib)   ...       0.02
freq.    1099.97  E(vib)   ...       0.02
freq.    1144.33  E(vib)   ...       0.01
freq.    1158.79  E(vib)   ...       0.01
freq.    1182.56  E(vib)   ...       0.01
freq.    1196.21  E(vib)   ...       0.01
freq.    1266.95  E(vib)   ...       0.01
freq.    1316.82  E(vib)   ...       0.01
freq.    1338.33  E(vib)   ...       0.01
freq.    1352.47  E(vib)   ...       0.01
freq.    1368.98  E(vib)   ...       0.01
freq.    1454.60  E(vib)   ...       0.00
freq.    1480.99  E(vib)   ...       0.00
freq.    1519.51  E(vib)   ...       0.00
freq.    1525.75  E(vib)   ...       0.00
freq.    1612.57  E(vib)   ...       0.00
freq.    1625.92  E(vib)   ...       0.00
freq.    1631.62  E(vib)   ...       0.00
freq.    1643.09  E(vib)   ...       0.00
freq.    1675.84  E(vib)   ...       0.00
freq.    3161.70  E(vib)   ...       0.00
freq.    3162.26  E(vib)   ...       0.00
freq.    3171.27  E(vib)   ...       0.00
freq.    3180.81  E(vib)   ...       0.00
freq.    3189.63  E(vib)   ...       0.00
freq.    3195.05  E(vib)   ...       0.00
freq.    3566.60  E(vib)   ...       0.00
freq.    3689.63  E(vib)   ...       0.00

------------
INNER ENERGY
------------

The inner energy is: U= E(el) + E(ZPE) + E(vib) + E(rot) + E(trans)
    E(el)   - is the total energy from the electronic structure calculation
              = E(kin-el) + E(nuc-el) + E(el-el) + E(nuc-nuc)
    E(ZPE)  - the the zero temperature vibrational energy from the frequency calculation
    E(vib)  - the the finite temperature correction to E(ZPE) due to population
              of excited vibrational states
    E(rot)  - is the rotational thermal energy
    E(trans)- is the translational thermal energy

Summary of contributions to the inner energy U:
Electronic energy                ...  -1085.43811870 Eh
Zero point energy                ...      0.16721566 Eh     104.93 kcal/mol
Thermal vibrational correction   ...      0.00995399 Eh       6.25 kcal/mol
Thermal rotational correction    ...      0.00141627 Eh       0.89 kcal/mol
Thermal translational correction ...      0.00141627 Eh       0.89 kcal/mol
-----------------------------------------------------------------------
Total thermal energy                  -1085.25811650 Eh

Summary of corrections to the electronic energy:
(perhaps to be used in another calculation)
Total thermal correction                  0.01278654 Eh       8.02 kcal/mol
Non-thermal (ZPE) correction              0.16721566 Eh     104.93 kcal/mol
-----------------------------------------------------------------------
Total correction                          0.18000220 Eh     112.95 kcal/mol

--------
ENTHALPY
--------

The enthalpy is H = U + kB*T
                kB is Boltzmann's constant
Total thermal energy              ...  -1085.25811650 Eh
Thermal Enthalpy correction       ...      0.00094421 Eh       0.59 kcal/mol
-----------------------------------------------------------------------
Total Enthalpy                    ...  -1085.25717229 Eh

Note: Only C1 symmetry has been detected, increase convergence thresholds
      if your molecule has a higher symmetry. Symmetry factor of 1.0 is
      used for the rotational entropy correction.

Note: Rotational entropy computed according to Herzberg
Infrared and Raman Spectra, Chapter V,1, Van Nostrand Reinhold, 1945
Point Group:  C1, Symmetry Number:   1
Rotational constants in cm-1:     0.043572     0.010512     0.008987

Vibrational entropy computed according to the QRRHO of S. Grimme
Chem.Eur.J. 2012 18 9955 using a reference frequency of 100.0 cm-1

-------
ENTROPY
-------

The entropy contributions are T*S = T*(S(el)+S(vib)+S(rot)+S(trans))
     S(el)   - electronic entropy
     S(vib)  - vibrational entropy
     S(rot)  - rotational entropy
     S(trans)- translational entropy
The entropies will be listed as multiplied by the temperature to get
units of energy

Electronic entropy                ...      0.00000000 Eh      0.00 kcal/mol
Vibrational entropy               ...      0.01722672 Eh     10.81 kcal/mol
Rotational entropy                ...      0.01536502 Eh      9.64 kcal/mol
Translational entropy             ...      0.01999847 Eh     12.55 kcal/mol
-----------------------------------------------------------------------
Final entropy term                ...      0.05259022 Eh     33.00 kcal/mol

In case the symmetry of your molecule has not been determined correctly
or in case you have a reason to use a different symmetry number we print

                             ****ORCA TERMINATED NORMALLY****
TOTAL RUN TIME: 0 days 0 hours 23 minutes 4 seconds 426 msec
