                         Program Version 6.0.0  -   RELEASE  -
|  1> ! r2SCAN-3c DEF2-TZVP FREQ
|  2> * xyzfile 0 1 vacuum_censo.xyz
|  3>
|  4>                          ****END OF INPUT****

CARTESIAN COORDINATES (ANGSTROEM)
---------------------------------
  C      4.501875   -0.289308    0.043259
  C      3.952062    0.824314    0.670878
  C      2.580996    1.045625    0.630694
  C      1.761015    0.147385   -0.048022
  C      2.299457   -0.968850   -0.683909
  C      3.672302   -1.179570   -0.631987
  N      0.349903    0.409944   -0.106602
  C     -0.585847   -0.654880    0.126146
  O     -0.214204   -1.792701    0.359148
  C     -1.954880   -0.211440    0.061576
  C     -2.307151    1.099329   -0.156657
  C     -1.229805    2.023164   -0.322336
  N      0.026663    1.690647   -0.295302
  N     -3.596573    1.537026   -0.266895
  Cl    -3.179390   -1.416926    0.310388
  H      5.572172   -0.462969    0.080490
  H      4.590451    1.523409    1.201002
  H      2.142415    1.909894    1.114899
  H      1.654499   -1.662868   -1.205092
  H      4.093968   -2.047784   -1.127508
  H     -1.432816    3.076896   -0.496857
  H     -3.766788    2.519596   -0.130989
  H     -4.321602    0.919917    0.065007

 Total Charge           Charge          ....    0
 Multiplicity           Mult            ....    1
 Number of Electrons    NEL             ....  114
 Basis Dimension        Dim             ....  519

ORBITAL ENERGIES
----------------

  NO   OCC          E(Eh)            E(eV)
   0   2.0000    -101.204397     -2753.9116
   1   2.0000     -18.918652      -514.8027
   2   2.0000     -14.259061      -388.0088
   3   2.0000     -14.221063      -386.9748
   4   2.0000     -14.207793      -386.6137
   5   2.0000     -10.143910      -276.0298
   6   2.0000     -10.118794      -275.3464
   7   2.0000     -10.105265      -274.9782
   8   2.0000     -10.089769      -274.5566
   9   2.0000     -10.084177      -274.4044
  10   2.0000     -10.042563      -273.2720
  11   2.0000     -10.040832      -273.2249
  12   2.0000     -10.040638      -273.2197
  13   2.0000     -10.039362      -273.1849
  14   2.0000     -10.038547      -273.1628
  15   2.0000      -9.379887      -255.2397
  16   2.0000      -7.124974      -193.8804
  17   2.0000      -7.114962      -193.6080
  18   2.0000      -7.114191      -193.5870
  19   2.0000      -1.036762       -28.2117
  20   2.0000      -0.985453       -26.8155
  21   2.0000      -0.931481       -25.3469
  22   2.0000      -0.850876       -23.1535
  23   2.0000      -0.840341       -22.8668
  24   2.0000      -0.808086       -21.9891
  25   2.0000      -0.749705       -20.4005
  26   2.0000      -0.720260       -19.5993
  27   2.0000      -0.716941       -19.5090
  28   2.0000      -0.640490       -17.4286
  29   2.0000      -0.635319       -17.2879
  30   2.0000      -0.581998       -15.8370
  31   2.0000      -0.577506       -15.7147
  32   2.0000      -0.551538       -15.0081
  33   2.0000      -0.519090       -14.1252
  34   2.0000      -0.506109       -13.7719
  35   2.0000      -0.475732       -12.9453
  36   2.0000      -0.467379       -12.7180
  37   2.0000      -0.455486       -12.3944
  38   2.0000      -0.436121       -11.8675
  39   2.0000      -0.419418       -11.4129
  40   2.0000      -0.408035       -11.1032
  41   2.0000      -0.403648       -10.9838
  42   2.0000      -0.395394       -10.7592
  43   2.0000      -0.391794       -10.6613
  44   2.0000      -0.374475       -10.1900
  45   2.0000      -0.359659        -9.7868
  46   2.0000      -0.346351        -9.4247
  47   2.0000      -0.334203        -9.0941
  48   2.0000      -0.320815        -8.7298
  49   2.0000      -0.311133        -8.4664
  50   2.0000      -0.298117        -8.1122
  51   2.0000      -0.290978        -7.9179
  52   2.0000      -0.264442        -7.1958
  53   2.0000      -0.241152        -6.5621
  54   2.0000      -0.229362        -6.2413
  55   2.0000      -0.221328        -6.0226
  56   2.0000      -0.210604        -5.7308
  57   0.0000      -0.089292        -2.4297
  58   0.0000      -0.039875        -1.0851
  59   0.0000      -0.035895        -0.9767
  60   0.0000      -0.022866        -0.6222
  61   0.0000      -0.001039        -0.0283

MULLIKEN ATOMIC CHARGES
-----------------------
   0 C :   -0.125344
   1 C :   -0.068548
   2 C :   -0.219111
   3 C :    0.232494
   4 C :   -0.202413
   5 C :   -0.074862
   6 N :    0.139412
   7 C :    0.224905
   8 O :   -0.369178
   9 C :   -0.075283
  10 C :    0.236735
  11 C :   -0.144029
  12 N :   -0.206390
  13 N :   -0.427572
  14 Cl:   -0.092705
  15 H :    0.110687
  16 H :    0.109738
  17 H :    0.105420
  18 H :    0.125615
  19 H :    0.112428
  20 H :    0.114791
  21 H :    0.244551
  22 H :    0.248661
Sum of atomic charges:   -0.0000000

LOEWDIN ATOMIC CHARGES
----------------------
   0 C :   -0.138852
   1 C :   -0.136949
   2 C :   -0.104200
   3 C :   -0.159749
   4 C :   -0.091299
   5 C :   -0.132595
   6 N :    0.234549
   7 C :   -0.425375
   8 O :    0.088681
   9 C :   -0.406757
  10 C :   -0.275264
  11 C :   -0.226085
  12 N :    0.115868
  13 N :    0.009138
  14 Cl:    0.425492
  15 H :    0.143484
  16 H :    0.144628
  17 H :    0.149993
  18 H :    0.155855
  19 H :    0.145772
  20 H :    0.143926
  21 H :    0.172700
  22 H :    0.167040

  Mayer bond orders larger than 0.100000
B(  0-C ,  1-C ) :   1.3846 B(  0-C ,  5-C ) :   1.3807 B(  0-C , 15-H ) :   0.9694
B(  1-C ,  2-C ) :   1.4157 B(  1-C , 16-H ) :   0.9708 B(  2-C ,  3-C ) :   1.3924
B(  2-C , 17-H ) :   0.9691 B(  3-C ,  4-C ) :   1.3853 B(  3-C ,  6-N ) :   0.8989
B(  4-C ,  5-C ) :   1.4213 B(  4-C , 18-H ) :   0.9581 B(  5-C , 19-H ) :   0.9682
B(  6-N ,  7-C ) :   1.0666 B(  6-N , 12-N ) :   0.9751 B(  7-C ,  8-O ) :   2.0028
B(  7-C ,  9-C ) :   1.0995 B(  9-C , 10-C ) :   1.3887 B(  9-C , 14-Cl) :   1.0928
B( 10-C , 11-C ) :   1.0981 B( 10-C , 13-N ) :   1.1898 B( 11-C , 12-N ) :   1.6722
B( 11-C , 20-H ) :   0.9984 B( 13-N , 21-H ) :   0.9098 B( 13-N , 22-H ) :   0.8946

Dispersion correction           -0.010443697
FINAL SINGLE POINT ENERGY     -1085.440253922578

DIPOLE MOMENT
-------------

Method             : SCF
Type of density    : Electron Density
Multiplicity       :   1
Irrep              :   0
Energy             : -1085.4458897883082500 Eh
Relativity type    :
Basis              : AO
                                X                 Y                 Z
Electronic contribution:    -13.060507206      -5.656062038       0.926398275
Nuclear contribution   :     12.257681194       7.316887142      -0.971249056
                        -----------------------------------------
Total Dipole Moment    :     -0.802826012       1.660825104      -0.044850781
                        -----------------------------------------
Magnitude (a.u.)       :      1.845232025
Magnitude (Debye)      :      4.690207070

VIBRATIONAL FREQUENCIES
-----------------------

Scaling factor for frequencies =  1.000000000  (already applied!)

     0:       0.00 cm**-1
     1:       0.00 cm**-1
     2:       0.00 cm**-1
     3:       0.00 cm**-1
     4:       0.00 cm**-1
     5:       0.00 cm**-1
     6:      51.08 cm**-1
     7:      57.29 cm**-1
     8:      97.67 cm**-1
     9:     124.90 cm**-1
    10:     191.09 cm**-1
    11:     231.37 cm**-1
    12:     262.83 cm**-1
    13:     286.01 cm**-1
    14:     300.70 cm**-1
    15:     327.71 cm**-1
    16:     400.15 cm**-1
    17:     415.27 cm**-1
    18:     421.43 cm**-1
    19:     446.47 cm**-1
    20:     484.19 cm**-1
    21:     507.92 cm**-1
    22:     553.63 cm**-1
    23:     575.86 cm**-1
    24:     595.44 cm**-1
    25:     634.05 cm**-1
    26:     665.84 cm**-1
    27:     677.35 cm**-1
    28:     704.01 cm**-1
    29:     746.40 cm**-1
    30:     763.20 cm**-1
    31:     774.46 cm**-1
    32:     817.80 cm**-1
    33:     835.95 cm**-1
    34:     846.64 cm**-1
    35:     916.66 cm**-1
    36:     957.20 cm**-1
    37:     975.67 cm**-1
    38:    1023.29 cm**-1
    39:    1027.98 cm**-1
    40:    1046.09 cm**-1
    41:    1065.57 cm**-1
    42:    1103.63 cm**-1
    43:    1143.49 cm**-1
    44:    1154.77 cm**-1
    45:    1183.66 cm**-1
    46:    1201.45 cm**-1
    47:    1238.84 cm**-1
    48:    1301.50 cm**-1
    49:    1343.75 cm**-1
    50:    1359.13 cm**-1
    51:    1364.51 cm**-1
    52:    1443.73 cm**-1
    53:    1484.36 cm**-1
    54:    1520.51 cm**-1
    55:    1536.69 cm**-1
    56:    1625.19 cm**-1
    57:    1630.20 cm**-1
    58:    1634.81 cm**-1
    59:    1661.59 cm**-1
    60:    1721.10 cm**-1
    61:    3154.98 cm**-1
    62:    3162.81 cm**-1
    63:    3172.96 cm**-1
    64:    3184.45 cm**-1
    65:    3199.12 cm**-1
    66:    3221.39 cm**-1
    67:    3563.53 cm**-1
    68:    3682.41 cm**-1

IR SPECTRUM
-----------

 Mode   freq       eps      Int      T**2         TX        TY        TZ
       cm**-1   L/(mol*cm) km/mol    a.u.
----------------------------------------------------------------------------
  6:     51.08   0.000135    0.68  0.000823  ( 0.013304 -0.003009  0.025241)
  7:     57.29   0.000629    3.18  0.003426  (-0.002856  0.008957  0.057770)
  8:     97.67   0.000428    2.16  0.001368  ( 0.021046  0.029019 -0.009124)
  9:    124.90   0.000214    1.08  0.000535  (-0.021709 -0.007020 -0.003802)
 10:    191.09   0.000110    0.55  0.000179  ( 0.005928  0.002287  0.011781)
 11:    231.37   0.000054    0.27  0.000072  (-0.000028 -0.008495 -0.000236)
 12:    262.83   0.000371    1.87  0.000440  ( 0.008761 -0.015348  0.011303)
 13:    286.01   0.001115    5.63  0.001216  (-0.034292 -0.001036 -0.006260)
 14:    300.70   0.000384    1.94  0.000399  ( 0.006804 -0.018736  0.001169)
 15:    327.71   0.000623    3.15  0.000594  (-0.023881 -0.000783 -0.004754)
 16:    400.15   0.000199    1.01  0.000155  ( 0.001297  0.006388 -0.010630)
 17:    415.27   0.000084    0.43  0.000063  (-0.007815  0.001452 -0.000230)
 18:    421.43   0.020134  101.75  0.014909  (-0.062602  0.064886 -0.082337)
 19:    446.47   0.002465   12.46  0.001723  ( 0.024706 -0.008273  0.032310)
 20:    484.19   0.036244  183.16  0.023359  ( 0.100851 -0.031256  0.110506)
 21:    507.92   0.003339   16.87  0.002051  (-0.041082 -0.006841 -0.017803)
 22:    553.63   0.004550   22.99  0.002565  (-0.027159  0.009817 -0.041600)
 23:    575.86   0.001253    6.33  0.000679  ( 0.025406  0.000266  0.005763)
 24:    595.44   0.001283    6.49  0.000673  (-0.007777  0.024539  0.003163)
 25:    634.05   0.000162    0.82  0.000080  ( 0.003397 -0.002105  0.007988)
 26:    665.84   0.002825   14.28  0.001324  (-0.029114 -0.016296  0.014525)
 27:    677.35   0.000336    1.70  0.000155  ( 0.000050  0.005020  0.011376)
 28:    704.01   0.008275   41.82  0.003668  ( 0.006786  0.029243 -0.052599)
 29:    746.40   0.000583    2.95  0.000244  (-0.006260  0.000543  0.014297)
 30:    763.20   0.002763   13.96  0.001130  (-0.031934 -0.009524 -0.004381)
 31:    774.46   0.008515   43.03  0.003431  ( 0.017348  0.028712 -0.048017)
 32:    817.80   0.017753   89.72  0.006774  ( 0.067515  0.047074 -0.000470)
 33:    835.95   0.000193    0.97  0.000072  ( 0.007780 -0.000601 -0.003335)
 34:    846.64   0.003090   15.61  0.001139  (-0.000720 -0.003635 -0.033542)
 35:    916.66   0.000424    2.15  0.000144  ( 0.000322  0.005597  0.010633)
 36:    957.20   0.000079    0.40  0.000026  ( 0.004387 -0.002195  0.001352)
 37:    975.67   0.000046    0.23  0.000015  ( 0.001237 -0.003300 -0.001538)
 38:   1023.29   0.001137    5.75  0.000347  ( 0.004131 -0.017148  0.005967)
 39:   1027.98   0.000996    5.03  0.000302  ( 0.006018 -0.015736  0.004306)
 40:   1046.09   0.001279    6.46  0.000382  (-0.014778  0.012270 -0.003555)
 41:   1065.57   0.002149   10.86  0.000629  (-0.012443 -0.020246  0.008043)
 42:   1103.63   0.001904    9.62  0.000538  ( 0.016908  0.011107  0.011359)
 43:   1143.49   0.004973   25.13  0.001357  ( 0.035326 -0.010115 -0.002648)
 44:   1154.77   0.006730   34.01  0.001819  ( 0.026389 -0.033436  0.002102)
 45:   1183.66   0.000064    0.32  0.000017  ( 0.003458 -0.002150  0.000484)
 46:   1201.45   0.000031    0.16  0.000008  ( 0.000558  0.002777 -0.000161)
 47:   1238.84   0.007844   39.64  0.001976  (-0.044388  0.002342 -0.000420)
 48:   1301.50   0.006649   33.60  0.001594  ( 0.032861  0.021769 -0.006364)
 49:   1343.75   0.000727    3.68  0.000169  (-0.009078  0.008839 -0.002897)
 50:   1359.13   0.000221    1.12  0.000051  ( 0.005456  0.000711  0.004521)
 51:   1364.51   0.019110   96.57  0.004370  ( 0.060640 -0.026273  0.001701)
 52:   1443.73   0.007216   36.47  0.001560  (-0.018531  0.033959 -0.007952)
 53:   1484.36   0.001325    6.70  0.000279  ( 0.010015  0.012402  0.004942)
 54:   1520.51   0.009136   46.17  0.001875  (-0.043140  0.003723 -0.000230)
 55:   1536.69   0.000327    1.65  0.000066  (-0.000357  0.007856  0.002145)
 56:   1625.19   0.004425   22.36  0.000850  ( 0.028667 -0.005045  0.001582)
 57:   1630.20   0.002059   10.40  0.000394  ( 0.018244  0.002931  0.007256)
 58:   1634.81   0.001600    8.09  0.000305  ( 0.013770 -0.004976 -0.009540)
 59:   1661.59   0.061035  308.45  0.011463  (-0.096879  0.045476  0.003078)
 60:   1721.10   0.070176  354.64  0.012724  ( 0.050093 -0.098513  0.022582)
 61:   3154.98   0.001504    7.60  0.000149  (-0.004521  0.011215 -0.001604)
 62:   3162.81   0.000036    0.18  0.000004  (-0.001526 -0.001035 -0.000353)
 63:   3172.96   0.002613   13.21  0.000257  ( 0.004154  0.013049  0.008335)
 64:   3184.45   0.004663   23.56  0.000457  (-0.020713  0.005170  0.001069)
 65:   3199.12   0.000549    2.77  0.000054  (-0.003314 -0.004513 -0.004708)
 66:   3221.39   0.000132    0.67  0.000013  ( 0.001475 -0.000838 -0.003155)
 67:   3563.53   0.013491   68.18  0.001181  ( 0.032495 -0.009944 -0.005157)
 68:   3682.41   0.007804   39.44  0.000661  (-0.004772 -0.025155  0.002403)

--------------------------
THERMOCHEMISTRY AT 298.15K
--------------------------

Temperature         ...   298.15 K
Pressure            ...     1.00 atm
Total Mass          ...   221.65 AMU
Quasi RRHO          ...     True
Cut-Off Frequency   ...     1.00 cm^-1

Throughout the following assumptions are being made:
  (1) The electronic state is orbitally nondegenerate
  (2) There are no thermally accessible electronically excited states
  (3) Hindered rotations indicated by low frequency modes are not
      treated as such but are treated as vibrations and this may
      cause some error
  (4) All equations used are the standard statistical mechanics
      equations for an ideal gas
  (5) All vibrations are strictly harmonic

freq.      51.08  E(vib)   ...       0.52
freq.      57.29  E(vib)   ...       0.51
freq.      97.67  E(vib)   ...       0.46
freq.     124.90  E(vib)   ...       0.43
freq.     191.09  E(vib)   ...       0.36
freq.     231.37  E(vib)   ...       0.32
freq.     262.83  E(vib)   ...       0.29
freq.     286.01  E(vib)   ...       0.27
freq.     300.70  E(vib)   ...       0.26
freq.     327.71  E(vib)   ...       0.24
freq.     400.15  E(vib)   ...       0.19
freq.     415.27  E(vib)   ...       0.18
freq.     421.43  E(vib)   ...       0.18
freq.     446.47  E(vib)   ...       0.17
freq.     484.19  E(vib)   ...       0.15
freq.     507.92  E(vib)   ...       0.14
freq.     553.63  E(vib)   ...       0.12
freq.     575.86  E(vib)   ...       0.11
freq.     595.44  E(vib)   ...       0.10
freq.     634.05  E(vib)   ...       0.09
freq.     665.84  E(vib)   ...       0.08
freq.     677.35  E(vib)   ...       0.08
freq.     704.01  E(vib)   ...       0.07
freq.     746.40  E(vib)   ...       0.06
freq.     763.20  E(vib)   ...       0.06
freq.     774.46  E(vib)   ...       0.05
freq.     817.80  E(vib)   ...       0.05
freq.     835.95  E(vib)   ...       0.04
freq.     846.64  E(vib)   ...       0.04
freq.     916.66  E(vib)   ...       0.03
freq.     957.20  E(vib)   ...       0.03
freq.     975.67  E(vib)   ...       0.03
freq.    1023.29  E(vib)   ...       0.02
freq.    1027.98  E(vib)   ...       0.02
freq.    1046.09  E(vib)   ...       0.02
freq.    1065.57  E(vib)   ...       0.02
freq.    1103.63  E(vib)   ...       0.02
freq.    1143.49  E(vib)   ...       0.01
freq.    1154.77  E(vib)   ...       0.01
freq.    1183.66  E(vib)   ...       0.01
freq.    1201.45  E(vib)   ...       0.01
freq.    1238.84  E(vib)   ...       0.01
freq.    1301.50  E(vib)   ...       0.01
freq.    1343.75  E(vib)   ...       0.01
freq.    1359.13  E(vib)   ...       0.01
freq.    1364.51  E(vib)   ...       0.01
freq.    1443.73  E(vib)   ...       0.00
freq.    1484.36  E(vib)   ...       0.00
freq.    1520.51  E(vib)   ...       0.00
freq.    1536.69  E(vib)   ...       0.00
freq.    1625.19  E(vib)   ...       0.00
freq.    1630.20  E(vib)   ...       0.00
freq.    1634.81  E(vib)   ...       0.00
freq.    1661.59  E(vib)   ...       0.00
freq.    1721.10  E(vib)   ...       0.00
freq.    3154.98  E(vib)   ...       0.00
freq.    3162.81  E(vib)   ...       0.00
freq.    3172.96  E(vib)   ...       0.00
freq.    3184.45  E(vib)   ...       0.00
freq.    3199.12  E(vib)   ...       0.00
freq.    3221.39  E(vib)   ...       0.00
freq.    3563.53  E(vib)   ...       0.00
freq.    3682.41  E(vib)   ...       0.00

------------
INNER ENERGY
------------

The inner energy is: U= E(el) + E(ZPE) + E(vib) + E(rot) + E(trans)
    E(el)   - is the total energy from the electronic structure calculation
              = E(kin-el) + E(nuc-el) + E(el-el) + E(nuc-nuc)
    E(ZPE)  - the the zero temperature vibrational energy from the frequency calculation
    E(vib)  - the the finite temperature correction to E(ZPE) due to population
              of excited vibrational states
    E(rot)  - is the rotational thermal energy
    E(trans)- is the translational thermal energy

Summary of contributions to the inner energy U:
Electronic energy                ...  -1085.44025392 Eh
Zero point energy                ...      0.16813724 Eh     105.51 kcal/mol
Thermal vibrational correction   ...      0.00944632 Eh       5.93 kcal/mol
Thermal rotational correction    ...      0.00141627 Eh       0.89 kcal/mol
Thermal translational correction ...      0.00141627 Eh       0.89 kcal/mol
-----------------------------------------------------------------------
Total thermal energy                  -1085.25983782 Eh

Summary of corrections to the electronic energy:
(perhaps to be used in another calculation)
Total thermal correction                  0.01227886 Eh       7.71 kcal/mol
Non-thermal (ZPE) correction              0.16813724 Eh     105.51 kcal/mol
-----------------------------------------------------------------------
Total correction                          0.18041610 Eh     113.21 kcal/mol

--------
ENTHALPY
--------

The enthalpy is H = U + kB*T
                kB is Boltzmann's constant
Total thermal energy              ...  -1085.25983782 Eh
Thermal Enthalpy correction       ...      0.00094421 Eh       0.59 kcal/mol
-----------------------------------------------------------------------
Total Enthalpy                    ...  -1085.25889361 Eh

Note: Only C1 symmetry has been detected, increase convergence thresholds
      if your molecule has a higher symmetry. Symmetry factor of 1.0 is
      used for the rotational entropy correction.

Note: Rotational entropy computed according to Herzberg
Infrared and Raman Spectra, Chapter V,1, Van Nostrand Reinhold, 1945
Point Group:  C1, Symmetry Number:   1
Rotational constants in cm-1:     0.043905     0.010566     0.008833

Vibrational entropy computed according to the QRRHO of S. Grimme
Chem.Eur.J. 2012 18 9955 using a reference frequency of 100.0 cm-1

-------
ENTROPY
-------

The entropy contributions are T*S = T*(S(el)+S(vib)+S(rot)+S(trans))
     S(el)   - electronic entropy
     S(vib)  - vibrational entropy
     S(rot)  - rotational entropy
     S(trans)- translational entropy
The entropies will be listed as multiplied by the temperature to get
units of energy

Electronic entropy                ...      0.00000000 Eh      0.00 kcal/mol
Vibrational entropy               ...      0.01582613 Eh      9.93 kcal/mol
Rotational entropy                ...      0.01536713 Eh      9.64 kcal/mol
Translational entropy             ...      0.01999847 Eh     12.55 kcal/mol
-----------------------------------------------------------------------
Final entropy term                ...      0.05119173 Eh     32.12 kcal/mol

In case the symmetry of your molecule has not been determined correctly
or in case you have a reason to use a different symmetry number we print

                             ****ORCA TERMINATED NORMALLY****
TOTAL RUN TIME: 0 days 0 hours 22 minutes 13 seconds 760 msec
