                         Program Version 6.0.0  -   RELEASE  -
|  1> ! r2SCAN-3c DEF2-TZVP FREQ
|  2> * xyzfile 0 1 censo.xyz
|  3>
|  4>                          ****END OF INPUT****

CARTESIAN COORDINATES (ANGSTROEM)
---------------------------------
  C     -2.690763   -0.969360    0.000958
  S     -1.842110    0.643307   -0.000415
  C     -0.118680    0.205895   -0.000257
  C      0.800196    1.266072    0.000093
  C      2.164438    1.006128    0.000218
  C      2.636303   -0.306853    0.000017
  C      1.723153   -1.356436   -0.000354
  C      0.350701   -1.111066   -0.000502
  H     -2.452271   -1.544038    0.899309
  H     -2.453442   -1.545074   -0.897034
  H     -3.759352   -0.739569    0.001522
  H      0.446528    2.293330    0.000315
  H      2.863068    1.837205    0.000528
  H      3.702709   -0.506411    0.000160
  H      2.074238   -2.383927   -0.000547
  H     -0.336211   -1.948905   -0.000832

 Total Charge           Charge          ....    0
 Multiplicity           Mult            ....    1
 Number of Electrons    NEL             ....   66
 Basis Dimension        Dim             ....  302

ORBITAL ENERGIES
----------------

  NO   OCC          E(Eh)            E(eV)
   0   2.0000     -88.540495     -2409.3094
   1   2.0000     -10.073650      -274.1179
   2   2.0000     -10.068483      -273.9773
   3   2.0000     -10.041060      -273.2311
   4   2.0000     -10.040628      -273.2194
   5   2.0000     -10.040589      -273.2183
   6   2.0000     -10.040144      -273.2062
   7   2.0000     -10.034853      -273.0622
   8   2.0000      -7.853185      -213.6960
   9   2.0000      -5.799525      -157.8131
  10   2.0000      -5.794696      -157.6817
  11   2.0000      -5.789668      -157.5449
  12   2.0000      -0.830690       -22.6042
  13   2.0000      -0.765522       -20.8309
  14   2.0000      -0.718193       -19.5430
  15   2.0000      -0.705424       -19.1956
  16   2.0000      -0.623038       -16.9537
  17   2.0000      -0.576703       -15.6929
  18   2.0000      -0.549340       -14.9483
  19   2.0000      -0.485222       -13.2036
  20   2.0000      -0.428587       -11.6625
  21   2.0000      -0.425408       -11.5759
  22   2.0000      -0.413902       -11.2628
  23   2.0000      -0.407660       -11.0930
  24   2.0000      -0.391918       -10.6646
  25   2.0000      -0.368496       -10.0273
  26   2.0000      -0.352325        -9.5873
  27   2.0000      -0.332069        -9.0360
  28   2.0000      -0.316526        -8.6131
  29   2.0000      -0.294715        -8.0196
  30   2.0000      -0.268581        -7.3085
  31   2.0000      -0.240331        -6.5398
  32   2.0000      -0.191846        -5.2204
  33   0.0000      -0.038012        -1.0344
  34   0.0000      -0.033200        -0.9034
  35   0.0000       0.002702         0.0735
  36   0.0000       0.039759         1.0819
  37   0.0000       0.065889         1.7929

MULLIKEN ATOMIC CHARGES
-----------------------
   0 C :   -0.334298
   1 S :   -0.050378
   2 C :    0.194063
   3 C :   -0.191728
   4 C :   -0.091232
   5 C :   -0.145449
   6 C :   -0.103595
   7 C :   -0.224544
   8 H :    0.132040
   9 H :    0.132012
  10 H :    0.144022
  11 H :    0.110024
  12 H :    0.109469
  13 H :    0.109086
  14 H :    0.108719
  15 H :    0.101788
Sum of atomic charges:   -0.0000000

LOEWDIN ATOMIC CHARGES
----------------------
   0 C :   -0.502000
   1 S :    0.554084
   2 C :   -0.364767
   3 C :   -0.149950
   4 C :   -0.140421
   5 C :   -0.152438
   6 C :   -0.140435
   7 C :   -0.155777
   8 H :    0.108708
   9 H :    0.108683
  10 H :    0.117100
  11 H :    0.144538
  12 H :    0.144301
  13 H :    0.141909
  14 H :    0.143654
  15 H :    0.142812

  Mayer bond orders larger than 0.100000
B(  0-C ,  1-S ) :   1.0552 B(  0-C ,  8-H ) :   0.9558 B(  0-C ,  9-H ) :   0.9558
B(  0-C , 10-H ) :   0.9563 B(  1-S ,  2-C ) :   1.1420 B(  2-C ,  3-C ) :   1.3050
B(  2-C ,  7-C ) :   1.2865 B(  3-C ,  4-C ) :   1.4395 B(  3-C , 11-H ) :   0.9722
B(  4-C ,  5-C ) :   1.3693 B(  4-C , 12-H ) :   0.9709 B(  5-C ,  6-C ) :   1.4085
B(  5-C , 13-H ) :   0.9714 B(  6-C ,  7-C ) :   1.4016 B(  6-C , 14-H ) :   0.9643
B(  7-C , 15-H ) :   0.9744

Dispersion correction           -0.005489357
FINAL SINGLE POINT ENERGY      -669.676877224855

DIPOLE MOMENT
-------------

Method             : SCF
Type of density    : Electron Density
Multiplicity       :   1
Irrep              :   0
Energy             :  -669.6789444053047191 Eh
Relativity type    :
Basis              : AO
                                X                 Y                 Z
Electronic contribution:     -0.269167365       3.802578677      -0.003175893
Nuclear contribution   :      0.165490566      -4.326623987       0.003689356
                        -----------------------------------------
Total Dipole Moment    :     -0.103676799      -0.524045310       0.000513463
                        -----------------------------------------
Magnitude (a.u.)       :      0.534202798
Magnitude (Debye)      :      1.357835604

VIBRATIONAL FREQUENCIES
-----------------------

Scaling factor for frequencies =  1.000000000  (already applied!)

     0:       0.00 cm**-1
     1:       0.00 cm**-1
     2:       0.00 cm**-1
     3:       0.00 cm**-1
     4:       0.00 cm**-1
     5:       0.00 cm**-1
     6:      75.07 cm**-1
     7:     179.34 cm**-1
     8:     211.89 cm**-1
     9:     257.93 cm**-1
    10:     331.99 cm**-1
    11:     408.08 cm**-1
    12:     416.50 cm**-1
    13:     479.76 cm**-1
    14:     631.79 cm**-1
    15:     685.08 cm**-1
    16:     701.84 cm**-1
    17:     711.28 cm**-1
    18:     742.23 cm**-1
    19:     830.65 cm**-1
    20:     884.01 cm**-1
    21:     945.06 cm**-1
    22:     966.74 cm**-1
    23:     971.57 cm**-1
    24:     981.60 cm**-1
    25:    1014.51 cm**-1
    26:    1045.89 cm**-1
    27:    1093.77 cm**-1
    28:    1107.18 cm**-1
    29:    1181.56 cm**-1
    30:    1208.73 cm**-1
    31:    1319.03 cm**-1
    32:    1338.07 cm**-1
    33:    1357.62 cm**-1
    34:    1460.23 cm**-1
    35:    1463.44 cm**-1
    36:    1478.67 cm**-1
    37:    1504.21 cm**-1
    38:    1601.89 cm**-1
    39:    1614.81 cm**-1
    40:    3015.89 cm**-1
    41:    3109.78 cm**-1
    42:    3117.79 cm**-1
    43:    3153.00 cm**-1
    44:    3159.40 cm**-1
    45:    3168.69 cm**-1
    46:    3182.25 cm**-1
    47:    3193.74 cm**-1

IR SPECTRUM
-----------

 Mode   freq       eps      Int      T**2         TX        TY        TZ
       cm**-1   L/(mol*cm) km/mol    a.u.
----------------------------------------------------------------------------
  6:     75.07   0.000432    2.18  0.001796  ( 0.000066  0.000001  0.042374)
  7:    179.34   0.000019    0.10  0.000033  (-0.000023  0.000063 -0.005755)
  8:    211.89   0.000152    0.77  0.000224  (-0.014499  0.003709  0.000023)
  9:    257.93   0.000012    0.06  0.000014  ( 0.000016  0.000020  0.003736)
 10:    331.99   0.000244    1.23  0.000229  (-0.000133 -0.015132  0.000007)
 11:    408.08   0.000005    0.02  0.000004  (-0.000042 -0.000025  0.001922)
 12:    416.50   0.000350    1.77  0.000263  ( 0.016191 -0.000590  0.000011)
 13:    479.76   0.001727    8.73  0.001123  (-0.000033  0.000058  0.033513)
 14:    631.79   0.000023    0.12  0.000011  ( 0.000196  0.003360  0.000007)
 15:    685.08   0.000990    5.00  0.000451  (-0.019902  0.007415  0.000002)
 16:    701.84   0.006328   31.98  0.002813  (-0.000019 -0.000019 -0.053042)
 17:    711.28   0.001941    9.81  0.000852  ( 0.029135  0.001710 -0.000003)
 18:    742.23   0.008656   43.75  0.003639  ( 0.000037  0.000053  0.060328)
 19:    830.65   0.000006    0.03  0.000002  ( 0.000012 -0.000000 -0.001507)
 20:    884.01   0.000259    1.31  0.000091  (-0.000000 -0.000020 -0.009554)
 21:    945.06   0.000001    0.00  0.000000  ( 0.000010 -0.000018 -0.000461)
 22:    966.74   0.000115    0.58  0.000037  (-0.000005 -0.000000 -0.006087)
 23:    971.57   0.000657    3.32  0.000211  (-0.000010  0.000001  0.014529)
 24:    981.60   0.000775    3.92  0.000246  ( 0.004427 -0.015061 -0.000008)
 25:   1014.51   0.000536    2.71  0.000165  ( 0.010261 -0.007722  0.000004)
 26:   1045.89   0.002407   12.16  0.000718  ( 0.026778 -0.001025  0.000001)
 27:   1093.77   0.006130   30.98  0.001749  ( 0.041033 -0.008076  0.000004)
 28:   1107.18   0.000786    3.97  0.000221  (-0.007859 -0.012636 -0.000009)
 29:   1181.56   0.000106    0.54  0.000028  (-0.000993  0.005207 -0.000000)
 30:   1208.73   0.000241    1.22  0.000062  (-0.007375  0.002807 -0.000004)
 31:   1319.03   0.000646    3.27  0.000153  (-0.002413 -0.012126  0.000004)
 32:   1338.07   0.000222    1.12  0.000052  (-0.007010  0.001637 -0.000009)
 33:   1357.62   0.000208    1.05  0.000048  (-0.006793 -0.001250 -0.000002)
 34:   1460.23   0.001867    9.44  0.000399  (-0.000020 -0.000021  0.019975)
 35:   1463.44   0.001514    7.65  0.000323  (-0.013880  0.011407 -0.000010)
 36:   1478.67   0.005176   26.16  0.001092  ( 0.030331  0.013132  0.000011)
 37:   1504.21   0.006248   31.57  0.001296  (-0.035511  0.005929  0.000005)
 38:   1601.89   0.000988    5.00  0.000193  ( 0.009482 -0.010132 -0.000006)
 39:   1614.81   0.008552   43.22  0.001653  ( 0.040650 -0.000603  0.000001)
 40:   3015.89   0.004438   22.43  0.000459  (-0.012651 -0.017298  0.000012)
 41:   3109.78   0.001641    8.29  0.000165  ( 0.000006  0.000015  0.012833)
 42:   3117.79   0.000681    3.44  0.000068  (-0.005317  0.006312 -0.000002)
 43:   3153.00   0.000562    2.84  0.000056  (-0.006993  0.002599 -0.000000)
 44:   3159.40   0.000306    1.55  0.000030  ( 0.000275 -0.005495 -0.000002)
 45:   3168.69   0.003220   16.27  0.000317  (-0.002309  0.017659  0.000003)
 46:   3182.25   0.003649   18.44  0.000358  ( 0.018451  0.004174  0.000003)
 47:   3193.74   0.001301    6.58  0.000127  ( 0.000445 -0.011268 -0.000005)

--------------------------
THERMOCHEMISTRY AT 298.15K
--------------------------

Temperature         ...   298.15 K
Pressure            ...     1.00 atm
Total Mass          ...   124.20 AMU
Quasi RRHO          ...     True
Cut-Off Frequency   ...     1.00 cm^-1

Throughout the following assumptions are being made:
  (1) The electronic state is orbitally nondegenerate
  (2) There are no thermally accessible electronically excited states
  (3) Hindered rotations indicated by low frequency modes are not
      treated as such but are treated as vibrations and this may
      cause some error
  (4) All equations used are the standard statistical mechanics
      equations for an ideal gas
  (5) All vibrations are strictly harmonic

freq.      75.07  E(vib)   ...       0.49
freq.     179.34  E(vib)   ...       0.37
freq.     211.89  E(vib)   ...       0.34
freq.     257.93  E(vib)   ...       0.30
freq.     331.99  E(vib)   ...       0.24
freq.     408.08  E(vib)   ...       0.19
freq.     416.50  E(vib)   ...       0.18
freq.     479.76  E(vib)   ...       0.15
freq.     631.79  E(vib)   ...       0.09
freq.     685.08  E(vib)   ...       0.07
freq.     701.84  E(vib)   ...       0.07
freq.     711.28  E(vib)   ...       0.07
freq.     742.23  E(vib)   ...       0.06
freq.     830.65  E(vib)   ...       0.04
freq.     884.01  E(vib)   ...       0.04
freq.     945.06  E(vib)   ...       0.03
freq.     966.74  E(vib)   ...       0.03
freq.     971.57  E(vib)   ...       0.03
freq.     981.60  E(vib)   ...       0.02
freq.    1014.51  E(vib)   ...       0.02
freq.    1045.89  E(vib)   ...       0.02
freq.    1093.77  E(vib)   ...       0.02
freq.    1107.18  E(vib)   ...       0.02
freq.    1181.56  E(vib)   ...       0.01
freq.    1208.73  E(vib)   ...       0.01
freq.    1319.03  E(vib)   ...       0.01
freq.    1338.07  E(vib)   ...       0.01
freq.    1357.62  E(vib)   ...       0.01
freq.    1460.23  E(vib)   ...       0.00
freq.    1463.44  E(vib)   ...       0.00
freq.    1478.67  E(vib)   ...       0.00
freq.    1504.21  E(vib)   ...       0.00
freq.    1601.89  E(vib)   ...       0.00
freq.    1614.81  E(vib)   ...       0.00
freq.    3015.89  E(vib)   ...       0.00
freq.    3109.78  E(vib)   ...       0.00
freq.    3117.79  E(vib)   ...       0.00
freq.    3153.00  E(vib)   ...       0.00
freq.    3159.40  E(vib)   ...       0.00
freq.    3168.69  E(vib)   ...       0.00
freq.    3182.25  E(vib)   ...       0.00
freq.    3193.74  E(vib)   ...       0.00

------------
INNER ENERGY
------------

The inner energy is: U= E(el) + E(ZPE) + E(vib) + E(rot) + E(trans)
    E(el)   - is the total energy from the electronic structure calculation
              = E(kin-el) + E(nuc-el) + E(el-el) + E(nuc-nuc)
    E(ZPE)  - the the zero temperature vibrational energy from the frequency calculation
    E(vib)  - the the finite temperature correction to E(ZPE) due to population
              of excited vibrational states
    E(rot)  - is the rotational thermal energy
    E(trans)- is the translational thermal energy

Summary of contributions to the inner energy U:
Electronic energy                ...   -669.67687722 Eh
Zero point energy                ...      0.12826671 Eh      80.49 kcal/mol
Thermal vibrational correction   ...      0.00469259 Eh       2.94 kcal/mol
Thermal rotational correction    ...      0.00141627 Eh       0.89 kcal/mol
Thermal translational correction ...      0.00141627 Eh       0.89 kcal/mol
-----------------------------------------------------------------------
Total thermal energy                   -669.54108538 Eh

Summary of corrections to the electronic energy:
(perhaps to be used in another calculation)
Total thermal correction                  0.00752513 Eh       4.72 kcal/mol
Non-thermal (ZPE) correction              0.12826671 Eh      80.49 kcal/mol
-----------------------------------------------------------------------
Total correction                          0.13579185 Eh      85.21 kcal/mol

--------
ENTHALPY
--------

The enthalpy is H = U + kB*T
                kB is Boltzmann's constant
Total thermal energy              ...   -669.54108538 Eh
Thermal Enthalpy correction       ...      0.00094421 Eh       0.59 kcal/mol
-----------------------------------------------------------------------
Total Enthalpy                    ...   -669.54014117 Eh

Note: Only C1 symmetry has been detected, increase convergence thresholds
      if your molecule has a higher symmetry. Symmetry factor of 1.0 is
      used for the rotational entropy correction.

Note: Rotational entropy computed according to Herzberg
Infrared and Raman Spectra, Chapter V,1, Van Nostrand Reinhold, 1945
Point Group:  C1, Symmetry Number:   1
Rotational constants in cm-1:     0.140443     0.038732     0.030538

Vibrational entropy computed according to the QRRHO of S. Grimme
Chem.Eur.J. 2012 18 9955 using a reference frequency of 100.0 cm-1

-------
ENTROPY
-------

The entropy contributions are T*S = T*(S(el)+S(vib)+S(rot)+S(trans))
     S(el)   - electronic entropy
     S(vib)  - vibrational entropy
     S(rot)  - rotational entropy
     S(trans)- translational entropy
The entropies will be listed as multiplied by the temperature to get
units of energy

Electronic entropy                ...      0.00000000 Eh      0.00 kcal/mol
Vibrational entropy               ...      0.00762809 Eh      4.79 kcal/mol
Rotational entropy                ...      0.01361932 Eh      8.55 kcal/mol
Translational entropy             ...      0.01917819 Eh     12.03 kcal/mol
-----------------------------------------------------------------------
Final entropy term                ...      0.04042560 Eh     25.37 kcal/mol

In case the symmetry of your molecule has not been determined correctly
or in case you have a reason to use a different symmetry number we print
out the resulting rotational entropy values for sn=1,12:

 non-linear molecules -----------------------------------
|  sn= 1 | S(rot)=       0.01361932 Eh      8.55 kcal/mol|
|  sn= 2 | S(rot)=       0.01296487 Eh      8.14 kcal/mol|
|  sn= 3 | S(rot)=       0.01258203 Eh      7.90 kcal/mol|
|  sn= 4 | S(rot)=       0.01231041 Eh      7.72 kcal/mol|
|  sn= 5 | S(rot)=       0.01209972 Eh      7.59 kcal/mol|
|  sn= 6 | S(rot)=       0.01192758 Eh      7.48 kcal/mol|
|  sn= 7 | S(rot)=       0.01178203 Eh      7.39 kcal/mol|
|  sn= 8 | S(rot)=       0.01165595 Eh      7.31 kcal/mol|
|  sn= 9 | S(rot)=       0.01154475 Eh      7.24 kcal/mol|
|  sn=10 | S(rot)=       0.01144527 Eh      7.18 kcal/mol|
|  sn=11 | S(rot)=       0.01135528 Eh      7.13 kcal/mol|
|  sn=12 | S(rot)=       0.01127312 Eh      7.07 kcal/mol|
 linear molecules ---------------------------------------
|  Dinfh | S(rot)=       0.00861984 Eh      5.41 kcal/mol|
|  Cinfv | S(rot)=       0.00927429 Eh      5.82 kcal/mol|
 --------------------------------------------------------

                             ****ORCA TERMINATED NORMALLY****
TOTAL RUN TIME: 0 days 0 hours 10 minutes 14 seconds 488 msec
