                         Program Version 6.0.0  -   RELEASE  -
|  1> ! r2SCAN-3c DEF2-TZVP FREQ
|  2> * xyzfile 0 1 vacuum_censo.xyz
|  3>
|  4>                          ****END OF INPUT****

CARTESIAN COORDINATES (ANGSTROEM)
---------------------------------
  C     -2.686451   -0.967275   -0.001188
  S     -1.839504    0.644937    0.000407
  C     -0.120560    0.199658    0.000252
  C      0.796620    1.260108   -0.000251
  C      2.159860    1.004558   -0.000477
  C      2.635351   -0.305848   -0.000245
  C      1.726103   -1.356590    0.000326
  C      0.354243   -1.114170    0.000620
  H     -2.447072   -1.543335   -0.899240
  H     -3.754727   -0.739064   -0.002642
  H     -2.449623   -1.543950    0.897141
  H      0.434799    2.284113   -0.000533
  H      2.856728    1.836831   -0.000909
  H      3.701935   -0.502571   -0.000510
  H      2.080865   -2.382639    0.000562
  H     -0.329503   -1.954137    0.001164

 Total Charge           Charge          ....    0
 Multiplicity           Mult            ....    1
 Number of Electrons    NEL             ....   66
 Basis Dimension        Dim             ....  302

ORBITAL ENERGIES
----------------

  NO   OCC          E(Eh)            E(eV)
   0   2.0000     -88.540648     -2409.3135
   1   2.0000     -10.073054      -274.1017
   2   2.0000     -10.068305      -273.9725
   3   2.0000     -10.040678      -273.2207
   4   2.0000     -10.040222      -273.2083
   5   2.0000     -10.040030      -273.2031
   6   2.0000     -10.039574      -273.1907
   7   2.0000     -10.034370      -273.0491
   8   2.0000      -7.853379      -213.7013
   9   2.0000      -5.799718      -157.8183
  10   2.0000      -5.794878      -157.6866
  11   2.0000      -5.789874      -157.5505
  12   2.0000      -0.831294       -22.6207
  13   2.0000      -0.766067       -20.8457
  14   2.0000      -0.718378       -19.5481
  15   2.0000      -0.705577       -19.1997
  16   2.0000      -0.623243       -16.9593
  17   2.0000      -0.576801       -15.6955
  18   2.0000      -0.549360       -14.9488
  19   2.0000      -0.485505       -13.2113
  20   2.0000      -0.428871       -11.6702
  21   2.0000      -0.425254       -11.5718
  22   2.0000      -0.413966       -11.2646
  23   2.0000      -0.407414       -11.0863
  24   2.0000      -0.391818       -10.6619
  25   2.0000      -0.368282       -10.0215
  26   2.0000      -0.352653        -9.5962
  27   2.0000      -0.332111        -9.0372
  28   2.0000      -0.315946        -8.5973
  29   2.0000      -0.295664        -8.0454
  30   2.0000      -0.268861        -7.3161
  31   2.0000      -0.240381        -6.5411
  32   2.0000      -0.191901        -5.2219
  33   0.0000      -0.037645        -1.0244
  34   0.0000      -0.032923        -0.8959
  35   0.0000       0.002167         0.0590
  36   0.0000       0.040440         1.1004
  37   0.0000       0.066495         1.8094

MULLIKEN ATOMIC CHARGES
-----------------------
   0 C :   -0.334777
   1 S :   -0.048332
   2 C :    0.191738
   3 C :   -0.187838
   4 C :   -0.094040
   5 C :   -0.142902
   6 C :   -0.104785
   7 C :   -0.224125
   8 H :    0.131968
   9 H :    0.143779
  10 H :    0.131953
  11 H :    0.109168
  12 H :    0.109018
  13 H :    0.108971
  14 H :    0.108595
  15 H :    0.101610
Sum of atomic charges:    0.0000000

LOEWDIN ATOMIC CHARGES
----------------------
   0 C :   -0.502366
   1 S :    0.556276
   2 C :   -0.366164
   3 C :   -0.150301
   4 C :   -0.140638
   5 C :   -0.152505
   6 C :   -0.140652
   7 C :   -0.155648
   8 H :    0.108940
   9 H :    0.116746
  10 H :    0.108906
  11 H :    0.144409
  12 H :    0.144419
  13 H :    0.141977
  14 H :    0.143812
  15 H :    0.142788

  Mayer bond orders larger than 0.100000
B(  0-C ,  1-S ) :   1.0555 B(  0-C ,  8-H ) :   0.9558 B(  0-C ,  9-H ) :   0.9566
B(  0-C , 10-H ) :   0.9558 B(  1-S ,  2-C ) :   1.1456 B(  2-C ,  3-C ) :   1.3040
B(  2-C ,  7-C ) :   1.2863 B(  3-C ,  4-C ) :   1.4408 B(  3-C , 11-H ) :   0.9725
B(  4-C ,  5-C ) :   1.3682 B(  4-C , 12-H ) :   0.9714 B(  5-C ,  6-C ) :   1.4104
B(  5-C , 13-H ) :   0.9714 B(  6-C ,  7-C ) :   1.4010 B(  6-C , 14-H ) :   0.9644
B(  7-C , 15-H ) :   0.9744

Dispersion correction           -0.005494077
FINAL SINGLE POINT ENERGY      -669.676971478644

DIPOLE MOMENT
-------------

Method             : SCF
Type of density    : Electron Density
Multiplicity       :   1
Irrep              :   0
Energy             :  -669.6790499207337461 Eh
Relativity type    :
Basis              : AO
                                X                 Y                 Z
Electronic contribution:     -0.273761680       3.805198366       0.003841485
Nuclear contribution   :      0.167656756      -4.326197131      -0.004460395
                        -----------------------------------------
Total Dipole Moment    :     -0.106104924      -0.520998765      -0.000618909
                        -----------------------------------------
Magnitude (a.u.)       :      0.531693850
Magnitude (Debye)      :      1.351458366

VIBRATIONAL FREQUENCIES
-----------------------

Scaling factor for frequencies =  1.000000000  (already applied!)

     0:       0.00 cm**-1
     1:       0.00 cm**-1
     2:       0.00 cm**-1
     3:       0.00 cm**-1
     4:       0.00 cm**-1
     5:       0.00 cm**-1
     6:      72.35 cm**-1
     7:     177.78 cm**-1
     8:     210.87 cm**-1
     9:     259.26 cm**-1
    10:     333.04 cm**-1
    11:     405.67 cm**-1
    12:     417.10 cm**-1
    13:     477.39 cm**-1
    14:     632.06 cm**-1
    15:     686.98 cm**-1
    16:     700.39 cm**-1
    17:     712.89 cm**-1
    18:     741.63 cm**-1
    19:     830.15 cm**-1
    20:     883.54 cm**-1
    21:     944.93 cm**-1
    22:     966.91 cm**-1
    23:     973.11 cm**-1
    24:     982.35 cm**-1
    25:    1016.67 cm**-1
    26:    1048.54 cm**-1
    27:    1096.87 cm**-1
    28:    1108.80 cm**-1
    29:    1182.60 cm**-1
    30:    1210.00 cm**-1
    31:    1322.86 cm**-1
    32:    1340.84 cm**-1
    33:    1360.43 cm**-1
    34:    1460.24 cm**-1
    35:    1465.46 cm**-1
    36:    1479.83 cm**-1
    37:    1506.55 cm**-1
    38:    1606.09 cm**-1
    39:    1620.36 cm**-1
    40:    3012.81 cm**-1
    41:    3103.09 cm**-1
    42:    3120.56 cm**-1
    43:    3155.39 cm**-1
    44:    3161.42 cm**-1
    45:    3170.91 cm**-1
    46:    3184.83 cm**-1
    47:    3196.38 cm**-1

IR SPECTRUM
-----------

 Mode   freq       eps      Int      T**2         TX        TY        TZ
       cm**-1   L/(mol*cm) km/mol    a.u.
----------------------------------------------------------------------------
  6:     72.35   0.000433    2.19  0.001867  (-0.000088  0.000033  0.043204)
  7:    177.78   0.000018    0.09  0.000031  ( 0.000022 -0.000092 -0.005565)
  8:    210.87   0.000150    0.76  0.000222  ( 0.014395 -0.003846  0.000024)
  9:    259.26   0.000011    0.05  0.000013  (-0.000006  0.000077 -0.003589)
 10:    333.04   0.000246    1.24  0.000230  (-0.000894 -0.015146 -0.000014)
 11:    405.67   0.000003    0.02  0.000002  ( 0.000057  0.000034  0.001538)
 12:    417.10   0.000338    1.71  0.000253  (-0.015880  0.000719  0.000011)
 13:    477.39   0.001750    8.84  0.001144  ( 0.000037 -0.000096  0.033820)
 14:    632.06   0.000022    0.11  0.000011  ( 0.000201  0.003308 -0.000011)
 15:    686.98   0.001040    5.25  0.000472  (-0.020402  0.007481 -0.000002)
 16:    700.39   0.006340   32.04  0.002825  ( 0.000040  0.000018 -0.053150)
 17:    712.89   0.001861    9.41  0.000815  (-0.028498 -0.001636  0.000004)
 18:    741.63   0.008570   43.31  0.003606  ( 0.000050  0.000066 -0.060052)
 19:    830.15   0.000006    0.03  0.000002  (-0.000016 -0.000003 -0.001454)
 20:    883.54   0.000260    1.32  0.000092  (-0.000001  0.000026 -0.009589)
 21:    944.93   0.000001    0.00  0.000000  ( 0.000018 -0.000015  0.000453)
 22:    966.91   0.000057    0.29  0.000019  ( 0.000010 -0.000010 -0.004305)
 23:    973.11   0.000720    3.64  0.000231  (-0.000014  0.000027  0.015195)
 24:    982.35   0.000785    3.96  0.000249  (-0.004443  0.015149 -0.000036)
 25:   1016.67   0.000428    2.16  0.000131  (-0.008690  0.007464  0.000003)
 26:   1048.54   0.002463   12.45  0.000733  ( 0.027038 -0.001409 -0.000001)
 27:   1096.87   0.006044   30.54  0.001720  (-0.040535  0.008742  0.000005)
 28:   1108.80   0.000824    4.16  0.000232  ( 0.008453  0.012666 -0.000014)
 29:   1182.60   0.000102    0.52  0.000027  ( 0.001059 -0.005079  0.000001)
 30:   1210.00   0.000227    1.15  0.000059  ( 0.007073 -0.002922 -0.000009)
 31:   1322.86   0.000641    3.24  0.000151  ( 0.002736  0.011986 -0.000002)
 32:   1340.84   0.000238    1.20  0.000055  ( 0.006952 -0.002641 -0.000024)
 33:   1360.43   0.000207    1.04  0.000047  ( 0.006587  0.001998 -0.000003)
 34:   1460.24   0.001857    9.38  0.000397  ( 0.000025  0.000060  0.019919)
 35:   1465.46   0.001657    8.37  0.000353  ( 0.015197 -0.011036 -0.000004)
 36:   1479.83   0.004999   25.26  0.001054  (-0.029454 -0.013664  0.000004)
 37:   1506.55   0.006252   31.59  0.001295  ( 0.035555 -0.005555  0.000002)
 38:   1606.09   0.001053    5.32  0.000205  (-0.010166  0.010060 -0.000007)
 39:   1620.36   0.008490   42.91  0.001635  (-0.040433  0.000483 -0.000000)
 40:   3012.81   0.004527   22.88  0.000469  (-0.012563 -0.017638 -0.000008)
 41:   3103.09   0.001672    8.45  0.000168  ( 0.000012  0.000019 -0.012968)
 42:   3120.56   0.000667    3.37  0.000067  (-0.006042  0.005497  0.000003)
 43:   3155.39   0.000608    3.07  0.000060  ( 0.007338 -0.002498 -0.000000)
 44:   3161.42   0.000406    2.05  0.000040  (-0.000162  0.006328 -0.000003)
 45:   3170.91   0.003180   16.07  0.000313  ( 0.002193 -0.017553  0.000004)
 46:   3184.83   0.003639   18.39  0.000357  ( 0.018443  0.004050 -0.000006)
 47:   3196.38   0.001313    6.63  0.000128  ( 0.000196 -0.011319  0.000007)

--------------------------
THERMOCHEMISTRY AT 298.15K
--------------------------

Temperature         ...   298.15 K
Pressure            ...     1.00 atm
Total Mass          ...   124.20 AMU
Quasi RRHO          ...     True
Cut-Off Frequency   ...     1.00 cm^-1

Throughout the following assumptions are being made:
  (1) The electronic state is orbitally nondegenerate
  (2) There are no thermally accessible electronically excited states
  (3) Hindered rotations indicated by low frequency modes are not
      treated as such but are treated as vibrations and this may
      cause some error
  (4) All equations used are the standard statistical mechanics
      equations for an ideal gas
  (5) All vibrations are strictly harmonic

freq.      72.35  E(vib)   ...       0.50
freq.     177.78  E(vib)   ...       0.37
freq.     210.87  E(vib)   ...       0.34
freq.     259.26  E(vib)   ...       0.30
freq.     333.04  E(vib)   ...       0.24
freq.     405.67  E(vib)   ...       0.19
freq.     417.10  E(vib)   ...       0.18
freq.     477.39  E(vib)   ...       0.15
freq.     632.06  E(vib)   ...       0.09
freq.     686.98  E(vib)   ...       0.07
freq.     700.39  E(vib)   ...       0.07
freq.     712.89  E(vib)   ...       0.07
freq.     741.63  E(vib)   ...       0.06
freq.     830.15  E(vib)   ...       0.04
freq.     883.54  E(vib)   ...       0.04
freq.     944.93  E(vib)   ...       0.03
freq.     966.91  E(vib)   ...       0.03
freq.     973.11  E(vib)   ...       0.03
freq.     982.35  E(vib)   ...       0.02
freq.    1016.67  E(vib)   ...       0.02
freq.    1048.54  E(vib)   ...       0.02
freq.    1096.87  E(vib)   ...       0.02
freq.    1108.80  E(vib)   ...       0.02
freq.    1182.60  E(vib)   ...       0.01
freq.    1210.00  E(vib)   ...       0.01
freq.    1322.86  E(vib)   ...       0.01
freq.    1340.84  E(vib)   ...       0.01
freq.    1360.43  E(vib)   ...       0.01
freq.    1460.24  E(vib)   ...       0.00
freq.    1465.46  E(vib)   ...       0.00
freq.    1479.83  E(vib)   ...       0.00
freq.    1506.55  E(vib)   ...       0.00
freq.    1606.09  E(vib)   ...       0.00
freq.    1620.36  E(vib)   ...       0.00
freq.    3012.81  E(vib)   ...       0.00
freq.    3103.09  E(vib)   ...       0.00
freq.    3120.56  E(vib)   ...       0.00
freq.    3155.39  E(vib)   ...       0.00
freq.    3161.42  E(vib)   ...       0.00
freq.    3170.91  E(vib)   ...       0.00
freq.    3184.83  E(vib)   ...       0.00
freq.    3196.38  E(vib)   ...       0.00

------------
INNER ENERGY
------------

The inner energy is: U= E(el) + E(ZPE) + E(vib) + E(rot) + E(trans)
    E(el)   - is the total energy from the electronic structure calculation
              = E(kin-el) + E(nuc-el) + E(el-el) + E(nuc-nuc)
    E(ZPE)  - the the zero temperature vibrational energy from the frequency calculation
    E(vib)  - the the finite temperature correction to E(ZPE) due to population
              of excited vibrational states
    E(rot)  - is the rotational thermal energy
    E(trans)- is the translational thermal energy

Summary of contributions to the inner energy U:
Electronic energy                ...   -669.67697148 Eh
Zero point energy                ...      0.12835184 Eh      80.54 kcal/mol
Thermal vibrational correction   ...      0.00469999 Eh       2.95 kcal/mol
Thermal rotational correction    ...      0.00141627 Eh       0.89 kcal/mol
Thermal translational correction ...      0.00141627 Eh       0.89 kcal/mol
-----------------------------------------------------------------------
Total thermal energy                   -669.54108711 Eh

Summary of corrections to the electronic energy:
(perhaps to be used in another calculation)
Total thermal correction                  0.00753253 Eh       4.73 kcal/mol
Non-thermal (ZPE) correction              0.12835184 Eh      80.54 kcal/mol
-----------------------------------------------------------------------
Total correction                          0.13588437 Eh      85.27 kcal/mol

--------
ENTHALPY
--------

The enthalpy is H = U + kB*T
                kB is Boltzmann's constant
Total thermal energy              ...   -669.54108711 Eh
Thermal Enthalpy correction       ...      0.00094421 Eh       0.59 kcal/mol
-----------------------------------------------------------------------
Total Enthalpy                    ...   -669.54014290 Eh

Note: Only C1 symmetry has been detected, increase convergence thresholds
      if your molecule has a higher symmetry. Symmetry factor of 1.0 is
      used for the rotational entropy correction.

Note: Rotational entropy computed according to Herzberg
Infrared and Raman Spectra, Chapter V,1, Van Nostrand Reinhold, 1945
Point Group:  C1, Symmetry Number:   1
Rotational constants in cm-1:     0.140666     0.038813     0.030599

Vibrational entropy computed according to the QRRHO of S. Grimme
Chem.Eur.J. 2012 18 9955 using a reference frequency of 100.0 cm-1

-------
ENTROPY
-------

The entropy contributions are T*S = T*(S(el)+S(vib)+S(rot)+S(trans))
     S(el)   - electronic entropy
     S(vib)  - vibrational entropy
     S(rot)  - rotational entropy
     S(trans)- translational entropy
The entropies will be listed as multiplied by the temperature to get
units of energy

Electronic entropy                ...      0.00000000 Eh      0.00 kcal/mol
Vibrational entropy               ...      0.00764581 Eh      4.80 kcal/mol
Rotational entropy                ...      0.01361666 Eh      8.54 kcal/mol
Translational entropy             ...      0.01917819 Eh     12.03 kcal/mol
-----------------------------------------------------------------------
Final entropy term                ...      0.04044066 Eh     25.38 kcal/mol

In case the symmetry of your molecule has not been determined correctly
or in case you have a reason to use a different symmetry number we print
out the resulting rotational entropy values for sn=1,12:

 non-linear molecules -----------------------------------
|  sn= 1 | S(rot)=       0.01361666 Eh      8.54 kcal/mol|
|  sn= 2 | S(rot)=       0.01296220 Eh      8.13 kcal/mol|
|  sn= 3 | S(rot)=       0.01257937 Eh      7.89 kcal/mol|
|  sn= 4 | S(rot)=       0.01230775 Eh      7.72 kcal/mol|
|  sn= 5 | S(rot)=       0.01209706 Eh      7.59 kcal/mol|
|  sn= 6 | S(rot)=       0.01192491 Eh      7.48 kcal/mol|
|  sn= 7 | S(rot)=       0.01177937 Eh      7.39 kcal/mol|
|  sn= 8 | S(rot)=       0.01165329 Eh      7.31 kcal/mol|
|  sn= 9 | S(rot)=       0.01154208 Eh      7.24 kcal/mol|
|  sn=10 | S(rot)=       0.01144260 Eh      7.18 kcal/mol|
|  sn=11 | S(rot)=       0.01135261 Eh      7.12 kcal/mol|
|  sn=12 | S(rot)=       0.01127046 Eh      7.07 kcal/mol|
 linear molecules ---------------------------------------
|  Dinfh | S(rot)=       0.00861797 Eh      5.41 kcal/mol|
|  Cinfv | S(rot)=       0.00927242 Eh      5.82 kcal/mol|
 --------------------------------------------------------

                             ****ORCA TERMINATED NORMALLY****
TOTAL RUN TIME: 0 days 0 hours 10 minutes 13 seconds 357 msec
