                         Program Version 6.0.0  -   RELEASE  -
|  1> ! r2SCAN-3c DEF2-TZVP FREQ
|  2> * xyzfile 0 1 censo.xyz
|  3>
|  4>                          ****END OF INPUT****

CARTESIAN COORDINATES (ANGSTROEM)
---------------------------------
  C     -1.247369    0.967066   -1.260100
  C     -1.006523    0.118722    0.000052
  C     -1.941907   -1.090526    0.000064
  C     -1.247013    0.966821    1.260413
  C      0.437167   -0.365621   -0.000591
  O      0.792291   -1.532749   -0.002201
  O      1.313969    0.656244    0.001015
  C      2.716895    0.287796    0.000502
  H     -1.039338    0.389632   -2.166982
  H     -2.296997    1.276638   -1.284736
  H     -0.623700    1.864574   -1.266241
  H     -2.978799   -0.741778    0.000071
  H     -1.787674   -1.711155    0.887462
  H     -1.787700   -1.711175   -0.887315
  H     -1.037693    0.389553    2.167101
  H     -0.624134    1.864867    1.266055
  H     -2.296881    1.275485    1.285987
  H      2.955518   -0.287725   -0.897029
  H      2.954613   -0.294154    0.894101
  H      3.262676    1.230494    0.004124

 Total Charge           Charge          ....    0
 Multiplicity           Mult            ....    1
 Number of Electrons    NEL             ....   64
 Basis Dimension        Dim             ....  320

ORBITAL ENERGIES
----------------

  NO   OCC          E(Eh)            E(eV)
   0   2.0000     -18.999455      -517.0015
   1   2.0000     -18.932461      -515.1785
   2   2.0000     -10.150374      -276.2057
   3   2.0000     -10.087972      -274.5077
   4   2.0000     -10.061055      -273.7752
   5   2.0000     -10.028765      -272.8966
   6   2.0000     -10.028748      -272.8961
   7   2.0000     -10.019511      -272.6448
   8   2.0000      -1.063732       -28.9456
   9   2.0000      -0.971416       -26.4336
  10   2.0000      -0.794135       -21.6095
  11   2.0000      -0.695534       -18.9264
  12   2.0000      -0.661025       -17.9874
  13   2.0000      -0.653251       -17.7759
  14   2.0000      -0.581585       -15.8257
  15   2.0000      -0.514145       -13.9906
  16   2.0000      -0.461500       -12.5581
  17   2.0000      -0.450778       -12.2663
  18   2.0000      -0.441117       -12.0034
  19   2.0000      -0.412760       -11.2318
  20   2.0000      -0.405289       -11.0285
  21   2.0000      -0.400543       -10.8993
  22   2.0000      -0.373045       -10.1511
  23   2.0000      -0.360447        -9.8083
  24   2.0000      -0.346354        -9.4248
  25   2.0000      -0.341010        -9.2793
  26   2.0000      -0.337367        -9.1802
  27   2.0000      -0.319188        -8.6855
  28   2.0000      -0.307268        -8.3612
  29   2.0000      -0.304692        -8.2911
  30   2.0000      -0.275438        -7.4950
  31   2.0000      -0.234624        -6.3844
  32   0.0000      -0.019019        -0.5175
  33   0.0000       0.033330         0.9070
  34   0.0000       0.068148         1.8544
  35   0.0000       0.071944         1.9577
  36   0.0000       0.090447         2.4612

MULLIKEN ATOMIC CHARGES
-----------------------
   0 C :   -0.376753
   1 C :    0.191542
   2 C :   -0.330908
   3 C :   -0.376611
   4 C :    0.280536
   5 O :   -0.356114
   6 O :   -0.264182
   7 C :   -0.160480
   8 H :    0.116908
   9 H :    0.108759
  10 H :    0.122414
  11 H :    0.104592
  12 H :    0.113992
  13 H :    0.114070
  14 H :    0.116858
  15 H :    0.122387
  16 H :    0.108740
  17 H :    0.122660
  18 H :    0.122757
  19 H :    0.118835
Sum of atomic charges:   -0.0000000

LOEWDIN ATOMIC CHARGES
----------------------
   0 C :   -0.249179
   1 C :   -0.332621
   2 C :   -0.249417
   3 C :   -0.249202
   4 C :   -0.434653
   5 O :    0.097728
   6 O :    0.239091
   7 C :   -0.290515
   8 H :    0.126676
   9 H :    0.125522
  10 H :    0.125188
  11 H :    0.122350
  12 H :    0.127904
  13 H :    0.127917
  14 H :    0.126663
  15 H :    0.125185
  16 H :    0.125513
  17 H :    0.112767
  18 H :    0.112791
  19 H :    0.110291

  Mayer bond orders larger than 0.100000
B(  0-C ,  1-C ) :   0.9319 B(  0-C ,  8-H ) :   0.9725 B(  0-C ,  9-H ) :   0.9689
B(  0-C , 10-H ) :   0.9680 B(  1-C ,  2-C ) :   0.9687 B(  1-C ,  3-C ) :   0.9320
B(  1-C ,  4-C ) :   0.9359 B(  2-C , 11-H ) :   0.9738 B(  2-C , 12-H ) :   0.9651
B(  2-C , 13-H ) :   0.9651 B(  3-C , 14-H ) :   0.9725 B(  3-C , 15-H ) :   0.9680
B(  3-C , 16-H ) :   0.9689 B(  4-C ,  5-O ) :   1.9887 B(  4-C ,  6-O ) :   1.1707
B(  6-O ,  7-C ) :   0.8917 B(  7-C , 17-H ) :   0.9724 B(  7-C , 18-H ) :   0.9724
B(  7-C , 19-H ) :   0.9708

Dispersion correction           -0.005642673
FINAL SINGLE POINT ENERGY      -386.261668191393

DIPOLE MOMENT
-------------

Method             : SCF
Type of density    : Electron Density
Multiplicity       :   1
Irrep              :   0
Energy             :  -386.2683084965631224 Eh
Relativity type    :
Basis              : AO
                                X                 Y                 Z
Electronic contribution:      5.085627866      -2.536994201      -0.002667573
Nuclear contribution   :     -5.025377673       3.296472354       0.003611006
                        -----------------------------------------
Total Dipole Moment    :      0.060250193       0.759478152       0.000943434
                        -----------------------------------------
Magnitude (a.u.)       :      0.761864844
Magnitude (Debye)      :      1.936506536

VIBRATIONAL FREQUENCIES
-----------------------

Scaling factor for frequencies =  1.000000000  (already applied!)

     0:       0.00 cm**-1
     1:       0.00 cm**-1
     2:       0.00 cm**-1
     3:       0.00 cm**-1
     4:       0.00 cm**-1
     5:       0.00 cm**-1
     6:      61.66 cm**-1
     7:     136.54 cm**-1
     8:     160.70 cm**-1
     9:     205.75 cm**-1
    10:     222.90 cm**-1
    11:     270.58 cm**-1
    12:     278.77 cm**-1
    13:     306.80 cm**-1
    14:     325.24 cm**-1
    15:     347.08 cm**-1
    16:     370.88 cm**-1
    17:     388.75 cm**-1
    18:     496.93 cm**-1
    19:     591.78 cm**-1
    20:     783.78 cm**-1
    21:     796.59 cm**-1
    22:     871.67 cm**-1
    23:     945.52 cm**-1
    24:     948.75 cm**-1
    25:     965.34 cm**-1
    26:     973.52 cm**-1
    27:    1047.27 cm**-1
    28:    1051.40 cm**-1
    29:    1165.13 cm**-1
    30:    1177.21 cm**-1
    31:    1202.73 cm**-1
    32:    1226.59 cm**-1
    33:    1246.58 cm**-1
    34:    1303.58 cm**-1
    35:    1383.34 cm**-1
    36:    1391.33 cm**-1
    37:    1421.57 cm**-1
    38:    1458.09 cm**-1
    39:    1468.12 cm**-1
    40:    1476.58 cm**-1
    41:    1476.84 cm**-1
    42:    1480.86 cm**-1
    43:    1483.57 cm**-1
    44:    1493.95 cm**-1
    45:    1495.42 cm**-1
    46:    1517.50 cm**-1
    47:    1711.18 cm**-1
    48:    3008.12 cm**-1
    49:    3009.29 cm**-1
    50:    3017.06 cm**-1
    51:    3030.49 cm**-1
    52:    3084.82 cm**-1
    53:    3085.71 cm**-1
    54:    3096.39 cm**-1
    55:    3101.62 cm**-1
    56:    3103.33 cm**-1
    57:    3105.75 cm**-1
    58:    3119.35 cm**-1
    59:    3146.52 cm**-1

IR SPECTRUM
-----------

 Mode   freq       eps      Int      T**2         TX        TY        TZ
       cm**-1   L/(mol*cm) km/mol    a.u.
----------------------------------------------------------------------------
  6:     61.66   0.000178    0.90  0.000902  ( 0.000064 -0.000260  0.030031)
  7:    136.54   0.000333    1.68  0.000762  (-0.000160  0.000471  0.027598)
  8:    160.70   0.000062    0.31  0.000121  ( 0.000194 -0.000329  0.010971)
  9:    205.75   0.000423    2.14  0.000642  ( 0.004002  0.025016 -0.000107)
 10:    222.90   0.000118    0.60  0.000165  ( 0.000040  0.000116  0.012860)
 11:    270.58   0.000456    2.30  0.000526  ( 0.000008 -0.000014 -0.022928)
 12:    278.77   0.000002    0.01  0.000002  (-0.001193 -0.000521  0.000042)
 13:    306.80   0.000262    1.32  0.000266  (-0.000009 -0.000036 -0.016324)
 14:    325.24   0.001246    6.30  0.001196  (-0.024553 -0.024354  0.000036)
 15:    347.08   0.000010    0.05  0.000009  ( 0.002581 -0.001457 -0.000016)
 16:    370.88   0.002006   10.14  0.001688  (-0.039406 -0.011623  0.000055)
 17:    388.75   0.000174    0.88  0.000139  ( 0.000019  0.000001  0.011802)
 18:    496.93   0.000518    2.62  0.000325  ( 0.009318 -0.015444 -0.000028)
 19:    591.78   0.000312    1.58  0.000165  (-0.012123  0.004200  0.000001)
 20:    783.78   0.000685    3.46  0.000273  (-0.000001  0.000045  0.016511)
 21:    796.59   0.000326    1.65  0.000128  ( 0.000747 -0.011270 -0.000036)
 22:    871.67   0.003002   15.17  0.001075  ( 0.022818 -0.023537 -0.000008)
 23:    945.52   0.000183    0.92  0.000060  ( 0.000003 -0.000030 -0.007771)
 24:    948.75   0.000697    3.52  0.000229  ( 0.013116  0.007570  0.000007)
 25:    965.34   0.000000    0.00  0.000000  ( 0.000004  0.000003 -0.000030)
 26:    973.52   0.003056   15.44  0.000980  ( 0.030134 -0.008460 -0.000022)
 27:   1047.27   0.000010    0.05  0.000003  ( 0.000123  0.000062  0.001710)
 28:   1051.40   0.003213   16.24  0.000954  ( 0.029991  0.007358  0.000012)
 29:   1165.13   0.000157    0.80  0.000042  (-0.000525 -0.000068 -0.006470)
 30:   1177.21   0.039525  199.74  0.010477  ( 0.099284  0.024905 -0.000011)
 31:   1202.73   0.022155  111.96  0.005748  (-0.069554 -0.030177 -0.000091)
 32:   1226.59   0.000503    2.54  0.000128  (-0.000012 -0.000052  0.011317)
 33:   1246.58   0.000644    3.25  0.000161  ( 0.004202  0.011980  0.000015)
 34:   1303.58   0.012577   63.56  0.003011  (-0.048243 -0.026141 -0.000050)
 35:   1383.34   0.001356    6.85  0.000306  ( 0.000013 -0.000008  0.017492)
 36:   1391.33   0.000967    4.88  0.000217  (-0.001067  0.014685  0.000020)
 37:   1421.57   0.002150   10.86  0.000472  (-0.019342 -0.009890 -0.000007)
 38:   1458.09   0.002337   11.81  0.000500  (-0.022157  0.003027 -0.000037)
 39:   1468.12   0.000005    0.02  0.000001  ( 0.000005 -0.000000 -0.001019)
 40:   1476.58   0.000027    0.14  0.000006  (-0.001135 -0.002103  0.000294)
 41:   1476.84   0.001754    8.86  0.000371  ( 0.000028  0.000149  0.019251)
 42:   1480.86   0.000019    0.10  0.000004  (-0.000054 -0.000040 -0.002010)
 43:   1483.57   0.001517    7.66  0.000319  ( 0.012215  0.013030 -0.000188)
 44:   1493.95   0.001601    8.09  0.000334  ( 0.000019  0.000043  0.018287)
 45:   1495.42   0.002109   10.66  0.000440  (-0.002975 -0.020765  0.000042)
 46:   1517.50   0.006358   32.13  0.001308  (-0.036113  0.001841 -0.000002)
 47:   1711.18   0.043115  217.89  0.007863  ( 0.012092 -0.087844 -0.000111)
 48:   3008.12   0.006760   34.16  0.000701  (-0.000126  0.000364 -0.026479)
 49:   3009.29   0.003000   15.16  0.000311  ( 0.004604 -0.017016 -0.000563)
 50:   3017.06   0.004798   24.25  0.000496  (-0.021271 -0.006620  0.000061)
 51:   3030.49   0.006339   32.04  0.000653  ( 0.025537 -0.000791 -0.000105)
 52:   3084.82   0.001749    8.84  0.000177  ( 0.000287 -0.000192 -0.013296)
 53:   3085.71   0.003978   20.10  0.000402  ( 0.016971 -0.010689  0.000200)
 54:   3096.39   0.008088   40.88  0.000815  (-0.022225  0.017922 -0.000106)
 55:   3101.62   0.001187    6.00  0.000119  (-0.000220 -0.000068  0.010925)
 56:   3103.33   0.003527   17.82  0.000355  (-0.000219 -0.000282 -0.018829)
 57:   3105.75   0.007368   37.23  0.000740  ( 0.019234  0.019244 -0.000159)
 58:   3119.35   0.003522   17.80  0.000352  (-0.000013  0.000101  0.018771)
 59:   3146.52   0.002867   14.49  0.000284  ( 0.007087  0.015299  0.000067)

--------------------------
THERMOCHEMISTRY AT 298.15K
--------------------------

Temperature         ...   298.15 K
Pressure            ...     1.00 atm
Total Mass          ...   116.16 AMU
Quasi RRHO          ...     True
Cut-Off Frequency   ...     1.00 cm^-1

Throughout the following assumptions are being made:
  (1) The electronic state is orbitally nondegenerate
  (2) There are no thermally accessible electronically excited states
  (3) Hindered rotations indicated by low frequency modes are not
      treated as such but are treated as vibrations and this may
      cause some error
  (4) All equations used are the standard statistical mechanics
      equations for an ideal gas
  (5) All vibrations are strictly harmonic

freq.      61.66  E(vib)   ...       0.51
freq.     136.54  E(vib)   ...       0.42
freq.     160.70  E(vib)   ...       0.39
freq.     205.75  E(vib)   ...       0.35
freq.     222.90  E(vib)   ...       0.33
freq.     270.58  E(vib)   ...       0.29
freq.     278.77  E(vib)   ...       0.28
freq.     306.80  E(vib)   ...       0.26
freq.     325.24  E(vib)   ...       0.24
freq.     347.08  E(vib)   ...       0.23
freq.     370.88  E(vib)   ...       0.21
freq.     388.75  E(vib)   ...       0.20
freq.     496.93  E(vib)   ...       0.14
freq.     591.78  E(vib)   ...       0.10
freq.     783.78  E(vib)   ...       0.05
freq.     796.59  E(vib)   ...       0.05
freq.     871.67  E(vib)   ...       0.04
freq.     945.52  E(vib)   ...       0.03
freq.     948.75  E(vib)   ...       0.03
freq.     965.34  E(vib)   ...       0.03
freq.     973.52  E(vib)   ...       0.03
freq.    1047.27  E(vib)   ...       0.02
freq.    1051.40  E(vib)   ...       0.02
freq.    1165.13  E(vib)   ...       0.01
freq.    1177.21  E(vib)   ...       0.01
freq.    1202.73  E(vib)   ...       0.01
freq.    1226.59  E(vib)   ...       0.01
freq.    1246.58  E(vib)   ...       0.01
freq.    1303.58  E(vib)   ...       0.01
freq.    1383.34  E(vib)   ...       0.00
freq.    1391.33  E(vib)   ...       0.00
freq.    1421.57  E(vib)   ...       0.00
freq.    1458.09  E(vib)   ...       0.00
freq.    1468.12  E(vib)   ...       0.00
freq.    1476.58  E(vib)   ...       0.00
freq.    1476.84  E(vib)   ...       0.00
freq.    1480.86  E(vib)   ...       0.00
freq.    1483.57  E(vib)   ...       0.00
freq.    1493.95  E(vib)   ...       0.00
freq.    1495.42  E(vib)   ...       0.00
freq.    1517.50  E(vib)   ...       0.00
freq.    1711.18  E(vib)   ...       0.00
freq.    3008.12  E(vib)   ...       0.00
freq.    3009.29  E(vib)   ...       0.00
freq.    3017.06  E(vib)   ...       0.00
freq.    3030.49  E(vib)   ...       0.00
freq.    3084.82  E(vib)   ...       0.00
freq.    3085.71  E(vib)   ...       0.00
freq.    3096.39  E(vib)   ...       0.00
freq.    3101.62  E(vib)   ...       0.00
freq.    3103.33  E(vib)   ...       0.00
freq.    3105.75  E(vib)   ...       0.00
freq.    3119.35  E(vib)   ...       0.00
freq.    3146.52  E(vib)   ...       0.00

------------
INNER ENERGY
------------

The inner energy is: U= E(el) + E(ZPE) + E(vib) + E(rot) + E(trans)
    E(el)   - is the total energy from the electronic structure calculation
              = E(kin-el) + E(nuc-el) + E(el-el) + E(nuc-nuc)
    E(ZPE)  - the the zero temperature vibrational energy from the frequency calculation
    E(vib)  - the the finite temperature correction to E(ZPE) due to population
              of excited vibrational states
    E(rot)  - is the rotational thermal energy
    E(trans)- is the translational thermal energy

Summary of contributions to the inner energy U:
Electronic energy                ...   -386.26166819 Eh
Zero point energy                ...      0.17322465 Eh     108.70 kcal/mol
Thermal vibrational correction   ...      0.00692498 Eh       4.35 kcal/mol
Thermal rotational correction    ...      0.00141627 Eh       0.89 kcal/mol
Thermal translational correction ...      0.00141627 Eh       0.89 kcal/mol
-----------------------------------------------------------------------
Total thermal energy                   -386.07868602 Eh

Summary of corrections to the electronic energy:
(perhaps to be used in another calculation)
Total thermal correction                  0.00975752 Eh       6.12 kcal/mol
Non-thermal (ZPE) correction              0.17322465 Eh     108.70 kcal/mol
-----------------------------------------------------------------------
Total correction                          0.18298217 Eh     114.82 kcal/mol

--------
ENTHALPY
--------

The enthalpy is H = U + kB*T
                kB is Boltzmann's constant
Total thermal energy              ...   -386.07868602 Eh
Thermal Enthalpy correction       ...      0.00094421 Eh       0.59 kcal/mol
-----------------------------------------------------------------------
Total Enthalpy                    ...   -386.07774181 Eh

Note: Only C1 symmetry has been detected, increase convergence thresholds
      if your molecule has a higher symmetry. Symmetry factor of 1.0 is
      used for the rotational entropy correction.

Note: Rotational entropy computed according to Herzberg
Infrared and Raman Spectra, Chapter V,1, Van Nostrand Reinhold, 1945
Point Group:  C1, Symmetry Number:   1
Rotational constants in cm-1:     0.105282     0.049851     0.043957

Vibrational entropy computed according to the QRRHO of S. Grimme
Chem.Eur.J. 2012 18 9955 using a reference frequency of 100.0 cm-1

-------
ENTROPY
-------

The entropy contributions are T*S = T*(S(el)+S(vib)+S(rot)+S(trans))
     S(el)   - electronic entropy
     S(vib)  - vibrational entropy
     S(rot)  - rotational entropy
     S(trans)- translational entropy
The entropies will be listed as multiplied by the temperature to get
units of energy

Electronic entropy                ...      0.00000000 Eh      0.00 kcal/mol
Vibrational entropy               ...      0.01168928 Eh      7.34 kcal/mol
Rotational entropy                ...      0.01346427 Eh      8.45 kcal/mol
Translational entropy             ...      0.01908340 Eh     11.97 kcal/mol
-----------------------------------------------------------------------
Final entropy term                ...      0.04423694 Eh     27.76 kcal/mol

In case the symmetry of your molecule has not been determined correctly
or in case you have a reason to use a different symmetry number we print
out the resulting rotational entropy values for sn=1,12:

 non-linear molecules -----------------------------------
|  sn= 1 | S(rot)=       0.01346427 Eh      8.45 kcal/mol|
|  sn= 2 | S(rot)=       0.01280981 Eh      8.04 kcal/mol|
|  sn= 3 | S(rot)=       0.01242698 Eh      7.80 kcal/mol|
|  sn= 4 | S(rot)=       0.01215535 Eh      7.63 kcal/mol|
|  sn= 5 | S(rot)=       0.01194467 Eh      7.50 kcal/mol|
|  sn= 6 | S(rot)=       0.01177252 Eh      7.39 kcal/mol|

                             ****ORCA TERMINATED NORMALLY****
TOTAL RUN TIME: 0 days 0 hours 15 minutes 43 seconds 60 msec
