                         Program Version 6.0.0  -   RELEASE  -
|  1> ! r2SCAN-3c DEF2-TZVP FREQ
|  2> * xyzfile 0 1 vacuum_censo.xyz
|  3>
|  4>                          ****END OF INPUT****

CARTESIAN COORDINATES (ANGSTROEM)
---------------------------------
  C     -1.250221   -0.967122    1.258818
  C     -1.008603   -0.116057    0.000120
  C     -1.936425    1.100008    0.000845
  C     -1.250367   -0.965738   -1.259479
  C      0.438461    0.372366    0.000390
  O      0.794714    1.527752    0.001330
  O      1.310392   -0.666986   -0.000480
  C      2.702525   -0.289379   -0.000190
  H     -1.062125   -0.385073    2.166769
  H     -2.294052   -1.296997    1.278124
  H     -0.606721   -1.849831    1.272256
  H     -1.768585    1.721327    0.883994
  H     -2.978167    0.764485    0.000330
  H     -1.768147    1.722711   -0.881244
  H     -2.294151   -1.295754   -1.278908
  H     -1.062572   -0.382648   -2.166823
  H     -0.606742   -1.848336   -1.274054
  H      2.938109    0.297279    0.891585
  H      2.936953    0.303180   -0.888331
  H      3.258958   -1.226651   -0.003574

 Total Charge           Charge          ....    0
 Multiplicity           Mult            ....    1
 Number of Electrons    NEL             ....   64
 Basis Dimension        Dim             ....  320

ORBITAL ENERGIES
----------------

  NO   OCC          E(Eh)            E(eV)
   0   2.0000     -18.998427      -516.9735
   1   2.0000     -18.935755      -515.2681
   2   2.0000     -10.150670      -276.2138
   3   2.0000     -10.086076      -274.4561
   4   2.0000     -10.061126      -273.7771
   5   2.0000     -10.028467      -272.8884
   6   2.0000     -10.028461      -272.8883
   7   2.0000     -10.019433      -272.6426
   8   2.0000      -1.064405       -28.9639
   9   2.0000      -0.977686       -26.6042
  10   2.0000      -0.793510       -21.5925
  11   2.0000      -0.693028       -18.8582
  12   2.0000      -0.660612       -17.9762
  13   2.0000      -0.653615       -17.7858
  14   2.0000      -0.580457       -15.7950
  15   2.0000      -0.514101       -13.9894
  16   2.0000      -0.461833       -12.5671
  17   2.0000      -0.450423       -12.2566
  18   2.0000      -0.442301       -12.0356
  19   2.0000      -0.412079       -11.2132
  20   2.0000      -0.406706       -11.0670
  21   2.0000      -0.399926       -10.8825
  22   2.0000      -0.372320       -10.1313
  23   2.0000      -0.361803        -9.8451
  24   2.0000      -0.346914        -9.4400
  25   2.0000      -0.341202        -9.2846
  26   2.0000      -0.337219        -9.1762
  27   2.0000      -0.320758        -8.7283
  28   2.0000      -0.307088        -8.3563
  29   2.0000      -0.305052        -8.3009
  30   2.0000      -0.275767        -7.5040
  31   2.0000      -0.237517        -6.4632
  32   0.0000      -0.019014        -0.5174
  33   0.0000       0.033587         0.9140
  34   0.0000       0.068990         1.8773
  35   0.0000       0.074730         2.0335
  36   0.0000       0.091023         2.4769

MULLIKEN ATOMIC CHARGES
-----------------------
   0 C :   -0.376673
   1 C :    0.188967
   2 C :   -0.331855
   3 C :   -0.376666
   4 C :    0.276915
   5 O :   -0.340781
   6 O :   -0.268022
   7 C :   -0.160064
   8 H :    0.115847
   9 H :    0.108915
  10 H :    0.123435
  11 H :    0.113618
  12 H :    0.105405
  13 H :    0.113631
  14 H :    0.108905
  15 H :    0.115838
  16 H :    0.123437
  17 H :    0.120428
  18 H :    0.120543
  19 H :    0.118178
Sum of atomic charges:   -0.0000000

LOEWDIN ATOMIC CHARGES
----------------------
   0 C :   -0.249846
   1 C :   -0.331082
   2 C :   -0.250093
   3 C :   -0.249854
   4 C :   -0.434094
   5 O :    0.114773
   6 O :    0.233618
   7 C :   -0.299471
   8 H :    0.126238
   9 H :    0.125227
  10 H :    0.125382
  11 H :    0.127614
  12 H :    0.122408
  13 H :    0.127616
  14 H :    0.125223
  15 H :    0.126235
  16 H :    0.125381
  17 H :    0.112193
  18 H :    0.112223
  19 H :    0.110309

  Mayer bond orders larger than 0.100000
B(  0-C ,  1-C ) :   0.9332 B(  0-C ,  8-H ) :   0.9724 B(  0-C ,  9-H ) :   0.9687
B(  0-C , 10-H ) :   0.9678 B(  1-C ,  2-C ) :   0.9688 B(  1-C ,  3-C ) :   0.9332
B(  1-C ,  4-C ) :   0.9348 B(  2-C , 11-H ) :   0.9652 B(  2-C , 12-H ) :   0.9738
B(  2-C , 13-H ) :   0.9652 B(  3-C , 14-H ) :   0.9687 B(  3-C , 15-H ) :   0.9724
B(  3-C , 16-H ) :   0.9678 B(  4-C ,  5-O ) :   2.0024 B(  4-C ,  6-O ) :   1.1569
B(  6-O ,  7-C ) :   0.8973 B(  7-C , 17-H ) :   0.9731 B(  7-C , 18-H ) :   0.9730
B(  7-C , 19-H ) :   0.9709

Dispersion correction           -0.005648053
FINAL SINGLE POINT ENERGY      -386.262041855425

DIPOLE MOMENT
-------------

Method             : SCF
Type of density    : Electron Density
Multiplicity       :   1
Irrep              :   0
Energy             :  -386.2687226307249944 Eh
Relativity type    :
Basis              : AO
                                X                 Y                 Z
Electronic contribution:      5.051932927       2.520489178       0.001223303
Nuclear contribution   :     -5.011061376      -3.235707835      -0.001793792
                        -----------------------------------------
Total Dipole Moment    :      0.040871552      -0.715218657      -0.000570489
                        -----------------------------------------
Magnitude (a.u.)       :      0.716385746
Magnitude (Debye)      :      1.820907856

VIBRATIONAL FREQUENCIES
-----------------------

Scaling factor for frequencies =  1.000000000  (already applied!)

     0:       0.00 cm**-1
     1:       0.00 cm**-1
     2:       0.00 cm**-1
     3:       0.00 cm**-1
     4:       0.00 cm**-1
     5:       0.00 cm**-1
     6:      50.92 cm**-1
     7:     132.06 cm**-1
     8:     166.43 cm**-1
     9:     208.12 cm**-1
    10:     217.79 cm**-1
    11:     266.63 cm**-1
    12:     277.14 cm**-1
    13:     302.32 cm**-1
    14:     326.03 cm**-1
    15:     346.97 cm**-1
    16:     370.76 cm**-1
    17:     384.98 cm**-1
    18:     496.59 cm**-1
    19:     588.27 cm**-1
    20:     776.88 cm**-1
    21:     792.42 cm**-1
    22:     867.59 cm**-1
    23:     941.84 cm**-1
    24:     948.01 cm**-1
    25:     962.65 cm**-1
    26:     989.54 cm**-1
    27:    1046.90 cm**-1
    28:    1052.02 cm**-1
    29:    1161.94 cm**-1
    30:    1169.22 cm**-1
    31:    1203.84 cm**-1
    32:    1224.94 cm**-1
    33:    1246.68 cm**-1
    34:    1294.12 cm**-1
    35:    1382.93 cm**-1
    36:    1389.94 cm**-1
    37:    1420.51 cm**-1
    38:    1460.99 cm**-1
    39:    1467.28 cm**-1
    40:    1475.08 cm**-1
    41:    1477.12 cm**-1
    42:    1481.05 cm**-1
    43:    1488.77 cm**-1
    44:    1492.14 cm**-1
    45:    1495.68 cm**-1
    46:    1516.70 cm**-1
    47:    1765.55 cm**-1
    48:    3009.26 cm**-1
    49:    3010.76 cm**-1
    50:    3020.05 cm**-1
    51:    3025.51 cm**-1
    52:    3084.00 cm**-1
    53:    3085.40 cm**-1
    54:    3099.91 cm**-1
    55:    3106.31 cm**-1
    56:    3108.32 cm**-1
    57:    3109.67 cm**-1
    58:    3109.68 cm**-1
    59:    3141.00 cm**-1

IR SPECTRUM
-----------

 Mode   freq       eps      Int      T**2         TX        TY        TZ
       cm**-1   L/(mol*cm) km/mol    a.u.
----------------------------------------------------------------------------
  6:     50.92   0.000184    0.93  0.001131  (-0.000005 -0.000059 -0.033624)
  7:    132.06   0.000390    1.97  0.000921  ( 0.000016  0.000018  0.030343)
  8:    166.43   0.000000    0.00  0.000001  ( 0.000112 -0.000155 -0.000917)
  9:    208.12   0.000391    1.97  0.000586  ( 0.003621 -0.023933 -0.000053)
 10:    217.79   0.000105    0.53  0.000151  ( 0.000000  0.000005 -0.012273)
 11:    266.63   0.000382    1.93  0.000447  (-0.000010  0.000036  0.021141)
 12:    277.14   0.000001    0.01  0.000001  (-0.000493 -0.000994  0.000002)
 13:    302.32   0.000295    1.49  0.000305  (-0.000000  0.000012  0.017454)
 14:    326.03   0.001185    5.99  0.001135  (-0.023729  0.023905  0.000018)
 15:    346.97   0.000029    0.15  0.000026  ( 0.005079  0.000712  0.000006)
 16:    370.76   0.002140   10.81  0.001801  ( 0.040403 -0.012983 -0.000005)
 17:    384.98   0.000179    0.90  0.000145  ( 0.000006 -0.000001 -0.012041)
 18:    496.59   0.000495    2.50  0.000311  ( 0.007731  0.015853  0.000014)
 19:    588.27   0.000278    1.40  0.000147  (-0.011488 -0.003903 -0.000001)
 20:    776.88   0.000690    3.49  0.000277  ( 0.000001  0.000062  0.016651)
 21:    792.42   0.000514    2.60  0.000202  (-0.001887  0.014098  0.000021)
 22:    867.59   0.002480   12.53  0.000892  ( 0.014701  0.026000  0.000023)
 23:    941.84   0.000188    0.95  0.000062  (-0.000000  0.000017  0.007900)
 24:    948.01   0.000521    2.64  0.000172  ( 0.010540 -0.007782 -0.000005)
 25:    962.65   0.000001    0.00  0.000000  ( 0.000007 -0.000002 -0.000510)
 26:    989.54   0.002078   10.50  0.000655  ( 0.022478  0.012253  0.000022)
 27:   1046.90   0.000016    0.08  0.000005  ( 0.000056 -0.000039 -0.002198)
 28:   1052.02   0.004336   21.91  0.001286  ( 0.035332 -0.006146  0.000004)
 29:   1161.94   0.062043  313.54  0.016663  (-0.124157  0.035324  0.000082)
 30:   1169.22   0.000146    0.74  0.000039  ( 0.001046 -0.000262  0.006158)
 31:   1203.84   0.006247   31.57  0.001619  (-0.033998  0.021530  0.000003)
 32:   1224.94   0.000543    2.75  0.000138  (-0.000002  0.000038 -0.011764)
 33:   1246.68   0.000690    3.49  0.000173  ( 0.006118 -0.011630 -0.000008)
 34:   1294.12   0.007822   39.53  0.001886  (-0.038343  0.020398  0.000014)
 35:   1382.93   0.001363    6.89  0.000308  (-0.000004  0.000006 -0.017538)
 36:   1389.94   0.001142    5.77  0.000256  ( 0.000114 -0.016014 -0.000008)
 37:   1420.51   0.001960    9.91  0.000431  (-0.019219  0.007830 -0.000003)
 38:   1460.99   0.001501    7.59  0.000321  (-0.017650 -0.003012  0.000128)
 39:   1467.28   0.000015    0.07  0.000003  (-0.000004 -0.000004  0.001776)
 40:   1475.08   0.001783    9.01  0.000377  (-0.000007  0.000016 -0.019419)
 41:   1477.12   0.000022    0.11  0.000005  ( 0.001215 -0.001764 -0.000006)
 42:   1481.05   0.000018    0.09  0.000004  ( 0.000004 -0.000006 -0.001971)
 43:   1488.77   0.001257    6.35  0.000263  ( 0.011913 -0.011026  0.000004)
 44:   1492.14   0.001619    8.18  0.000339  (-0.000012  0.000006 -0.018399)
 45:   1495.68   0.002415   12.20  0.000504  (-0.003526  0.022166  0.000009)
 46:   1516.70   0.005862   29.63  0.001206  (-0.034597 -0.003043  0.000004)
 47:   1765.55   0.043259  218.61  0.007646  ( 0.013050  0.086463  0.000069)
 48:   3009.26   0.006716   33.94  0.000696  (-0.000010 -0.000039  0.026391)
 49:   3010.76   0.003026   15.29  0.000314  ( 0.007101  0.016225  0.000051)
 50:   3020.05   0.005668   28.65  0.000586  (-0.023121  0.007150 -0.000003)
 51:   3025.51   0.006401   32.35  0.000660  ( 0.025667  0.001195  0.000053)
 52:   3084.00   0.002135   10.79  0.000216  (-0.000011  0.000001 -0.014698)
 53:   3085.40   0.005127   25.91  0.000519  (-0.019343 -0.012016  0.000005)
 54:   3099.91   0.006488   32.79  0.000653  (-0.019116 -0.016963 -0.000018)
 55:   3106.31   0.000010    0.05  0.000001  ( 0.000024 -0.000037 -0.001018)
 56:   3108.32   0.003106   15.70  0.000312  (-0.000049  0.000025  0.017660)
 57:   3109.67   0.005556   28.08  0.000558  ( 0.001168 -0.001245 -0.023551)
 58:   3109.68   0.007050   35.63  0.000707  (-0.017973  0.019548 -0.001517)
 59:   3141.00   0.002870   14.50  0.000285  ( 0.006706 -0.015497 -0.000012)

--------------------------
THERMOCHEMISTRY AT 298.15K
--------------------------

Temperature         ...   298.15 K
Pressure            ...     1.00 atm
Total Mass          ...   116.16 AMU
Quasi RRHO          ...     True
Cut-Off Frequency   ...     1.00 cm^-1

Throughout the following assumptions are being made:
  (1) The electronic state is orbitally nondegenerate
  (2) There are no thermally accessible electronically excited states
  (3) Hindered rotations indicated by low frequency modes are not
      treated as such but are treated as vibrations and this may
      cause some error
  (4) All equations used are the standard statistical mechanics
      equations for an ideal gas
  (5) All vibrations are strictly harmonic

freq.      50.92  E(vib)   ...       0.52
freq.     132.06  E(vib)   ...       0.42
freq.     166.43  E(vib)   ...       0.39
freq.     208.12  E(vib)   ...       0.34
freq.     217.79  E(vib)   ...       0.33
freq.     266.63  E(vib)   ...       0.29
freq.     277.14  E(vib)   ...       0.28
freq.     302.32  E(vib)   ...       0.26
freq.     326.03  E(vib)   ...       0.24
freq.     346.97  E(vib)   ...       0.23
freq.     370.76  E(vib)   ...       0.21
freq.     384.98  E(vib)   ...       0.20
freq.     496.59  E(vib)   ...       0.14
freq.     588.27  E(vib)   ...       0.10
freq.     776.88  E(vib)   ...       0.05
freq.     792.42  E(vib)   ...       0.05
freq.     867.59  E(vib)   ...       0.04
freq.     941.84  E(vib)   ...       0.03
freq.     948.01  E(vib)   ...       0.03
freq.     962.65  E(vib)   ...       0.03
freq.     989.54  E(vib)   ...       0.02
freq.    1046.90  E(vib)   ...       0.02
freq.    1052.02  E(vib)   ...       0.02
freq.    1161.94  E(vib)   ...       0.01
freq.    1169.22  E(vib)   ...       0.01
freq.    1203.84  E(vib)   ...       0.01
freq.    1224.94  E(vib)   ...       0.01
freq.    1246.68  E(vib)   ...       0.01
freq.    1294.12  E(vib)   ...       0.01
freq.    1382.93  E(vib)   ...       0.01
freq.    1389.94  E(vib)   ...       0.00
freq.    1420.51  E(vib)   ...       0.00
freq.    1460.99  E(vib)   ...       0.00
freq.    1467.28  E(vib)   ...       0.00
freq.    1475.08  E(vib)   ...       0.00
freq.    1477.12  E(vib)   ...       0.00
freq.    1481.05  E(vib)   ...       0.00
freq.    1488.77  E(vib)   ...       0.00
freq.    1492.14  E(vib)   ...       0.00
freq.    1495.68  E(vib)   ...       0.00
freq.    1516.70  E(vib)   ...       0.00
freq.    1765.55  E(vib)   ...       0.00
freq.    3009.26  E(vib)   ...       0.00
freq.    3010.76  E(vib)   ...       0.00
freq.    3020.05  E(vib)   ...       0.00
freq.    3025.51  E(vib)   ...       0.00
freq.    3084.00  E(vib)   ...       0.00
freq.    3085.40  E(vib)   ...       0.00
freq.    3099.91  E(vib)   ...       0.00
freq.    3106.31  E(vib)   ...       0.00
freq.    3108.32  E(vib)   ...       0.00
freq.    3109.67  E(vib)   ...       0.00
freq.    3109.68  E(vib)   ...       0.00
freq.    3141.00  E(vib)   ...       0.00

------------
INNER ENERGY
------------

The inner energy is: U= E(el) + E(ZPE) + E(vib) + E(rot) + E(trans)
    E(el)   - is the total energy from the electronic structure calculation
              = E(kin-el) + E(nuc-el) + E(el-el) + E(nuc-nuc)
    E(ZPE)  - the the zero temperature vibrational energy from the frequency calculation
    E(vib)  - the the finite temperature correction to E(ZPE) due to population
              of excited vibrational states
    E(rot)  - is the rotational thermal energy
    E(trans)- is the translational thermal energy

Summary of contributions to the inner energy U:
Electronic energy                ...   -386.26204186 Eh
Zero point energy                ...      0.17322551 Eh     108.70 kcal/mol
Thermal vibrational correction   ...      0.00697183 Eh       4.37 kcal/mol
Thermal rotational correction    ...      0.00141627 Eh       0.89 kcal/mol
Thermal translational correction ...      0.00141627 Eh       0.89 kcal/mol
-----------------------------------------------------------------------
Total thermal energy                   -386.07901197 Eh

Summary of corrections to the electronic energy:
(perhaps to be used in another calculation)
Total thermal correction                  0.00980437 Eh       6.15 kcal/mol
Non-thermal (ZPE) correction              0.17322551 Eh     108.70 kcal/mol
-----------------------------------------------------------------------
Total correction                          0.18302988 Eh     114.85 kcal/mol

--------
ENTHALPY
--------

The enthalpy is H = U + kB*T
                kB is Boltzmann's constant
Total thermal energy              ...   -386.07901197 Eh
Thermal Enthalpy correction       ...      0.00094421 Eh       0.59 kcal/mol
-----------------------------------------------------------------------
Total Enthalpy                    ...   -386.07806776 Eh

Note: Only C1 symmetry has been detected, increase convergence thresholds
      if your molecule has a higher symmetry. Symmetry factor of 1.0 is
      used for the rotational entropy correction.

Note: Rotational entropy computed according to Herzberg
Infrared and Raman Spectra, Chapter V,1, Van Nostrand Reinhold, 1945
Point Group:  C1, Symmetry Number:   1
Rotational constants in cm-1:     0.105112     0.050070     0.044073

Vibrational entropy computed according to the QRRHO of S. Grimme
Chem.Eur.J. 2012 18 9955 using a reference frequency of 100.0 cm-1

-------
ENTROPY
-------

The entropy contributions are T*S = T*(S(el)+S(vib)+S(rot)+S(trans))
     S(el)   - electronic entropy
     S(vib)  - vibrational entropy
     S(rot)  - rotational entropy
     S(trans)- translational entropy
The entropies will be listed as multiplied by the temperature to get
units of energy

Electronic entropy                ...      0.00000000 Eh      0.00 kcal/mol
Vibrational entropy               ...      0.01180055 Eh      7.40 kcal/mol
Rotational entropy                ...      0.01346172 Eh      8.45 kcal/mol
Translational entropy             ...      0.01908340 Eh     11.97 kcal/mol
-----------------------------------------------------------------------
Final entropy term                ...      0.04434567 Eh     27.83 kcal/mol

In case the symmetry of your molecule has not been determined correctly
or in case you have a reason to use a different symmetry number we print
out the resulting rotational entropy values for sn=1,12:

 non-linear molecules -----------------------------------
|  sn= 1 | S(rot)=       0.01346172 Eh      8.45 kcal/mol|
|  sn= 2 | S(rot)=       0.01280726 Eh      8.04 kcal/mol|
|  sn= 3 | S(rot)=       0.01242443 Eh      7.80 kcal/mol|
|  sn= 4 | S(rot)=       0.01215281 Eh      7.63 kcal/mol|
|  sn= 5 | S(rot)=       0.01194212 Eh      7.49 kcal/mol|
|  sn= 6 | S(rot)=       0.01176998 Eh      7.39 kcal/mol|

                             ****ORCA TERMINATED NORMALLY****
TOTAL RUN TIME: 0 days 0 hours 15 minutes 47 seconds 125 msec
