                         Program Version 6.0.1  -  RELEASE   -
|  1> ! pbe def2-sv(p) def2/J RI DEFGRID1 loosescf d4 GCP(DFT/SV(P)) printgap
|  2> %output
|  3>     printlevel normal
|  4> end
|  5> * xyz 0 1
|  6> C -1.8092320243 -1.3582740859 -1.7627e-06
|  7> C -0.4715593425 -1.7062276689 -5.993e-07
|  8> C 0.5075197599 -0.726162804 6.9926e-06
|  9> C 0.1352912186 0.6161655255 1.15866e-05
| 10> C -1.201785905 0.9690285075 4.0261e-06
| 11> C -2.1832330473 -0.0181582024 -1.18e-06
| 12> O -3.4782692266 0.3758484967 1.13e-07
| 13> Cl 1.3346884692 1.8494346238 -5.1258e-06
| 14> Cl 2.1727849299 -1.172927601 -1.315e-06
| 15> H -2.564437289 -2.131527422 6.73e-07
| 16> H -0.1798295641 -2.7441889609 3.846e-07
| 17> H -1.4973866299 2.0050302544 7.153e-07
| 18> H -4.0617383915 -0.3930793869 -4.1827e-06
| 19> *
| 20>
| 21>                          ****END OF INPUT****

CARTESIAN COORDINATES (ANGSTROEM)
---------------------------------
  C     -1.809232   -1.358274   -0.000002
  C     -0.471559   -1.706228   -0.000001
  C      0.507520   -0.726163    0.000007
  C      0.135291    0.616166    0.000012
  C     -1.201786    0.969029    0.000004
  C     -2.183233   -0.018158   -0.000001
  O     -3.478269    0.375848    0.000000
  Cl     1.334688    1.849435   -0.000005
  Cl     2.172785   -1.172928   -0.000001
  H     -2.564437   -2.131527    0.000001
  H     -0.179830   -2.744189    0.000000
  H     -1.497387    2.005030    0.000001
  H     -4.061738   -0.393079   -0.000004

 Total Charge           Charge          ....    0
 Multiplicity           Mult            ....    1
 Number of Electrons    NEL             ....   82
 Basis Dimension        Dim             ....  142

ORBITAL ENERGIES
----------------

  NO   OCC          E(Eh)            E(eV)
   0   2.0000    -100.644405     -2738.6735
   1   2.0000    -100.640914     -2738.5785
   2   2.0000     -18.797809      -511.5144
   3   2.0000      -9.971029      -271.3255
   4   2.0000      -9.961999      -271.0798
   5   2.0000      -9.953941      -270.8605
   6   2.0000      -9.915324      -269.8097
   7   2.0000      -9.909619      -269.6544
   8   2.0000      -9.907072      -269.5851
   9   2.0000      -9.180390      -249.8111
  10   2.0000      -9.176797      -249.7133
  11   2.0000      -7.011904      -190.8036
  12   2.0000      -7.008334      -190.7065
  13   2.0000      -7.000427      -190.4913
  14   2.0000      -6.999520      -190.4666
  15   2.0000      -6.996708      -190.3901
  16   2.0000      -6.996056      -190.3724
  17   2.0000      -0.982250       -26.7284
  18   2.0000      -0.836925       -22.7739
  19   2.0000      -0.782447       -21.2915
  20   2.0000      -0.762814       -20.7572
  21   2.0000      -0.683153       -18.5895
  22   2.0000      -0.656211       -17.8564
  23   2.0000      -0.576763       -15.6945
  24   2.0000      -0.562580       -15.3086
  25   2.0000      -0.503826       -13.7098
  26   2.0000      -0.461743       -12.5647
  27   2.0000      -0.446056       -12.1378
  28   2.0000      -0.413631       -11.2555
  29   2.0000      -0.400009       -10.8848
  30   2.0000      -0.391181       -10.6446
  31   2.0000      -0.371727       -10.1152
  32   2.0000      -0.354807        -9.6548
  33   2.0000      -0.351636        -9.5685
  34   2.0000      -0.319135        -8.6841
  35   2.0000      -0.305636        -8.3168
  36   2.0000      -0.281030        -7.6472
  37   2.0000      -0.274373        -7.4661
  38   2.0000      -0.259034        -7.0487
  39   2.0000      -0.230846        -6.2816
  40   2.0000      -0.200698        -5.4613
  41   0.0000      -0.053690        -1.4610
  42   0.0000      -0.036282        -0.9873
  43   0.0000      -0.011049        -0.3007
  44   0.0000       0.010544         0.2869
  45   0.0000       0.060028         1.6335

MULLIKEN ATOMIC CHARGES
-----------------------
   0 C :   -0.156278
   1 C :   -0.113043
   2 C :    0.085803
   3 C :    0.085058
   4 C :   -0.181068
   5 C :    0.258609
   6 O :   -0.323903
   7 Cl:   -0.054090
   8 Cl:   -0.064969
   9 H :    0.039012
  10 H :    0.055183
  11 H :    0.048993
  12 H :    0.320693
Sum of atomic charges:    0.0000000

LOEWDIN ATOMIC CHARGES
----------------------
   0 C :   -0.175305
   1 C :   -0.126082
   2 C :   -0.179058
   3 C :   -0.149530
   4 C :   -0.160175
   5 C :    0.022354
   6 O :   -0.224505
   7 Cl:    0.151236
   8 Cl:    0.137677
   9 H :    0.125998
  10 H :    0.134838
  11 H :    0.141300
  12 H :    0.301252

  Mayer bond orders larger than 0.100000
B(  0-C ,  1-C ) :   1.3462 B(  0-C ,  5-C ) :   1.2939 B(  0-C ,  9-H ) :   0.9593
B(  1-C ,  2-C ) :   1.3867 B(  1-C , 10-H ) :   0.9623 B(  2-C ,  3-C ) :   1.3992
B(  2-C ,  8-Cl) :   1.0270 B(  3-C ,  4-C ) :   1.3705 B(  3-C ,  7-Cl) :   1.0346
B(  4-C ,  5-C ) :   1.3093 B(  4-C , 11-H ) :   0.9755 B(  5-C ,  6-O ) :   1.1963
B(  6-O , 12-H ) :   0.8411

Dispersion correction           -0.017289933
FINAL SINGLE POINT ENERGY     -1225.362961852066

DIPOLE MOMENT
-------------

Method             : SCF
Type of density    : Electron Density
Multiplicity       :   1
Irrep              :   0
Energy             : -1225.3957152828236303 Eh
Relativity type    :
Basis              : AO
                                X                 Y                 Z
Electronic contribution:     11.454256682       3.294975625      -0.000009823
Nuclear contribution   :    -12.549248236      -3.964438896       0.000006386
                        -----------------------------------------
Total Dipole Moment    :     -1.094991554      -0.669463271      -0.000003437
                        -----------------------------------------
Magnitude (a.u.)       :      1.283428056
Magnitude (Debye)      :      3.262214866

Rotational constants in cm-1:             0.062914             0.029597             0.020128
Rotational constants in MHz :          1886.112462           887.297360           603.424202

                             ****ORCA TERMINATED NORMALLY****
TOTAL RUN TIME: 0 days 0 hours 0 minutes 12 seconds 394 msec
