                         Program Version 6.0.1  -  RELEASE   -
|  1> ! pbe def2-sv(p) def2/J RI DEFGRID1 loosescf d4 GCP(DFT/SV(P)) printgap
|  2> %output
|  3>     printlevel normal
|  4> end
|  5> * xyz 0 1
|  6> C -2.1167267416 1.0822084706 -0.6096637374
|  7> C -1.6407197065 -0.2593434522 -0.0507523429
|  8> C -1.7425423628 -0.261433713 1.4718538121
|  9> C -0.2797608984 -0.7192512296 -0.6123086566
| 10> C 1.0684811279 -0.1160241315 -0.1573239886
| 11> C 2.1140458106 -0.5734509158 -1.1865231768
| 12> C 1.0723077696 1.4120887952 -0.1272377139
| 13> C 1.5027255212 -0.6514765823 1.2106113194
| 14> H -2.0010106243 1.1117534506 -1.6908579791
| 15> H -3.1716365421 1.2208834922 -0.3789396729
| 16> H -1.5705621863 1.9157021722 -0.1809024939
| 17> H -2.350457067 -1.0140443119 -0.4174538586
| 18> H -1.3889886799 -1.2041452748 1.881835496
| 19> H -1.1683657582 0.5520297315 1.906970641
| 20> H -2.7815388462 -0.1295781952 1.7695628194
| 21> H -0.2097538928 -1.7962124175 -0.4329229235
| 22> H -0.3434250149 -0.5866222632 -1.6961942217
| 23> H 3.1079454493 -0.2406869236 -0.8949498664
| 24> H 1.8941679641 -0.1628138313 -2.1698052464
| 25> H 2.1278709455 -1.6585747659 -1.2641180103
| 26> H 0.4517966534 1.7928737294 0.6786175282
| 27> H 0.7157990133 1.8173576131 -1.070756736
| 28> H 2.0864489099 1.7732824616 0.0361100762
| 29> H 1.4830103258 -1.7392305925 1.2206258576
| 30> H 0.8629932333 -0.2889579791 2.0075681447
| 31> H 2.5201349726 -0.3300300725 1.4266438869
| 32> *
| 33>
| 34>                          ****END OF INPUT****

CARTESIAN COORDINATES (ANGSTROEM)
---------------------------------
  C     -2.116727    1.082208   -0.609664
  C     -1.640720   -0.259343   -0.050752
  C     -1.742542   -0.261434    1.471854
  C     -0.279761   -0.719251   -0.612309
  C      1.068481   -0.116024   -0.157324
  C      2.114046   -0.573451   -1.186523
  C      1.072308    1.412089   -0.127238
  C      1.502726   -0.651477    1.210611
  H     -2.001011    1.111753   -1.690858
  H     -3.171637    1.220883   -0.378940
  H     -1.570562    1.915702   -0.180902
  H     -2.350457   -1.014044   -0.417454
  H     -1.388989   -1.204145    1.881835
  H     -1.168366    0.552030    1.906971
  H     -2.781539   -0.129578    1.769563
  H     -0.209754   -1.796212   -0.432923
  H     -0.343425   -0.586622   -1.696194
  H      3.107945   -0.240687   -0.894950
  H      1.894168   -0.162814   -2.169805
  H      2.127871   -1.658575   -1.264118
  H      0.451797    1.792874    0.678618
  H      0.715799    1.817358   -1.070757
  H      2.086449    1.773282    0.036110
  H      1.483010   -1.739231    1.220626
  H      0.862993   -0.288958    2.007568
  H      2.520135   -0.330030    1.426644

 Total Charge           Charge          ....    0
 Multiplicity           Mult            ....    1
 Number of Electrons    NEL             ....   66
 Basis Dimension        Dim             ....  148

ORBITAL ENERGIES
----------------

  NO   OCC          E(Eh)            E(eV)
   0   2.0000      -9.902091      -269.4496
   1   2.0000      -9.891142      -269.1517
   2   2.0000      -9.876289      -268.7475
   3   2.0000      -9.869050      -268.5505
   4   2.0000      -9.868025      -268.5226
   5   2.0000      -9.867240      -268.5013
   6   2.0000      -9.866744      -268.4877
   7   2.0000      -9.866090      -268.4700
   8   2.0000      -0.746687       -20.3184
   9   2.0000      -0.704856       -19.1801
  10   2.0000      -0.614078       -16.7099
  11   2.0000      -0.613575       -16.6962
  12   2.0000      -0.601285       -16.3618
  13   2.0000      -0.599870       -16.3233
  14   2.0000      -0.505235       -13.7482
  15   2.0000      -0.459715       -12.5095
  16   2.0000      -0.417781       -11.3684
  17   2.0000      -0.406254       -11.0547
  18   2.0000      -0.396961       -10.8019
  19   2.0000      -0.381399       -10.3784
  20   2.0000      -0.373020       -10.1504
  21   2.0000      -0.365795        -9.9538
  22   2.0000      -0.345802        -9.4098
  23   2.0000      -0.335506        -9.1296
  24   2.0000      -0.325747        -8.8640
  25   2.0000      -0.315351        -8.5811
  26   2.0000      -0.314123        -8.5477
  27   2.0000      -0.308155        -8.3853
  28   2.0000      -0.291551        -7.9335
  29   2.0000      -0.284129        -7.7315
  30   2.0000      -0.271388        -7.3848
  31   2.0000      -0.265017        -7.2115
  32   2.0000      -0.251688        -6.8488
  33   0.0000       0.023435         0.6377
  34   0.0000       0.057645         1.5686
  35   0.0000       0.066595         1.8121
  36   0.0000       0.071869         1.9557
  37   0.0000       0.080964         2.2032

MULLIKEN ATOMIC CHARGES
-----------------------
   0 C :   -0.254405
   1 C :   -0.147101
   2 C :   -0.251922
   3 C :   -0.088718
   4 C :   -0.256931
   5 C :   -0.214859
   6 C :   -0.212659
   7 C :   -0.215458
   8 H :    0.093236
   9 H :    0.094492
  10 H :    0.099249
  11 H :    0.065672
  12 H :    0.100840
  13 H :    0.109355
  14 H :    0.093987
  15 H :    0.069274
  16 H :    0.067880
  17 H :    0.091449
  18 H :    0.093334
  19 H :    0.091971
  20 H :    0.107967
  21 H :    0.096937
  22 H :    0.088932
  23 H :    0.088910
  24 H :    0.099312
  25 H :    0.089255
Sum of atomic charges:    0.0000000

LOEWDIN ATOMIC CHARGES
----------------------
   0 C :   -0.332921
   1 C :   -0.154595
   2 C :   -0.331558
   3 C :   -0.201998
   4 C :   -0.103909
   5 C :   -0.315058
   6 C :   -0.317498
   7 C :   -0.318693
   8 H :    0.114794
   9 H :    0.116542
  10 H :    0.116263
  11 H :    0.117460
  12 H :    0.117240
  13 H :    0.114643
  14 H :    0.117477
  15 H :    0.113613
  16 H :    0.113379
  17 H :    0.113362
  18 H :    0.113813
  19 H :    0.114893
  20 H :    0.113963
  21 H :    0.116983
  22 H :    0.116135
  23 H :    0.114511
  24 H :    0.116206
  25 H :    0.114954

  Mayer bond orders larger than 0.100000
B(  0-C ,  1-C ) :   1.1151 B(  0-C ,  8-H ) :   0.9485 B(  0-C ,  9-H ) :   0.9474
B(  0-C , 10-H ) :   0.9413 B(  1-C ,  2-C ) :   1.1219 B(  1-C ,  3-C ) :   1.0976
B(  1-C , 11-H ) :   0.8926 B(  2-C , 12-H ) :   0.9441 B(  2-C , 13-H ) :   0.9351
B(  2-C , 14-H ) :   0.9444 B(  3-C ,  4-C ) :   1.0445 B(  3-C , 15-H ) :   0.9072
B(  3-C , 16-H ) :   0.9094 B(  4-C ,  5-C ) :   1.0674 B(  4-C ,  6-C ) :   1.0897
B(  4-C ,  7-C ) :   1.0772 B(  5-C , 17-H ) :   0.9453 B(  5-C , 18-H ) :   0.9462
B(  5-C , 19-H ) :   0.9492 B(  6-C , 20-H ) :   0.9330 B(  6-C , 21-H ) :   0.9405
B(  6-C , 22-H ) :   0.9419 B(  7-C , 23-H ) :   0.9464 B(  7-C , 24-H ) :   0.9370
B(  7-C , 25-H ) :   0.9452

Dispersion correction           -0.024013396
FINAL SINGLE POINT ENERGY      -314.868851059483

DIPOLE MOMENT
-------------

Method             : SCF
Type of density    : Electron Density
Multiplicity       :   1
Irrep              :   0
Energy             :  -314.9551846497901693 Eh
Relativity type    :
Basis              : AO
                                X                 Y                 Z
Electronic contribution:     -0.293081032      -0.990319219      -0.687220342
Nuclear contribution   :      0.248077007       0.969107855       0.685827527
                        -----------------------------------------
Total Dipole Moment    :     -0.045004025      -0.021211364      -0.001392815
                        -----------------------------------------
Magnitude (a.u.)       :      0.049771721
Magnitude (Debye)      :      0.126509660

Rotational constants in cm-1:             0.094440             0.044915             0.040562
Rotational constants in MHz :          2831.232838          1346.511369          1216.022290

                             ****ORCA TERMINATED NORMALLY****
TOTAL RUN TIME: 0 days 0 hours 0 minutes 18 seconds 62 msec
