                         Program Version 6.0.1  -  RELEASE   -
|  1> ! pbe def2-sv(p) def2/J RI DEFGRID1 loosescf d4 GCP(DFT/SV(P)) printgap
|  2> %output
|  3>     printlevel normal
|  4> end
|  5> * xyz 0 1
|  6> C -1.9581122837 0.4587458641 -0.062634914
|  7> C -0.8907218022 -0.6108153326 0.1249057755
|  8> C 0.5598461711 -0.1662683779 0.0241047118
|  9> O 1.4749483183 -0.949274512 0.1554810975
| 10> N 0.7794419488 1.1456069135 -0.2189721199
| 11> H -2.9430151208 0.0062449206 0.0319634815
| 12> H -1.8769968661 1.2357751238 0.6954223801
| 13> H -1.895327499 0.9109695839 -1.0508336268
| 14> H -1.0220698005 -1.4030952812 -0.6159999519
| 15> H -1.0013975643 -1.0806031611 1.1052141227
| 16> H 0.0387922781 1.8118751254 -0.3308846138
| 17> H 1.7323949449 1.4607983135 -0.2892765624
| 18> *
| 19>
| 20>                          ****END OF INPUT****

CARTESIAN COORDINATES (ANGSTROEM)
---------------------------------
  C     -1.958112    0.458746   -0.062635
  C     -0.890722   -0.610815    0.124906
  C      0.559846   -0.166268    0.024105
  O      1.474948   -0.949275    0.155481
  N      0.779442    1.145607   -0.218972
  H     -2.943015    0.006245    0.031963
  H     -1.876997    1.235775    0.695422
  H     -1.895327    0.910970   -1.050834
  H     -1.022070   -1.403095   -0.616000
  H     -1.001398   -1.080603    1.105214
  H      0.038792    1.811875   -0.330885
  H      1.732395    1.460798   -0.289277

 Total Charge           Charge          ....    0
 Multiplicity           Mult            ....    1
 Number of Electrons    NEL             ....   40
 Basis Dimension        Dim             ....   84

ORBITAL ENERGIES
----------------

  NO   OCC          E(Eh)            E(eV)
   0   2.0000     -18.698451      -508.8107
   1   2.0000     -14.006888      -381.1468
   2   2.0000      -9.974188      -271.4115
   3   2.0000      -9.892953      -269.2009
   4   2.0000      -9.891768      -269.1687
   5   2.0000      -0.924377       -25.1536
   6   2.0000      -0.813722       -22.1425
   7   2.0000      -0.701591       -19.0913
   8   2.0000      -0.587435       -15.9849
   9   2.0000      -0.524905       -14.2834
  10   2.0000      -0.494835       -13.4652
  11   2.0000      -0.421137       -11.4597
  12   2.0000      -0.401420       -10.9232
  13   2.0000      -0.369644       -10.0585
  14   2.0000      -0.351722        -9.5708
  15   2.0000      -0.328500        -8.9389
  16   2.0000      -0.324954        -8.8424
  17   2.0000      -0.304923        -8.2974
  18   2.0000      -0.221949        -6.0395
  19   2.0000      -0.188952        -5.1417
  20   0.0000       0.007479         0.2035
  21   0.0000       0.022875         0.6225
  22   0.0000       0.064562         1.7568
  23   0.0000       0.075388         2.0514
  24   0.0000       0.090862         2.4725

MULLIKEN ATOMIC CHARGES
-----------------------
   0 C :   -0.312130
   1 C :   -0.208403
   2 C :    0.030477
   3 O :   -0.210659
   4 N :   -0.324264
   5 H :    0.113192
   6 H :    0.110710
   7 H :    0.110979
   8 H :    0.118984
   9 H :    0.119131
  10 H :    0.223945
  11 H :    0.228038
Sum of atomic charges:    0.0000000

LOEWDIN ATOMIC CHARGES
----------------------
   0 C :   -0.354312
   1 C :   -0.259895
   2 C :    0.004803
   3 O :   -0.200578
   4 N :   -0.301726
   5 H :    0.129876
   6 H :    0.118304
   7 H :    0.118400
   8 H :    0.141537
   9 H :    0.141561
  10 H :    0.229149
  11 H :    0.232882

  Mayer bond orders larger than 0.100000
B(  0-C ,  1-C ) :   1.1439 B(  0-C ,  5-H ) :   0.9407 B(  0-C ,  6-H ) :   0.9471
B(  0-C ,  7-H ) :   0.9474 B(  1-C ,  2-C ) :   0.9957 B(  1-C ,  8-H ) :   0.9082
B(  1-C ,  9-H ) :   0.9081 B(  2-C ,  3-O ) :   2.1062 B(  2-C ,  4-N ) :   1.2880
B(  4-N , 10-H ) :   0.8570 B(  4-N , 11-H ) :   0.8667

Dispersion correction           -0.007551571
FINAL SINGLE POINT ENERGY      -247.972308401516

DIPOLE MOMENT
-------------

Method             : SCF
Type of density    : Electron Density
Multiplicity       :   1
Irrep              :   0
Energy             :  -248.0184497324093229 Eh
Relativity type    :
Basis              : AO
                                X                 Y                 Z
Electronic contribution:      5.669501700      -1.616562919       0.228664621
Nuclear contribution   :     -6.510655955       2.752259478      -0.425193184
                        -----------------------------------------
Total Dipole Moment    :     -0.841154254       1.135696559      -0.196528563
                        -----------------------------------------
Magnitude (a.u.)       :      1.426874427
Magnitude (Debye)      :      3.626826564

Rotational constants in cm-1:             0.317456             0.130137             0.095583
Rotational constants in MHz :          9517.095894          3901.415674          2865.492571

                             ****ORCA TERMINATED NORMALLY****
TOTAL RUN TIME: 0 days 0 hours 0 minutes 17 seconds 753 msec
