                         Program Version 6.0.1  -  RELEASE   -
|  1> ! r2scan-3c def2/J RI DEFGRID2 scfconv6 printgap
|  2> %output
|  3>     printlevel normal
|  4> end
|  5> * xyz 0 1
|  6> C -1.7517850511 -0.7960235037 -0.0395764898
|  7> C -0.4892003534 0.0053750648 -0.3404650598
|  8> C -0.635529399 1.4518752707 0.1226130258
|  9> C 0.7251865186 -0.6434179563 0.3276641146
| 10> O 1.8964257455 0.0003350484 -0.1281748593
| 11> H -1.9339418758 -0.8281344396 1.0329046709
| 12> H -1.6606881569 -1.8169944123 -0.4037394328
| 13> H -2.611353863 -0.3352508044 -0.5196908344
| 14> H -0.3049253776 0.0010180664 -1.4192505451
| 15> H -0.8562309624 1.4884192418 1.187774922
| 16> H -1.4417040316 1.9445559169 -0.4154412574
| 17> H 0.2894410412 1.9912652329 -0.0609244359
| 18> H 0.6361816381 -0.5528310381 1.4204688397
| 19> H 0.7564076192 -1.7135626558 0.073323249
| 20> H 2.6600315056 -0.396029484 0.3022344747
| 21> *
| 22>
| 23>                          ****END OF INPUT****

CARTESIAN COORDINATES (ANGSTROEM)
---------------------------------
  C     -1.751785   -0.796024   -0.039576
  C     -0.489200    0.005375   -0.340465
  C     -0.635529    1.451875    0.122613
  C      0.725187   -0.643418    0.327664
  O      1.896426    0.000335   -0.128175
  H     -1.933942   -0.828134    1.032905
  H     -1.660688   -1.816994   -0.403739
  H     -2.611354   -0.335251   -0.519691
  H     -0.304925    0.001018   -1.419251
  H     -0.856231    1.488419    1.187775
  H     -1.441704    1.944556   -0.415441
  H      0.289441    1.991265   -0.060924
  H      0.636182   -0.552831    1.420469
  H      0.756408   -1.713563    0.073323
  H      2.660032   -0.396029    0.302234

 Total Charge           Charge          ....    0
 Multiplicity           Mult            ....    1
 Number of Electrons    NEL             ....   42
 Basis Dimension        Dim             ....  150

ORBITAL ENERGIES
----------------

  NO   OCC          E(Eh)            E(eV)
   0   2.0000     -18.946557      -515.5620
   1   2.0000     -10.071838      -274.0687
   2   2.0000     -10.031333      -272.9665
   3   2.0000     -10.017586      -272.5924
   4   2.0000     -10.008680      -272.3500
   5   2.0000      -0.984804       -26.7979
   6   2.0000      -0.765652       -20.8345
   7   2.0000      -0.648316       -17.6416
   8   2.0000      -0.637149       -17.3377
   9   2.0000      -0.526921       -14.3382
  10   2.0000      -0.481022       -13.0893
  11   2.0000      -0.437923       -11.9165
  12   2.0000      -0.408101       -11.1050
  13   2.0000      -0.389607       -10.6017
  14   2.0000      -0.357610        -9.7311
  15   2.0000      -0.347151        -9.4465
  16   2.0000      -0.332332        -9.0432
  17   2.0000      -0.303198        -8.2504
  18   2.0000      -0.298460        -8.1215
  19   2.0000      -0.281703        -7.6655
  20   2.0000      -0.234927        -6.3927
  21   0.0000       0.062205         1.6927
  22   0.0000       0.092734         2.5234
  23   0.0000       0.131525         3.5790
  24   0.0000       0.138428         3.7668
  25   0.0000       0.141474         3.8497

MULLIKEN ATOMIC CHARGES
-----------------------
   0 C :   -0.489278
   1 C :   -0.005163
   2 C :   -0.504969
   3 C :   -0.143751
   4 O :   -0.429633
   5 H :    0.145096
   6 H :    0.145532
   7 H :    0.148271
   8 H :    0.145856
   9 H :    0.140537
  10 H :    0.144487
  11 H :    0.171474
  12 H :    0.123257
  13 H :    0.119142
  14 H :    0.289143
Sum of atomic charges:    0.0000000

LOEWDIN ATOMIC CHARGES
----------------------
   0 C :   -0.415275
   1 C :   -0.225035
   2 C :   -0.412842
   3 C :    0.009841
   4 O :   -0.630723
   5 H :    0.153764
   6 H :    0.153135
   7 H :    0.155703
   8 H :    0.163976
   9 H :    0.152076
  10 H :    0.152009
  11 H :    0.166628
  12 H :    0.156630
  13 H :    0.156282
  14 H :    0.263831

  Mayer bond orders larger than 0.100000
B(  0-C ,  1-C ) :   0.9022 B(  0-C ,  5-H ) :   0.9826 B(  0-C ,  6-H ) :   0.9737
B(  0-C ,  7-H ) :   0.9710 B(  1-C ,  2-C ) :   0.9204 B(  1-C ,  3-C ) :   0.9490
B(  1-C ,  8-H ) :   0.9475 B(  2-C ,  9-H ) :   0.9833 B(  2-C , 10-H ) :   0.9747
B(  2-C , 11-H ) :   0.9675 B(  3-C ,  4-O ) :   0.9201 B(  3-C , 12-H ) :   0.9711
B(  3-C , 13-H ) :   0.9621 B(  4-O , 14-H ) :   0.9032

Dispersion correction           -0.003205663
FINAL SINGLE POINT ENERGY      -233.600203568632

DIPOLE MOMENT
-------------

Method             : SCF
Type of density    : Electron Density
Multiplicity       :   1
Irrep              :   0
Energy             :  -233.6054422562334594 Eh
Relativity type    :
Basis              : AO
                                X                 Y                 Z
Electronic contribution:      4.187465667      -0.210596161      -0.786499557
Nuclear contribution   :     -4.162430369      -0.204087273       1.121698741
                        -----------------------------------------
Total Dipole Moment    :      0.025035297      -0.414683435       0.335199184
                        -----------------------------------------
Magnitude (a.u.)       :      0.533804843
Magnitude (Debye)      :      1.356824081

Rotational constants in cm-1:             0.255979             0.117543             0.089405
Rotational constants in MHz :          7674.048336          3523.865087          2680.291580

                             ****ORCA TERMINATED NORMALLY****
TOTAL RUN TIME: 0 days 0 hours 0 minutes 12 seconds 568 msec
