                         Program Version 6.0.1  -  RELEASE   -
|  1> ! pbe def2-sv(p) def2/J RI DEFGRID1 loosescf d4 GCP(DFT/SV(P)) printgap
|  2> %output
|  3>     printlevel normal
|  4> end
|  5> * xyz 0 1
|  6> C -2.186589945 -0.9261425601 -0.1676099242
|  7> C -1.132774104 -0.344105534 0.8014737532
|  8> H -1.6092021257 -0.3490076819 1.793500527
|  9> C -0.7453694018 1.1188392229 0.4881209365
| 10> H -1.6106967246 1.612604504 0.0172142364
| 11> C 0.4536685757 1.2454104654 -0.4680770765
| 12> H 0.8031424474 2.2855417927 -0.4174741918
| 13> C 1.6070571759 0.3371305313 0.0147831906
| 14> H 2.4082189408 0.3515278248 -0.7345456414
| 15> C 1.0866378719 -1.1086681238 0.1241885686
| 16> H 1.8331463777 -1.7403139786 0.6230156814
| 17> O -0.0252036635 -1.2152632529 0.9755347273
| 18> O 0.8414112472 -1.6491083088 -1.1515232701
| 19> O 2.1742820676 0.7831696497 1.2092127649
| 20> O 0.1167076943 0.9750471314 -1.8058029099
| 21> O -0.382814233 1.8054860887 1.6700570754
| 22> O -1.7718357786 -0.9857814126 -1.5062981594
| 23> H -3.0777606327 -0.2934869489 -0.145788953
| 24> H -2.4527674305 -1.9259199361 0.1948231257
| 25> H 0.90488162 -0.9378665504 -1.8104976959
| 26> H 1.4615102227 1.0618797674 1.8037162625
| 27> H -0.7008366892 0.4350961591 -1.8437450403
| 28> H -1.1252210392 1.8170849324 2.2843078965
| 29> H -1.0229821054 -1.6127895751 -1.5487547966
| 30> *
| 31>
| 32>                          ****END OF INPUT****

CARTESIAN COORDINATES (ANGSTROEM)
---------------------------------
  C     -2.186590   -0.926143   -0.167610
  C     -1.132774   -0.344106    0.801474
  H     -1.609202   -0.349008    1.793501
  C     -0.745369    1.118839    0.488121
  H     -1.610697    1.612605    0.017214
  C      0.453669    1.245410   -0.468077
  H      0.803142    2.285542   -0.417474
  C      1.607057    0.337131    0.014783
  H      2.408219    0.351528   -0.734546
  C      1.086638   -1.108668    0.124189
  H      1.833146   -1.740314    0.623016
  O     -0.025204   -1.215263    0.975535
  O      0.841411   -1.649108   -1.151523
  O      2.174282    0.783170    1.209213
  O      0.116708    0.975047   -1.805803
  O     -0.382814    1.805486    1.670057
  O     -1.771836   -0.985781   -1.506298
  H     -3.077761   -0.293487   -0.145789
  H     -2.452767   -1.925920    0.194823
  H      0.904882   -0.937867   -1.810498
  H      1.461510    1.061880    1.803716
  H     -0.700837    0.435096   -1.843745
  H     -1.125221    1.817085    2.284308
  H     -1.022982   -1.612790   -1.548755

 Total Charge           Charge          ....    0
 Multiplicity           Mult            ....    1
 Number of Electrons    NEL             ....   96
 Basis Dimension        Dim             ....  192

ORBITAL ENERGIES
----------------

  NO   OCC          E(Eh)            E(eV)
   0   2.0000     -18.786882      -511.2170
   1   2.0000     -18.778671      -510.9936
   2   2.0000     -18.773781      -510.8605
   3   2.0000     -18.768999      -510.7304
   4   2.0000     -18.757261      -510.4110
   5   2.0000     -18.742527      -510.0101
   6   2.0000      -9.986020      -271.7334
   7   2.0000      -9.965810      -271.1835
   8   2.0000      -9.960498      -271.0389
   9   2.0000      -9.949279      -270.7336
  10   2.0000      -9.949149      -270.7301
  11   2.0000      -9.939327      -270.4628
  12   2.0000      -0.991201       -26.9719
  13   2.0000      -0.962480       -26.1904
  14   2.0000      -0.949047       -25.8249
  15   2.0000      -0.935308       -25.4510
  16   2.0000      -0.924040       -25.1444
  17   2.0000      -0.918942       -25.0057
  18   2.0000      -0.717270       -19.5179
  19   2.0000      -0.690522       -18.7901
  20   2.0000      -0.635463       -17.2918
  21   2.0000      -0.604627       -16.4527
  22   2.0000      -0.582421       -15.8485
  23   2.0000      -0.528777       -14.3888
  24   2.0000      -0.506980       -13.7956
  25   2.0000      -0.501036       -13.6339
  26   2.0000      -0.482735       -13.1359
  27   2.0000      -0.477142       -12.9837
  28   2.0000      -0.450664       -12.2632
  29   2.0000      -0.444584       -12.0977
  30   2.0000      -0.426875       -11.6159
  31   2.0000      -0.419673       -11.4199
  32   2.0000      -0.397297       -10.8110
  33   2.0000      -0.386812       -10.5257
  34   2.0000      -0.371259       -10.1025
  35   2.0000      -0.360518        -9.8102
  36   2.0000      -0.342373        -9.3165
  37   2.0000      -0.329594        -8.9687
  38   2.0000      -0.316967        -8.6251
  39   2.0000      -0.307292        -8.3618
  40   2.0000      -0.294051        -8.0015
  41   2.0000      -0.276209        -7.5160
  42   2.0000      -0.274633        -7.4731
  43   2.0000      -0.257823        -7.0157
  44   2.0000      -0.250078        -6.8050
  45   2.0000      -0.240136        -6.5344
  46   2.0000      -0.222731        -6.0608
  47   2.0000      -0.202283        -5.5044
  48   0.0000      -0.003456        -0.0940
  49   0.0000       0.020452         0.5565
  50   0.0000       0.047844         1.3019
  51   0.0000       0.052335         1.4241
  52   0.0000       0.061090         1.6623

MULLIKEN ATOMIC CHARGES
-----------------------
   0 C :    0.041642
   1 C :    0.035922
   2 H :    0.060098
   3 C :   -0.006694
   4 H :    0.084551
   5 C :    0.046915
   6 H :    0.091022
   7 C :    0.003698
   8 H :    0.089872
   9 C :    0.215543
  10 H :    0.079388
  11 O :   -0.309145
  12 O :   -0.426540
  13 O :   -0.418966
  14 O :   -0.430708
  15 O :   -0.417952
  16 O :   -0.445274
  17 H :    0.089763
  18 H :    0.098944
  19 H :    0.302447
  20 H :    0.301870
  21 H :    0.294532
  22 H :    0.311256
  23 H :    0.307815
Sum of atomic charges:   -0.0000000

LOEWDIN ATOMIC CHARGES
----------------------
   0 C :   -0.133793
   1 C :   -0.082400
   2 H :    0.117212
   3 C :   -0.075672
   4 H :    0.110827
   5 C :   -0.068321
   6 H :    0.120091
   7 C :   -0.094474
   8 H :    0.120302
   9 C :   -0.003496
  10 H :    0.111383
  11 O :   -0.140836
  12 O :   -0.315316
  13 O :   -0.313126
  14 O :   -0.325632
  15 O :   -0.305374
  16 O :   -0.326670
  17 H :    0.116292
  18 H :    0.113453
  19 H :    0.273746
  20 H :    0.272157
  21 H :    0.263471
  22 H :    0.291066
  23 H :    0.275108

  Mayer bond orders larger than 0.100000
B(  0-C ,  1-C ) :   1.0282 B(  0-C , 16-O ) :   1.0580 B(  0-C , 17-H ) :   0.9182
B(  0-C , 18-H ) :   0.9131 B(  1-C ,  2-H ) :   0.8818 B(  1-C ,  3-C ) :   0.9616
B(  1-C , 11-O ) :   1.0107 B(  3-C ,  4-H ) :   0.8964 B(  3-C ,  5-C ) :   1.0165
B(  3-C , 15-O ) :   1.0071 B(  5-C ,  6-H ) :   0.8980 B(  5-C ,  7-C ) :   0.9618
B(  5-C , 14-O ) :   1.0756 B(  7-C ,  8-H ) :   0.8976 B(  7-C ,  9-C ) :   0.9860
B(  7-C , 13-O ) :   1.0814 B(  9-C , 10-H ) :   0.9050 B(  9-C , 11-O ) :   1.0549
B(  9-C , 12-O ) :   1.0384 B( 12-O , 19-H ) :   0.7871 B( 12-O , 23-H ) :   0.1348
B( 13-O , 20-H ) :   0.8106 B( 14-O , 19-H ) :   0.1166 B( 14-O , 21-H ) :   0.7548
B( 15-O , 22-H ) :   0.8395 B( 16-O , 21-H ) :   0.1723 B( 16-O , 23-H ) :   0.7700

Dispersion correction           -0.026928887
FINAL SINGLE POINT ENERGY      -685.704727345968

DIPOLE MOMENT
-------------

Method             : SCF
Type of density    : Electron Density
Multiplicity       :   1
Irrep              :   0
Energy             :  -685.8434832027919583 Eh
Relativity type    :
Basis              : AO
                                X                 Y                 Z
Electronic contribution:      2.637107076      -0.432170371       0.425927180
Nuclear contribution   :     -3.915477023       0.656556800       0.193410934
                        -----------------------------------------
Total Dipole Moment    :     -1.278369947       0.224386429       0.619338115
                        -----------------------------------------
Magnitude (a.u.)       :      1.438109416
Magnitude (Debye)      :      3.655383637

Rotational constants in cm-1:             0.041243             0.031741             0.027466
Rotational constants in MHz :          1236.432082           951.574181           823.424233

                             ****ORCA TERMINATED NORMALLY****
TOTAL RUN TIME: 0 days 0 hours 7 minutes 55 seconds 510 msec
