                         Program Version 6.0.1  -  RELEASE   -
|  1> ! pbe def2-sv(p) def2/J RI DEFGRID1 loosescf d4 GCP(DFT/SV(P)) printgap
|  2> %output
|  3>     printlevel normal
|  4> end
|  5> * xyz 0 1
|  6> C -2.1077679686 -1.0164984217 -0.5752689691
|  7> C -1.2507673069 -0.1651174609 0.3699460063
|  8> H -1.8738827397 0.1746098857 1.2050751648
|  9> C -0.6747507093 1.0759162216 -0.3214516478
| 10> H -0.6022317678 0.9068815901 -1.4094534643
| 11> C 0.741470196 1.3314540154 0.203511231
| 12> H 0.7209928149 1.4174366384 1.3006952349
| 13> C 1.6144452335 0.1368523926 -0.1810091721
| 14> H 1.6702246041 0.0794254836 -1.2786083158
| 15> C 0.9571913126 -1.1680828037 0.3211066793
| 16> H 1.6052097759 -1.6211349044 1.0921473304
| 17> O -0.2520401444 -0.974469465 0.9956397113
| 18> O 0.8375140973 -2.0165323332 -0.783553817
| 19> O 2.892517452 0.3494806779 0.3679071651
| 20> O 1.2129650464 2.5234993581 -0.371895648
| 21> O -1.5220519779 2.1601511687 -0.0632465766
| 22> O -2.6320890393 -2.1361486735 0.0934462543
| 23> H -1.4986409676 -1.3361165713 -1.4337867687
| 24> H -2.9489461511 -0.4222669518 -0.9375625121
| 25> H 0.3776468318 -2.8251407035 -0.5237448136
| 26> H 3.4822406318 -0.3569421216 0.0834178807
| 27> H 2.1523252505 2.5904137126 -0.1630530331
| 28> H -1.0361863638 2.9611852652 -0.3012766509
| 29> H -1.9878847419 -2.3940038897 0.7661845198
| 30> *
| 31>
| 32>                          ****END OF INPUT****

CARTESIAN COORDINATES (ANGSTROEM)
---------------------------------
  C     -2.107768   -1.016498   -0.575269
  C     -1.250767   -0.165117    0.369946
  H     -1.873883    0.174610    1.205075
  C     -0.674751    1.075916   -0.321452
  H     -0.602232    0.906882   -1.409453
  C      0.741470    1.331454    0.203511
  H      0.720993    1.417437    1.300695
  C      1.614445    0.136852   -0.181009
  H      1.670225    0.079425   -1.278608
  C      0.957191   -1.168083    0.321107
  H      1.605210   -1.621135    1.092147
  O     -0.252040   -0.974469    0.995640
  O      0.837514   -2.016532   -0.783554
  O      2.892517    0.349481    0.367907
  O      1.212965    2.523499   -0.371896
  O     -1.522052    2.160151   -0.063247
  O     -2.632089   -2.136149    0.093446
  H     -1.498641   -1.336117   -1.433787
  H     -2.948946   -0.422267   -0.937563
  H      0.377647   -2.825141   -0.523745
  H      3.482241   -0.356942    0.083418
  H      2.152325    2.590414   -0.163053
  H     -1.036186    2.961185   -0.301277
  H     -1.987885   -2.394004    0.766185

 Total Charge           Charge          ....    0
 Multiplicity           Mult            ....    1
 Number of Electrons    NEL             ....   96
 Basis Dimension        Dim             ....  192

ORBITAL ENERGIES
----------------

  NO   OCC          E(Eh)            E(eV)
   0   2.0000     -18.785955      -511.1918
   1   2.0000     -18.774696      -510.8855
   2   2.0000     -18.772511      -510.8260
   3   2.0000     -18.761690      -510.5315
   4   2.0000     -18.749145      -510.1902
   5   2.0000     -18.739561      -509.9294
   6   2.0000      -9.997677      -272.0506
   7   2.0000      -9.951402      -270.7914
   8   2.0000      -9.947069      -270.6735
   9   2.0000      -9.946897      -270.6688
  10   2.0000      -9.946601      -270.6608
  11   2.0000      -9.925407      -270.0841
  12   2.0000      -0.995216       -27.0812
  13   2.0000      -0.957037       -26.0423
  14   2.0000      -0.942581       -25.6489
  15   2.0000      -0.929731       -25.2993
  16   2.0000      -0.920873       -25.0582
  17   2.0000      -0.913310       -24.8524
  18   2.0000      -0.713308       -19.4101
  19   2.0000      -0.700083       -19.0502
  20   2.0000      -0.621612       -16.9149
  21   2.0000      -0.590668       -16.0729
  22   2.0000      -0.573059       -15.5937
  23   2.0000      -0.535323       -14.5669
  24   2.0000      -0.512551       -13.9472
  25   2.0000      -0.486458       -13.2372
  26   2.0000      -0.473504       -12.8847
  27   2.0000      -0.469097       -12.7648
  28   2.0000      -0.448356       -12.2004
  29   2.0000      -0.430458       -11.7134
  30   2.0000      -0.419058       -11.4032
  31   2.0000      -0.398351       -10.8397
  32   2.0000      -0.393920       -10.7191
  33   2.0000      -0.387956       -10.5568
  34   2.0000      -0.371688       -10.1141
  35   2.0000      -0.355963        -9.6863
  36   2.0000      -0.336259        -9.1501
  37   2.0000      -0.322865        -8.7856
  38   2.0000      -0.316607        -8.6153
  39   2.0000      -0.294165        -8.0046
  40   2.0000      -0.290288        -7.8991
  41   2.0000      -0.275802        -7.5049
  42   2.0000      -0.254673        -6.9300
  43   2.0000      -0.249924        -6.8008
  44   2.0000      -0.238476        -6.4892
  45   2.0000      -0.229154        -6.2356
  46   2.0000      -0.220345        -5.9959
  47   2.0000      -0.207698        -5.6517
  48   0.0000       0.009419         0.2563
  49   0.0000       0.012681         0.3451
  50   0.0000       0.042076         1.1450
  51   0.0000       0.049069         1.3352
  52   0.0000       0.056629         1.5409

MULLIKEN ATOMIC CHARGES
-----------------------
   0 C :    0.044093
   1 C :    0.027044
   2 H :    0.089177
   3 C :    0.039122
   4 H :    0.060517
   5 C :    0.052701
   6 H :    0.068416
   7 C :    0.020447
   8 H :    0.071859
   9 C :    0.190674
  10 H :    0.056649
  11 O :   -0.327257
  12 O :   -0.397431
  13 O :   -0.417156
  14 O :   -0.427144
  15 O :   -0.413084
  16 O :   -0.439047
  17 H :    0.076650
  18 H :    0.097037
  19 H :    0.305035
  20 H :    0.311114
  21 H :    0.312008
  22 H :    0.309748
  23 H :    0.288826
Sum of atomic charges:    0.0000000

LOEWDIN ATOMIC CHARGES
----------------------
   0 C :   -0.138764
   1 C :   -0.064103
   2 H :    0.126721
   3 C :   -0.063115
   4 H :    0.104005
   5 C :   -0.075652
   6 H :    0.110907
   7 C :   -0.088607
   8 H :    0.111829
   9 C :   -0.006646
  10 H :    0.096152
  11 O :   -0.143073
  12 O :   -0.310988
  13 O :   -0.318817
  14 O :   -0.321524
  15 O :   -0.314906
  16 O :   -0.341985
  17 H :    0.094489
  18 H :    0.119341
  19 H :    0.284421
  20 H :    0.292687
  21 H :    0.291264
  22 H :    0.287620
  23 H :    0.268744

  Mayer bond orders larger than 0.100000
B(  0-C ,  1-C ) :   1.0918 B(  0-C , 16-O ) :   1.0709 B(  0-C , 17-H ) :   0.8932
B(  0-C , 18-H ) :   0.9142 B(  1-C ,  2-H ) :   0.8769 B(  1-C ,  3-C ) :   0.9924
B(  1-C , 11-O ) :   0.9598 B(  3-C ,  4-H ) :   0.8800 B(  3-C ,  5-C ) :   1.0184
B(  3-C , 15-O ) :   1.0913 B(  5-C ,  6-H ) :   0.8703 B(  5-C ,  7-C ) :   1.0312
B(  5-C , 14-O ) :   1.0757 B(  7-C ,  8-H ) :   0.8758 B(  7-C ,  9-C ) :   0.9840
B(  7-C , 13-O ) :   1.0745 B(  9-C , 10-H ) :   0.8915 B(  9-C , 11-O ) :   1.0795
B(  9-C , 12-O ) :   1.1061 B( 12-O , 19-H ) :   0.8315 B( 13-O , 20-H ) :   0.8461
B( 14-O , 21-H ) :   0.8346 B( 15-O , 22-H ) :   0.8330 B( 16-O , 23-H ) :   0.8376

Dispersion correction           -0.024537255
FINAL SINGLE POINT ENERGY      -685.694417547412

DIPOLE MOMENT
-------------

Method             : SCF
Type of density    : Electron Density
Multiplicity       :   1
Irrep              :   0
Energy             :  -685.8260582667267045 Eh
Relativity type    :
Basis              : AO
                                X                 Y                 Z
Electronic contribution:      1.346564473       0.438816596       1.488289371
Nuclear contribution   :      0.065056414      -0.775995414      -1.497509504
                        -----------------------------------------
Total Dipole Moment    :      1.411620887      -0.337178817      -0.009220133
                        -----------------------------------------
Magnitude (a.u.)       :      1.451360774
Magnitude (Debye)      :      3.689065912

Rotational constants in cm-1:             0.041917             0.027181             0.018305
Rotational constants in MHz :          1256.645971           814.877867           548.775180

                             ****ORCA TERMINATED NORMALLY****
TOTAL RUN TIME: 0 days 0 hours 18 minutes 23 seconds 647 msec
