                         Program Version 6.0.1  -  RELEASE   -
|  1> ! pbe def2-sv(p) def2/J RI DEFGRID1 loosescf d4 GCP(DFT/SV(P)) printgap
|  2> %output
|  3>     printlevel normal
|  4> end
|  5> * xyz 0 1
|  6> C -3.6538211019 -0.1738489103 -0.1336523979
|  7> C -2.1629417328 -0.074203458 -0.017640328
|  8> C -1.4764797024 0.9864218143 -0.5935678793
|  9> C -0.1006286276 1.0804897214 -0.5040841943
| 10> C 0.650967182 0.116190712 0.1611939109
| 11> C -0.0435645016 -0.9371915373 0.7456451933
| 12> C -1.4210946357 -1.0318533383 0.6563364092
| 13> C 2.1594378646 0.2324468182 0.2796707227
| 14> C 2.7810120137 0.9832250382 -0.9015387915
| 15> C 2.8408626028 -1.1325252879 0.4124495013
| 16> H -4.1231245432 0.7722570524 0.1313413149
| 17> H -3.9365345363 -0.4095048486 -1.15989627
| 18> H -4.0436676669 -0.9529698572 0.5168618525
| 19> H -2.0282174595 1.7530451347 -1.1200139785
| 20> H 0.3827147289 1.928325585 -0.9628223837
| 21> H 0.484448456 -1.7056604919 1.2874380811
| 22> H -1.9247901951 -1.8675789587 1.1223339862
| 23> H 2.3726784569 0.8057420266 1.1930089576
| 24> H 2.4935059279 2.0308134113 -0.9085727359
| 25> H 2.4764958913 0.5290441447 -1.8418745421
| 26> H 3.8661487747 0.9419478667 -0.8352442258
| 27> H 3.9215846919 -1.010464624 0.3786545097
| 28> H 2.5429229736 -1.7859205737 -0.4048639119
| 29> H 2.595402339 -1.6148081175 1.3546180037
| 30> *
| 31>
| 32>                          ****END OF INPUT****

CARTESIAN COORDINATES (ANGSTROEM)
---------------------------------
  C     -3.653821   -0.173849   -0.133652
  C     -2.162942   -0.074203   -0.017640
  C     -1.476480    0.986422   -0.593568
  C     -0.100629    1.080490   -0.504084
  C      0.650967    0.116191    0.161194
  C     -0.043565   -0.937192    0.745645
  C     -1.421095   -1.031853    0.656336
  C      2.159438    0.232447    0.279671
  C      2.781012    0.983225   -0.901539
  C      2.840863   -1.132525    0.412450
  H     -4.123125    0.772257    0.131341
  H     -3.936535   -0.409505   -1.159896
  H     -4.043668   -0.952970    0.516862
  H     -2.028217    1.753045   -1.120014
  H      0.382715    1.928326   -0.962822
  H      0.484448   -1.705660    1.287438
  H     -1.924790   -1.867579    1.122334
  H      2.372678    0.805742    1.193009
  H      2.493506    2.030813   -0.908573
  H      2.476496    0.529044   -1.841875
  H      3.866149    0.941948   -0.835244
  H      3.921585   -1.010465    0.378655
  H      2.542923   -1.785921   -0.404864
  H      2.595402   -1.614808    1.354618

 Total Charge           Charge          ....    0
 Multiplicity           Mult            ....    1
 Number of Electrons    NEL             ....   74
 Basis Dimension        Dim             ....  168

ORBITAL ENERGIES
----------------

  NO   OCC          E(Eh)            E(eV)
   0   2.0000      -9.899921      -269.3906
   1   2.0000      -9.893988      -269.2291
   2   2.0000      -9.893285      -269.2100
   3   2.0000      -9.881965      -268.9019
   4   2.0000      -9.881572      -268.8912
   5   2.0000      -9.881212      -268.8814
   6   2.0000      -9.880951      -268.8744
   7   2.0000      -9.879315      -268.8298
   8   2.0000      -9.874242      -268.6918
   9   2.0000      -9.874194      -268.6905
  10   2.0000      -0.775647       -21.1064
  11   2.0000      -0.726901       -19.7800
  12   2.0000      -0.676687       -18.4136
  13   2.0000      -0.662797       -18.0356
  14   2.0000      -0.611626       -16.6432
  15   2.0000      -0.607669       -16.5355
  16   2.0000      -0.536053       -14.5868
  17   2.0000      -0.534441       -14.5429
  18   2.0000      -0.498516       -13.5653
  19   2.0000      -0.445962       -12.1352
  20   2.0000      -0.414782       -11.2868
  21   2.0000      -0.412366       -11.2211
  22   2.0000      -0.387082       -10.5330
  23   2.0000      -0.382516       -10.4088
  24   2.0000      -0.373839       -10.1727
  25   2.0000      -0.366864        -9.9829
  26   2.0000      -0.351704        -9.5704
  27   2.0000      -0.341392        -9.2898
  28   2.0000      -0.327308        -8.9065
  29   2.0000      -0.323831        -8.8119
  30   2.0000      -0.316343        -8.6081
  31   2.0000      -0.305816        -8.3217
  32   2.0000      -0.293347        -7.9824
  33   2.0000      -0.280169        -7.6238
  34   2.0000      -0.276048        -7.5117
  35   2.0000      -0.221330        -6.0227
  36   2.0000      -0.206481        -5.6186
  37   0.0000      -0.028915        -0.7868
  38   0.0000      -0.024687        -0.6718
  39   0.0000       0.040626         1.1055
  40   0.0000       0.054090         1.4719
  41   0.0000       0.070352         1.9144

MULLIKEN ATOMIC CHARGES
-----------------------
   0 C :   -0.224288
   1 C :    0.061965
   2 C :   -0.105742
   3 C :   -0.132054
   4 C :    0.137413
   5 C :   -0.131773
   6 C :   -0.111624
   7 C :   -0.146254
   8 C :   -0.256691
   9 C :   -0.255630
  10 H :    0.110655
  11 H :    0.116582
  12 H :    0.100192
  13 H :    0.029104
  14 H :    0.032427
  15 H :    0.031282
  16 H :    0.030027
  17 H :    0.090202
  18 H :    0.112948
  19 H :    0.101728
  20 H :    0.097531
  21 H :    0.097401
  22 H :    0.101446
  23 H :    0.113154
Sum of atomic charges:    0.0000000

LOEWDIN ATOMIC CHARGES
----------------------
   0 C :   -0.323244
   1 C :   -0.052453
   2 C :   -0.122299
   3 C :   -0.122914
   4 C :   -0.037500
   5 C :   -0.123707
   6 C :   -0.125097
   7 C :   -0.143022
   8 C :   -0.329050
   9 C :   -0.328818
  10 H :    0.129259
  11 H :    0.132500
  12 H :    0.123318
  13 H :    0.118730
  14 H :    0.121484
  15 H :    0.121516
  16 H :    0.118833
  17 H :    0.128465
  18 H :    0.117655
  19 H :    0.121416
  20 H :    0.117981
  21 H :    0.117887
  22 H :    0.121345
  23 H :    0.117717

  Mayer bond orders larger than 0.100000
B(  0-C ,  1-C ) :   1.0961 B(  0-C , 10-H ) :   0.9390 B(  0-C , 11-H ) :   0.9343
B(  0-C , 12-H ) :   0.9454 B(  1-C ,  2-C ) :   1.3762 B(  1-C ,  6-C ) :   1.3983
B(  2-C ,  3-C ) :   1.3717 B(  2-C , 13-H ) :   0.9643 B(  3-C ,  4-C ) :   1.3823
B(  3-C , 14-H ) :   0.9558 B(  4-C ,  5-C ) :   1.3940 B(  4-C ,  7-C ) :   0.9967
B(  5-C ,  6-C ) :   1.3561 B(  5-C , 15-H ) :   0.9552 B(  6-C , 16-H ) :   0.9574
B(  7-C ,  8-C ) :   1.1382 B(  7-C ,  9-C ) :   1.1389 B(  7-C , 17-H ) :   0.8729
B(  8-C , 18-H ) :   0.9339 B(  8-C , 19-H ) :   0.9506 B(  8-C , 20-H ) :   0.9462
B(  9-C , 21-H ) :   0.9461 B(  9-C , 22-H ) :   0.9506 B(  9-C , 23-H ) :   0.9336

Dispersion correction           -0.024640461
FINAL SINGLE POINT ENERGY      -388.582386159049

DIPOLE MOMENT
-------------

Method             : SCF
Type of density    : Electron Density
Multiplicity       :   1
Irrep              :   0
Energy             :  -388.6513460389503507 Eh
Relativity type    :
Basis              : AO
                                X                 Y                 Z
Electronic contribution:     -4.751263250       0.584201269       1.184736358
Nuclear contribution   :      4.765481045      -0.549514452      -1.171799526
                        -----------------------------------------
Total Dipole Moment    :      0.014217795       0.034686818       0.012936832
                        -----------------------------------------
Magnitude (a.u.)       :      0.039657063
Magnitude (Debye)      :      0.100800242

Rotational constants in cm-1:             0.110459             0.025942             0.021655
Rotational constants in MHz :          3311.472419           777.713999           649.210695

                             ****ORCA TERMINATED NORMALLY****
TOTAL RUN TIME: 0 days 0 hours 0 minutes 15 seconds 549 msec
