                         Program Version 6.0.1  -  RELEASE   -
|  1> ! r2scan-3c def2/J RI DEFGRID2 scfconv6 printgap
|  2> %output
|  3>     printlevel normal
|  4> end
|  5> * xyz 0 1
|  6> C 1.2577385557 0.3101929052 1.1439496937
|  7> C 0.0317337581 -0.573021402 1.1033483793
|  8> Br -1.2256866918 0.0067547816 -0.269249717
|  9> Cl 2.2499944079 0.0944050111 -0.3285012238
| 10> H 0.9891220422 1.3654806814 1.2002641237
| 11> H 1.8836280359 0.0399196518 1.9958531981
| 12> H -0.5038868008 -0.5242942264 2.0517243097
| 13> H 0.2904935222 -1.6052273988 0.8719977564
| 14> *
| 15>
| 16>                          ****END OF INPUT****

CARTESIAN COORDINATES (ANGSTROEM)
---------------------------------
  C      1.257739    0.310193    1.143950
  C      0.031734   -0.573021    1.103348
  Br    -1.225687    0.006755   -0.269250
  Cl     2.249994    0.094405   -0.328501
  H      0.989122    1.365481    1.200264
  H      1.883628    0.039920    1.995853
  H     -0.503887   -0.524294    2.051724
  H      0.290494   -1.605227    0.871998

 Total Charge           Charge          ....    0
 Multiplicity           Mult            ....    1
 Number of Electrons    NEL             ....   68
 Basis Dimension        Dim             ....  121

ORBITAL ENERGIES
----------------

  NO   OCC          E(Eh)            E(eV)
   0   2.0000    -482.223077    -13121.9570
   1   2.0000    -101.211813     -2754.1134
   2   2.0000     -62.295019     -1695.1336
   3   2.0000     -56.075544     -1525.8931
   4   2.0000     -56.072752     -1525.8171
   5   2.0000     -56.072660     -1525.8147
   6   2.0000     -10.115594      -275.2593
   7   2.0000     -10.111282      -275.1420
   8   2.0000      -9.367771      -254.9100
   9   2.0000      -8.627164      -234.7571
  10   2.0000      -7.114265      -193.5890
  11   2.0000      -7.103738      -193.3025
  12   2.0000      -7.103598      -193.2987
  13   2.0000      -6.435069      -175.1071
  14   2.0000      -6.420863      -174.7206
  15   2.0000      -6.420562      -174.7124
  16   2.0000      -2.532516       -68.9133
  17   2.0000      -2.529054       -68.8191
  18   2.0000      -2.528820       -68.8127
  19   2.0000      -2.518260       -68.5253
  20   2.0000      -2.518242       -68.5248
  21   2.0000      -0.844851       -22.9896
  22   2.0000      -0.774774       -21.0827
  23   2.0000      -0.690673       -18.7942
  24   2.0000      -0.594302       -16.1718
  25   2.0000      -0.465129       -12.6568
  26   2.0000      -0.456154       -12.4126
  27   2.0000      -0.413600       -11.2546
  28   2.0000      -0.377691       -10.2775
  29   2.0000      -0.359170        -9.7735
  30   2.0000      -0.281345        -7.6558
  31   2.0000      -0.278618        -7.5816
  32   2.0000      -0.261545        -7.1170
  33   2.0000      -0.256817        -6.9883
  34   0.0000      -0.037734        -1.0268
  35   0.0000      -0.000769        -0.0209
  36   0.0000       0.086287         2.3480
  37   0.0000       0.106395         2.8952
  38   0.0000       0.137540         3.7427

MULLIKEN ATOMIC CHARGES
-----------------------
   0 C :   -0.164946
   1 C :   -0.210024
   2 Br:   -0.139056
   3 Cl:   -0.169346
   4 H :    0.175046
   5 H :    0.163684
   6 H :    0.167753
   7 H :    0.176889
Sum of atomic charges:   -0.0000000

LOEWDIN ATOMIC CHARGES
----------------------
   0 C :   -0.350944
   1 C :   -0.421154
   2 Br:    0.092354
   3 Cl:    0.017645
   4 H :    0.166324
   5 H :    0.164364
   6 H :    0.164287
   7 H :    0.167124

  Mayer bond orders larger than 0.100000
B(  0-C ,  1-C ) :   0.9459 B(  0-C ,  3-Cl) :   0.9924 B(  0-C ,  4-H ) :   0.9535
B(  0-C ,  5-H ) :   0.9380 B(  1-C ,  2-Br) :   1.0005 B(  1-C ,  6-H ) :   0.9404
B(  1-C ,  7-H ) :   0.9532

Dispersion correction           -0.001967262
FINAL SINGLE POINT ENERGY     -3112.908065006633

DIPOLE MOMENT
-------------

Method             : SCF
Type of density    : Electron Density
Multiplicity       :   1
Irrep              :   0
Energy             : -3112.9125591608708419 Eh
Relativity type    :
Basis              : AO
                                X                 Y                 Z
Electronic contribution:    -10.772706177       0.741276254      -7.581630365
Nuclear contribution   :     10.855740674      -0.868787571       8.682471545
                        -----------------------------------------
Total Dipole Moment    :      0.083034496      -0.127511316       1.100841180
                        -----------------------------------------
Magnitude (a.u.)       :      1.111307863
Magnitude (Debye)      :      2.824720104

Rotational constants in cm-1:             0.288790             0.050415             0.044914
Rotational constants in MHz :          8657.701397          1511.409834          1346.491198

                             ****ORCA TERMINATED NORMALLY****
TOTAL RUN TIME: 0 days 0 hours 0 minutes 17 seconds 22 msec
