                         Program Version 6.0.1  -  RELEASE   -
|  1> ! pbe def2-sv(p) def2/J RI DEFGRID1 loosescf d4 GCP(DFT/SV(P)) printgap
|  2> %output
|  3>     printlevel normal
|  4> end
|  5> * xyz 0 1
|  6> C -2.3248525337 -0.8626712907 0.6213856587
|  7> C -0.8863902474 -0.3427026945 0.7934599783
|  8> H -0.7029971631 -0.0786454382 1.8471990799
|  9> C -0.6742403017 0.9051698784 -0.0735431149
| 10> H -1.0415129518 0.6833092272 -1.0841662917
| 11> C 0.8171683852 1.312065827 -0.1541227077
| 12> H 0.9800865294 2.1777185321 0.5054240717
| 13> C 1.7528109997 0.1941065656 0.327823594
| 14> H 2.7377628613 0.3562744623 -0.1366094323
| 15> C 1.2010576909 -1.1529720397 -0.1563776769
| 16> H 1.843123049 -1.9864369597 0.1660724781
| 17> O -0.0459070103 -1.4322863014 0.4335732186
| 18> O 1.1563252433 -1.2123642858 -1.5427409016
| 19> O 1.8302783166 0.2719680238 1.728628816
| 20> O 1.1834195082 1.6244788602 -1.4823304695
| 21> O -1.4630849108 1.9763881134 0.378016316
| 22> O -2.5254520285 -1.3442498815 -0.6759313785
| 23> H -3.0350917424 -0.04815454 0.7756980101
| 24> H -2.5027825489 -1.6524394338 1.3641400919
| 25> H 1.0165141079 -0.3254250306 -1.9110017636
| 26> H 2.3367932461 -0.4782518111 2.0597650096
| 27> H 0.6370270555 2.3587838267 -1.7867831249
| 28> H -1.2768742674 2.1337495908 1.3117330062
| 29> H -1.7803938048 -1.9296083433 -0.8757332112
| 30> *
| 31>
| 32>                          ****END OF INPUT****

CARTESIAN COORDINATES (ANGSTROEM)
---------------------------------
  C     -2.324853   -0.862671    0.621386
  C     -0.886390   -0.342703    0.793460
  H     -0.702997   -0.078645    1.847199
  C     -0.674240    0.905170   -0.073543
  H     -1.041513    0.683309   -1.084166
  C      0.817168    1.312066   -0.154123
  H      0.980087    2.177719    0.505424
  C      1.752811    0.194107    0.327824
  H      2.737763    0.356274   -0.136609
  C      1.201058   -1.152972   -0.156378
  H      1.843123   -1.986437    0.166072
  O     -0.045907   -1.432286    0.433573
  O      1.156325   -1.212364   -1.542741
  O      1.830278    0.271968    1.728629
  O      1.183420    1.624479   -1.482330
  O     -1.463085    1.976388    0.378016
  O     -2.525452   -1.344250   -0.675931
  H     -3.035092   -0.048155    0.775698
  H     -2.502783   -1.652439    1.364140
  H      1.016514   -0.325425   -1.911002
  H      2.336793   -0.478252    2.059765
  H      0.637027    2.358784   -1.786783
  H     -1.276874    2.133750    1.311733
  H     -1.780394   -1.929608   -0.875733

 Total Charge           Charge          ....    0
 Multiplicity           Mult            ....    1
 Number of Electrons    NEL             ....   96
 Basis Dimension        Dim             ....  192

ORBITAL ENERGIES
----------------

  NO   OCC          E(Eh)            E(eV)
   0   2.0000     -18.781507      -511.0708
   1   2.0000     -18.773763      -510.8601
   2   2.0000     -18.772676      -510.8305
   3   2.0000     -18.763671      -510.5854
   4   2.0000     -18.753458      -510.3075
   5   2.0000     -18.737034      -509.8606
   6   2.0000      -9.989315      -271.8231
   7   2.0000      -9.958121      -270.9742
   8   2.0000      -9.956388      -270.9271
   9   2.0000      -9.948324      -270.7077
  10   2.0000      -9.944642      -270.6075
  11   2.0000      -9.925072      -270.0750
  12   2.0000      -0.985514       -26.8172
  13   2.0000      -0.957771       -26.0623
  14   2.0000      -0.946858       -25.7653
  15   2.0000      -0.941744       -25.6262
  16   2.0000      -0.922114       -25.0920
  17   2.0000      -0.905131       -24.6299
  18   2.0000      -0.711515       -19.3613
  19   2.0000      -0.694083       -18.8870
  20   2.0000      -0.618813       -16.8388
  21   2.0000      -0.604860       -16.4591
  22   2.0000      -0.563365       -15.3299
  23   2.0000      -0.528168       -14.3722
  24   2.0000      -0.522190       -14.2095
  25   2.0000      -0.502650       -13.6778
  26   2.0000      -0.476381       -12.9630
  27   2.0000      -0.468173       -12.7396
  28   2.0000      -0.442343       -12.0368
  29   2.0000      -0.434812       -11.8318
  30   2.0000      -0.431526       -11.7424
  31   2.0000      -0.402930       -10.9643
  32   2.0000      -0.386027       -10.5043
  33   2.0000      -0.377752       -10.2792
  34   2.0000      -0.360164        -9.8006
  35   2.0000      -0.359362        -9.7787
  36   2.0000      -0.338495        -9.2109
  37   2.0000      -0.327280        -8.9057
  38   2.0000      -0.316877        -8.6227
  39   2.0000      -0.298703        -8.1281
  40   2.0000      -0.279549        -7.6069
  41   2.0000      -0.272899        -7.4260
  42   2.0000      -0.259259        -7.0548
  43   2.0000      -0.257317        -7.0019
  44   2.0000      -0.238380        -6.4867
  45   2.0000      -0.228432        -6.2159
  46   2.0000      -0.218848        -5.9552
  47   2.0000      -0.208494        -5.6734
  48   0.0000       0.004391         0.1195
  49   0.0000       0.017842         0.4855
  50   0.0000       0.028692         0.7807
  51   0.0000       0.052461         1.4275
  52   0.0000       0.060370         1.6427

MULLIKEN ATOMIC CHARGES
-----------------------
   0 C :    0.108538
   1 C :   -0.003665
   2 H :    0.047441
   3 C :    0.027909
   4 H :    0.054877
   5 C :    0.065355
   6 H :    0.064719
   7 C :    0.011305
   8 H :    0.089911
   9 C :    0.180132
  10 H :    0.059288
  11 O :   -0.316267
  12 O :   -0.397614
  13 O :   -0.413020
  14 O :   -0.415115
  15 O :   -0.416533
  16 O :   -0.438989
  17 H :    0.081253
  18 H :    0.076902
  19 H :    0.304971
  20 H :    0.310302
  21 H :    0.318077
  22 H :    0.301513
  23 H :    0.298709
Sum of atomic charges:    0.0000000

LOEWDIN ATOMIC CHARGES
----------------------
   0 C :   -0.125354
   1 C :   -0.084807
   2 H :    0.101685
   3 C :   -0.087976
   4 H :    0.116994
   5 C :   -0.071178
   6 H :    0.111739
   7 C :   -0.089489
   8 H :    0.113724
   9 C :   -0.011036
  10 H :    0.100309
  11 O :   -0.147435
  12 O :   -0.307456
  13 O :   -0.310114
  14 O :   -0.308643
  15 O :   -0.306646
  16 O :   -0.331637
  17 H :    0.115542
  18 H :    0.099003
  19 H :    0.272673
  20 H :    0.293040
  21 H :    0.297370
  22 H :    0.283455
  23 H :    0.276237

  Mayer bond orders larger than 0.100000
B(  0-C ,  1-C ) :   1.0273 B(  0-C , 16-O ) :   1.0731 B(  0-C , 17-H ) :   0.9135
B(  0-C , 18-H ) :   0.9112 B(  1-C ,  2-H ) :   0.8622 B(  1-C ,  3-C ) :   1.0539
B(  1-C , 11-O ) :   0.9764 B(  3-C ,  4-H ) :   0.8426 B(  3-C ,  5-C ) :   0.9890
B(  3-C , 15-O ) :   1.0102 B(  5-C ,  6-H ) :   0.8641 B(  5-C ,  7-C ) :   1.0086
B(  5-C , 14-O ) :   1.0390 B(  7-C ,  8-H ) :   0.8861 B(  7-C ,  9-C ) :   1.0129
B(  7-C , 13-O ) :   1.0281 B(  9-C , 10-H ) :   0.9023 B(  9-C , 11-O ) :   1.0415
B(  9-C , 12-O ) :   1.1496 B( 12-O , 19-H ) :   0.8029 B( 13-O , 20-H ) :   0.8453
B( 14-O , 19-H ) :   0.1067 B( 14-O , 21-H ) :   0.8403 B( 15-O , 22-H ) :   0.8468
B( 16-O , 23-H ) :   0.8266

Dispersion correction           -0.025367754
FINAL SINGLE POINT ENERGY      -685.695050129455

DIPOLE MOMENT
-------------

Method             : SCF
Type of density    : Electron Density
Multiplicity       :   1
Irrep              :   0
Energy             :  -685.8278991775913482 Eh
Relativity type    :
Basis              : AO
                                X                 Y                 Z
Electronic contribution:      1.584443409      -0.462786983      -1.247274128
Nuclear contribution   :     -0.737593776       1.134286430       2.080306081
                        -----------------------------------------
Total Dipole Moment    :      0.846849632       0.671499447       0.833031953
                        -----------------------------------------
Magnitude (a.u.)       :      1.364554155
Magnitude (Debye)      :      3.468421022

Rotational constants in cm-1:             0.039453             0.028054             0.024338
Rotational constants in MHz :          1182.776559           841.024648           729.629765

                             ****ORCA TERMINATED NORMALLY****
TOTAL RUN TIME: 0 days 0 hours 0 minutes 9 seconds 160 msec
