                         Program Version 6.0.1  -  RELEASE   -
|  1> ! pbe def2-sv(p) def2/J RI DEFGRID1 loosescf d4 GCP(DFT/SV(P)) printgap
|  2> %output
|  3>     printlevel normal
|  4> end
|  5> * xyz 0 1
|  6> C -2.2193236485 -1.0714194953 0.3190601817
|  7> C -0.9499577657 -0.3887522015 0.8725256972
|  8> H -1.110462053 -0.1810591265 1.9402472889
|  9> C -0.7268759002 0.9484374721 0.1324417688
| 10> H -1.2614189129 0.8751698129 -0.8254673424
| 11> C 0.7458380119 1.3199591945 -0.1932563531
| 12> H 1.0104377677 2.2234852702 0.376169952
| 13> C 1.7738448887 0.225026 0.1621284268
| 14> H 2.6613820278 0.3878183686 -0.4570597987
| 15> C 1.1294969297 -1.1325675085 -0.1365165974
| 16> H 1.8287217576 -1.9563411927 0.0587219634
| 17> O 0.1237750785 -1.3295259716 0.8308550481
| 18> O 0.6712701595 -1.2491993838 -1.4410662461
| 19> O 2.165550339 0.2885487867 1.5037913343
| 20> O 0.892396093 1.5531676141 -1.5822572782
| 21> O -1.3709458844 1.9974979673 0.8135419988
| 22> O -2.1665176355 -1.2459227074 -1.0670649732
| 23> H -3.0867813358 -0.4401961923 0.5242711035
| 24> H -2.3375178013 -2.0335614625 0.8360936841
| 25> H 0.6219398141 -0.3704240976 -1.8542110169
| 26> H 1.5746296803 -0.2875816437 2.0113721001
| 27> H 0.3406786129 2.3018294677 -1.8373817555
| 28> H -0.9895728965 2.0973507172 1.6942855701
| 29> H -1.3175337569 -1.6641744115 -1.2910135339
| 30> *
| 31>
| 32>                          ****END OF INPUT****

CARTESIAN COORDINATES (ANGSTROEM)
---------------------------------
  C     -2.219324   -1.071419    0.319060
  C     -0.949958   -0.388752    0.872526
  H     -1.110462   -0.181059    1.940247
  C     -0.726876    0.948437    0.132442
  H     -1.261419    0.875170   -0.825467
  C      0.745838    1.319959   -0.193256
  H      1.010438    2.223485    0.376170
  C      1.773845    0.225026    0.162128
  H      2.661382    0.387818   -0.457060
  C      1.129497   -1.132568   -0.136517
  H      1.828722   -1.956341    0.058722
  O      0.123775   -1.329526    0.830855
  O      0.671270   -1.249199   -1.441066
  O      2.165550    0.288549    1.503791
  O      0.892396    1.553168   -1.582257
  O     -1.370946    1.997498    0.813542
  O     -2.166518   -1.245923   -1.067065
  H     -3.086781   -0.440196    0.524271
  H     -2.337518   -2.033561    0.836094
  H      0.621940   -0.370424   -1.854211
  H      1.574630   -0.287582    2.011372
  H      0.340679    2.301829   -1.837382
  H     -0.989573    2.097351    1.694286
  H     -1.317534   -1.664174   -1.291014

 Total Charge           Charge          ....    0
 Multiplicity           Mult            ....    1
 Number of Electrons    NEL             ....   96
 Basis Dimension        Dim             ....  192

ORBITAL ENERGIES
----------------

  NO   OCC          E(Eh)            E(eV)
   0   2.0000     -18.784779      -511.1598
   1   2.0000     -18.783857      -511.1347
   2   2.0000     -18.777191      -510.9533
   3   2.0000     -18.764409      -510.6055
   4   2.0000     -18.761829      -510.5353
   5   2.0000     -18.741184      -509.9735
   6   2.0000      -9.997310      -272.0406
   7   2.0000      -9.956727      -270.9363
   8   2.0000      -9.955149      -270.8934
   9   2.0000      -9.953064      -270.8366
  10   2.0000      -9.952659      -270.8256
  11   2.0000      -9.930898      -270.2335
  12   2.0000      -0.998682       -27.1755
  13   2.0000      -0.960478       -26.1359
  14   2.0000      -0.944308       -25.6959
  15   2.0000      -0.941612       -25.6226
  16   2.0000      -0.926346       -25.2071
  17   2.0000      -0.916670       -24.9438
  18   2.0000      -0.709499       -19.3065
  19   2.0000      -0.699201       -19.0262
  20   2.0000      -0.623325       -16.9615
  21   2.0000      -0.612243       -16.6600
  22   2.0000      -0.568314       -15.4646
  23   2.0000      -0.534961       -14.5570
  24   2.0000      -0.521650       -14.1948
  25   2.0000      -0.502845       -13.6831
  26   2.0000      -0.479995       -13.0613
  27   2.0000      -0.477269       -12.9872
  28   2.0000      -0.454623       -12.3709
  29   2.0000      -0.446278       -12.1438
  30   2.0000      -0.419955       -11.4276
  31   2.0000      -0.400102       -10.8873
  32   2.0000      -0.393418       -10.7054
  33   2.0000      -0.386648       -10.5212
  34   2.0000      -0.365508        -9.9460
  35   2.0000      -0.356594        -9.7034
  36   2.0000      -0.348764        -9.4903
  37   2.0000      -0.329186        -8.9576
  38   2.0000      -0.323116        -8.7924
  39   2.0000      -0.295015        -8.0278
  40   2.0000      -0.288984        -7.8637
  41   2.0000      -0.279743        -7.6122
  42   2.0000      -0.274012        -7.4562
  43   2.0000      -0.264895        -7.2082
  44   2.0000      -0.244235        -6.6460
  45   2.0000      -0.232297        -6.3211
  46   2.0000      -0.224492        -6.1087
  47   2.0000      -0.208744        -5.6802
  48   0.0000       0.006360         0.1731
  49   0.0000       0.012974         0.3530
  50   0.0000       0.035793         0.9740
  51   0.0000       0.052537         1.4296
  52   0.0000       0.060972         1.6591

MULLIKEN ATOMIC CHARGES
-----------------------
   0 C :    0.082610
   1 C :   -0.020453
   2 H :    0.055391
   3 C :    0.042173
   4 H :    0.075283
   5 C :    0.021808
   6 H :    0.070196
   7 C :    0.045991
   8 H :    0.093634
   9 C :    0.162185
  10 H :    0.085388
  11 O :   -0.320584
  12 O :   -0.408407
  13 O :   -0.415238
  14 O :   -0.417933
  15 O :   -0.418603
  16 O :   -0.443126
  17 H :    0.089808
  18 H :    0.081768
  19 H :    0.316796
  20 H :    0.303638
  21 H :    0.318812
  22 H :    0.297183
  23 H :    0.301681
Sum of atomic charges:   -0.0000000

LOEWDIN ATOMIC CHARGES
----------------------
   0 C :   -0.124981
   1 C :   -0.088305
   2 H :    0.108778
   3 C :   -0.090451
   4 H :    0.119814
   5 C :   -0.082584
   6 H :    0.110936
   7 C :   -0.087304
   8 H :    0.123107
   9 C :   -0.010324
  10 H :    0.111047
  11 O :   -0.151113
  12 O :   -0.296055
  13 O :   -0.310895
  14 O :   -0.310716
  15 O :   -0.311128
  16 O :   -0.336630
  17 H :    0.117115
  18 H :    0.102449
  19 H :    0.279690
  20 H :    0.279636
  21 H :    0.297355
  22 H :    0.280181
  23 H :    0.270378

  Mayer bond orders larger than 0.100000
B(  0-C ,  1-C ) :   1.0400 B(  0-C , 16-O ) :   1.0927 B(  0-C , 17-H ) :   0.9188
B(  0-C , 18-H ) :   0.9064 B(  1-C ,  2-H ) :   0.8887 B(  1-C ,  3-C ) :   0.9840
B(  1-C , 11-O ) :   0.9439 B(  3-C ,  4-H ) :   0.8597 B(  3-C ,  5-C ) :   0.9719
B(  3-C , 15-O ) :   1.0134 B(  5-C ,  6-H ) :   0.8840 B(  5-C ,  7-C ) :   0.9566
B(  5-C , 14-O ) :   1.0158 B(  7-C ,  8-H ) :   0.8890 B(  7-C ,  9-C ) :   1.0322
B(  7-C , 13-O ) :   1.0838 B(  9-C , 10-H ) :   0.9099 B(  9-C , 11-O ) :   1.0191
B(  9-C , 12-O ) :   1.0966 B( 12-O , 19-H ) :   0.7832 B( 13-O , 20-H ) :   0.8241
B( 14-O , 19-H ) :   0.1196 B( 14-O , 21-H ) :   0.8385 B( 15-O , 22-H ) :   0.8480
B( 16-O , 23-H ) :   0.7965

Dispersion correction           -0.025911596
FINAL SINGLE POINT ENERGY      -685.693670289802

DIPOLE MOMENT
-------------

Method             : SCF
Type of density    : Electron Density
Multiplicity       :   1
Irrep              :   0
Energy             :  -685.8293119647412368 Eh
Relativity type    :
Basis              : AO
                                X                 Y                 Z
Electronic contribution:      2.135245198      -0.250363809      -0.582961021
Nuclear contribution   :     -1.933113265       0.893649747       1.089356314
                        -----------------------------------------
Total Dipole Moment    :      0.202131933       0.643285938       0.506395293
                        -----------------------------------------
Magnitude (a.u.)       :      0.843273567
Magnitude (Debye)      :      2.143431065

Rotational constants in cm-1:             0.038790             0.029555             0.026043
Rotational constants in MHz :          1162.902627           886.041855           780.747169

                             ****ORCA TERMINATED NORMALLY****
TOTAL RUN TIME: 0 days 0 hours 0 minutes 8 seconds 952 msec
