                         Program Version 6.0.1  -  RELEASE   -
|  1> ! pbe def2-sv(p) def2/J RI DEFGRID1 loosescf d4 GCP(DFT/SV(P)) printgap
|  2> %output
|  3>     printlevel normal
|  4> end
|  5> * xyz 0 1
|  6> C -2.0886354661 -1.2328274653 -0.1756546774
|  7> C -1.2349400301 -0.3818822397 0.7904800412
|  8> H -1.8168847755 -0.2467029224 1.709959286
|  9> C -0.9164958998 0.9977226998 0.182968916
| 10> H -1.2382044096 1.0138588435 -0.8652780596
| 11> C 0.5910466793 1.297261361 0.2248701299
| 12> H 0.9188355979 1.4162075395 1.2727130731
| 13> C 1.3661680582 0.1284859492 -0.3859871772
| 14> H 1.0566503048 0.023837735 -1.4336547366
| 15> C 1.0149489303 -1.1698152889 0.3787292334
| 16> H 1.860762381 -1.4177044953 1.0385554494
| 17> O -0.0683258393 -1.0591242792 1.2520030124
| 18> O 0.8292637997 -2.1930181061 -0.5704003143
| 19> O 2.7403349276 0.3895391706 -0.2852612622
| 20> O 0.862485247 2.4617894094 -0.5045742801
| 21> O -1.6309140725 2.0417785418 0.8004429553
| 22> O -1.6183894449 -1.251852317 -1.4920971197
| 23> H -3.0876084893 -0.7929855027 -0.2187683703
| 24> H -2.1670320775 -2.2494943728 0.2363721613
| 25> H 0.6528125218 -3.0226530513 -0.1084807765
| 26> H 3.2127321545 -0.1157611344 -0.9544438994
| 27> H 0.1515992786 3.0914746271 -0.3219345599
| 28> H -1.3934808359 2.0775287613 1.7357306379
| 29> H -0.731554292 -1.6517342496 -1.4938209594
| 30> *
| 31>
| 32>                          ****END OF INPUT****

CARTESIAN COORDINATES (ANGSTROEM)
---------------------------------
  C     -2.088635   -1.232827   -0.175655
  C     -1.234940   -0.381882    0.790480
  H     -1.816885   -0.246703    1.709959
  C     -0.916496    0.997723    0.182969
  H     -1.238204    1.013859   -0.865278
  C      0.591047    1.297261    0.224870
  H      0.918836    1.416208    1.272713
  C      1.366168    0.128486   -0.385987
  H      1.056650    0.023838   -1.433655
  C      1.014949   -1.169815    0.378729
  H      1.860762   -1.417704    1.038555
  O     -0.068326   -1.059124    1.252003
  O      0.829264   -2.193018   -0.570400
  O      2.740335    0.389539   -0.285261
  O      0.862485    2.461789   -0.504574
  O     -1.630914    2.041779    0.800443
  O     -1.618389   -1.251852   -1.492097
  H     -3.087608   -0.792986   -0.218768
  H     -2.167032   -2.249494    0.236372
  H      0.652813   -3.022653   -0.108481
  H      3.212732   -0.115761   -0.954444
  H      0.151599    3.091475   -0.321935
  H     -1.393481    2.077529    1.735731
  H     -0.731554   -1.651734   -1.493821

 Total Charge           Charge          ....    0
 Multiplicity           Mult            ....    1
 Number of Electrons    NEL             ....   96
 Basis Dimension        Dim             ....  192

ORBITAL ENERGIES
----------------

  NO   OCC          E(Eh)            E(eV)
   0   2.0000     -18.790891      -511.3261
   1   2.0000     -18.777931      -510.9735
   2   2.0000     -18.764636      -510.6117
   3   2.0000     -18.754112      -510.3253
   4   2.0000     -18.741540      -509.9832
   5   2.0000     -18.740342      -509.9506
   6   2.0000      -9.994857      -271.9739
   7   2.0000      -9.948324      -270.7076
   8   2.0000      -9.947989      -270.6985
   9   2.0000      -9.942756      -270.5561
  10   2.0000      -9.941885      -270.5325
  11   2.0000      -9.933116      -270.2938
  12   2.0000      -0.996424       -27.1141
  13   2.0000      -0.950795       -25.8724
  14   2.0000      -0.937228       -25.5033
  15   2.0000      -0.929494       -25.2928
  16   2.0000      -0.918545       -24.9949
  17   2.0000      -0.913975       -24.8705
  18   2.0000      -0.704604       -19.1733
  19   2.0000      -0.699335       -19.0299
  20   2.0000      -0.621826       -16.9207
  21   2.0000      -0.595887       -16.2149
  22   2.0000      -0.572351       -15.5745
  23   2.0000      -0.522117       -14.2075
  24   2.0000      -0.510380       -13.8881
  25   2.0000      -0.492278       -13.3956
  26   2.0000      -0.479919       -13.0593
  27   2.0000      -0.461417       -12.5558
  28   2.0000      -0.454381       -12.3643
  29   2.0000      -0.431233       -11.7344
  30   2.0000      -0.420933       -11.4542
  31   2.0000      -0.395800       -10.7703
  32   2.0000      -0.393597       -10.7103
  33   2.0000      -0.386141       -10.5074
  34   2.0000      -0.364807        -9.9269
  35   2.0000      -0.355367        -9.6700
  36   2.0000      -0.338412        -9.2087
  37   2.0000      -0.318245        -8.6599
  38   2.0000      -0.297626        -8.0988
  39   2.0000      -0.294921        -8.0252
  40   2.0000      -0.285904        -7.7798
  41   2.0000      -0.273790        -7.4502
  42   2.0000      -0.269666        -7.3380
  43   2.0000      -0.249423        -6.7871
  44   2.0000      -0.241331        -6.5670
  45   2.0000      -0.224853        -6.1186
  46   2.0000      -0.216859        -5.9010
  47   2.0000      -0.201264        -5.4767
  48   0.0000       0.011185         0.3043
  49   0.0000       0.020151         0.5483
  50   0.0000       0.026552         0.7225
  51   0.0000       0.046026         1.2524
  52   0.0000       0.062694         1.7060

MULLIKEN ATOMIC CHARGES
-----------------------
   0 C :    0.021138
   1 C :    0.044670
   2 H :    0.060599
   3 C :    0.003429
   4 H :    0.092852
   5 C :    0.083002
   6 H :    0.045140
   7 C :    0.015378
   8 H :    0.070396
   9 C :    0.179850
  10 H :    0.072071
  11 O :   -0.302133
  12 O :   -0.410880
  13 O :   -0.394968
  14 O :   -0.401909
  15 O :   -0.415877
  16 O :   -0.440147
  17 H :    0.095920
  18 H :    0.069040
  19 H :    0.310642
  20 H :    0.305646
  21 H :    0.297843
  22 H :    0.298633
  23 H :    0.299665
Sum of atomic charges:   -0.0000000

LOEWDIN ATOMIC CHARGES
----------------------
   0 C :   -0.135917
   1 C :   -0.079615
   2 H :    0.117868
   3 C :   -0.086034
   4 H :    0.124887
   5 C :   -0.070859
   6 H :    0.099629
   7 C :   -0.077617
   8 H :    0.113598
   9 C :   -0.011673
  10 H :    0.106318
  11 O :   -0.142927
  12 O :   -0.308581
  13 O :   -0.307103
  14 O :   -0.313380
  15 O :   -0.309049
  16 O :   -0.342511
  17 H :    0.120891
  18 H :    0.094683
  19 H :    0.289311
  20 H :    0.292343
  21 H :    0.280264
  22 H :    0.282629
  23 H :    0.262844

  Mayer bond orders larger than 0.100000
B(  0-C ,  1-C ) :   1.0305 B(  0-C , 16-O ) :   1.1037 B(  0-C , 17-H ) :   0.9189
B(  0-C , 18-H ) :   0.9103 B(  1-C ,  2-H ) :   0.8819 B(  1-C ,  3-C ) :   0.9609
B(  1-C , 11-O ) :   1.0061 B(  3-C ,  4-H ) :   0.8649 B(  3-C ,  5-C ) :   1.0235
B(  3-C , 15-O ) :   1.0069 B(  5-C ,  6-H ) :   0.8632 B(  5-C ,  7-C ) :   1.0042
B(  5-C , 14-O ) :   1.1129 B(  7-C ,  8-H ) :   0.8821 B(  7-C ,  9-C ) :   0.9837
B(  7-C , 13-O ) :   1.1067 B(  9-C , 10-H ) :   0.8876 B(  9-C , 11-O ) :   1.0921
B(  9-C , 12-O ) :   1.0432 B( 12-O , 19-H ) :   0.8330 B( 12-O , 23-H ) :   0.1211
B( 13-O , 20-H ) :   0.8499 B( 14-O , 21-H ) :   0.8319 B( 15-O , 22-H ) :   0.8492
B( 16-O , 23-H ) :   0.7868

Dispersion correction           -0.025207366
FINAL SINGLE POINT ENERGY      -685.695494695267

DIPOLE MOMENT
-------------

Method             : SCF
Type of density    : Electron Density
Multiplicity       :   1
Irrep              :   0
Energy             :  -685.8280031302409725 Eh
Relativity type    :
Basis              : AO
                                X                 Y                 Z
Electronic contribution:      2.535681551       0.856797862       0.212275522
Nuclear contribution   :     -2.405256597      -1.752486593       0.548190025
                        -----------------------------------------
Total Dipole Moment    :      0.130424953      -0.895688731       0.760465547
                        -----------------------------------------
Magnitude (a.u.)       :      1.182191533
Magnitude (Debye)      :      3.004892073

Rotational constants in cm-1:             0.035849             0.032593             0.021490
Rotational constants in MHz :          1074.712142           977.109329           644.256702

                             ****ORCA TERMINATED NORMALLY****
TOTAL RUN TIME: 0 days 0 hours 0 minutes 8 seconds 790 msec
