                         Program Version 6.0.0  -   RELEASE  -
|  1> ! r2SCAN-3c DEF2-TZVP FREQ
|  2> * xyzfile 0 1 censo.xyz
|  3>
|  4>                          ****END OF INPUT****

CARTESIAN COORDINATES (ANGSTROEM)
---------------------------------
  C     -2.080552   -0.017635    0.091551
  C     -0.765051    0.664982   -0.276648
  C      0.482129    0.020023    0.342678
  C      0.649048   -1.437539   -0.089362
  C      1.728910    0.827222   -0.021065
  H     -2.935844    0.548162   -0.291964
  H     -2.192030   -0.093531    1.179475
  H     -2.144469   -1.028530   -0.322679
  H     -0.647847    0.673582   -1.369822
  H     -0.804949    1.715787    0.038875
  H      0.363475    0.042753    1.436171
  H      1.570227   -1.863359    0.323090
  H      0.706711   -1.508396   -1.182979
  H     -0.183324   -2.063946    0.245346
  H      1.637360    1.870425    0.301161
  H      1.883641    0.823627   -1.107265
  H      2.626189    0.406433    0.445507

 Total Charge           Charge          ....    0
 Multiplicity           Mult            ....    1
 Number of Electrons    NEL             ....   42
 Basis Dimension        Dim             ....  227

ORBITAL ENERGIES
----------------

  NO   OCC          E(Eh)            E(eV)
   0   2.0000     -10.032671      -273.0029
   1   2.0000     -10.023029      -272.7405
   2   2.0000     -10.015833      -272.5447
   3   2.0000     -10.014614      -272.5115
   4   2.0000     -10.014323      -272.5036
   5   2.0000      -0.774487       -21.0749
   6   2.0000      -0.696705       -18.9583
   7   2.0000      -0.646271       -17.5859
   8   2.0000      -0.589545       -16.0423
   9   2.0000      -0.520442       -14.1619
  10   2.0000      -0.433452       -11.7948
  11   2.0000      -0.411396       -11.1947
  12   2.0000      -0.395155       -10.7527
  13   2.0000      -0.379022       -10.3137
  14   2.0000      -0.351084        -9.5535
  15   2.0000      -0.346849        -9.4382
  16   2.0000      -0.326948        -8.8967
  17   2.0000      -0.315896        -8.5960
  18   2.0000      -0.291243        -7.9251
  19   2.0000      -0.288019        -7.8374
  20   2.0000      -0.283020        -7.7014
  21   0.0000       0.041902         1.1402
  22   0.0000       0.071959         1.9581
  23   0.0000       0.078307         2.1308
  24   0.0000       0.088695         2.4135
  25   0.0000       0.109586         2.9820

MULLIKEN ATOMIC CHARGES
-----------------------
   0 C :   -0.336555
   1 C :   -0.140234
   2 C :    0.019339
   3 C :   -0.348625
   4 C :   -0.322678
   5 H :    0.107357
   6 H :    0.098833
   7 H :    0.106092
   8 H :    0.075113
   9 H :    0.081137
  10 H :    0.047017
  11 H :    0.103810
  12 H :    0.096807
  13 H :    0.110459
  14 H :    0.102632
  15 H :    0.096027
  16 H :    0.103468
Sum of atomic charges:    0.0000000

LOEWDIN ATOMIC CHARGES
----------------------
   0 C :   -0.311216
   1 C :   -0.274032
   2 C :   -0.319050
   3 C :   -0.287086
   4 C :   -0.287534
   5 H :    0.117646
   6 H :    0.118030
   7 H :    0.116066
   8 H :    0.133423
   9 H :    0.133866
  10 H :    0.145064
  11 H :    0.119712
  12 H :    0.120547
  13 H :    0.118083
  14 H :    0.118437
  15 H :    0.119702
  16 H :    0.118341

  Mayer bond orders larger than 0.100000
B(  0-C ,  1-C ) :   0.9670 B(  0-C ,  5-H ) :   0.9773 B(  0-C ,  6-H ) :   0.9744
B(  0-C ,  7-H ) :   0.9787 B(  1-C ,  2-C ) :   0.9729 B(  1-C ,  8-H ) :   0.9647
B(  1-C ,  9-H ) :   0.9672 B(  2-C ,  3-C ) :   0.9627 B(  2-C ,  4-C ) :   0.9681
B(  2-C , 10-H ) :   0.9589 B(  3-C , 11-H ) :   0.9754 B(  3-C , 12-H ) :   0.9694
B(  3-C , 13-H ) :   0.9765 B(  4-C , 14-H ) :   0.9757 B(  4-C , 15-H ) :   0.9718
B(  4-C , 16-H ) :   0.9775

Dispersion correction           -0.003869193
FINAL SINGLE POINT ENERGY      -197.704912415958

DIPOLE MOMENT
-------------

Method             : SCF
Type of density    : Electron Density
Multiplicity       :   1
Irrep              :   0
Energy             :  -197.7090633988374577 Eh
Relativity type    :
Basis              : AO
                                X                 Y                 Z
Electronic contribution:      0.107527136       0.496739367       0.358496224
Nuclear contribution   :     -0.121522872      -0.479406792      -0.326612371
                        -----------------------------------------
Total Dipole Moment    :     -0.013995736       0.017332576       0.031883853
                        -----------------------------------------
Magnitude (a.u.)       :      0.038895744
Magnitude (Debye)      :      0.098865125

VIBRATIONAL FREQUENCIES
-----------------------

Scaling factor for frequencies =  1.000000000  (already applied!)

     0:       0.00 cm**-1
     1:       0.00 cm**-1
     2:       0.00 cm**-1
     3:       0.00 cm**-1
     4:       0.00 cm**-1
     5:       0.00 cm**-1
     6:     110.20 cm**-1
     7:     231.84 cm**-1
     8:     242.30 cm**-1
     9:     271.04 cm**-1
    10:     295.60 cm**-1
    11:     376.58 cm**-1
    12:     423.69 cm**-1
    13:     460.56 cm**-1
    14:     771.52 cm**-1
    15:     803.28 cm**-1
    16:     919.11 cm**-1
    17:     928.65 cm**-1
    18:     965.61 cm**-1
    19:     984.60 cm**-1
    20:    1025.90 cm**-1
    21:    1046.89 cm**-1
    22:    1167.99 cm**-1
    23:    1194.36 cm**-1
    24:    1204.08 cm**-1
    25:    1296.49 cm**-1
    26:    1319.75 cm**-1
    27:    1359.32 cm**-1
    28:    1369.49 cm**-1
    29:    1389.12 cm**-1
    30:    1403.26 cm**-1
    31:    1411.59 cm**-1
    32:    1471.24 cm**-1
    33:    1481.87 cm**-1
    34:    1488.50 cm**-1
    35:    1495.41 cm**-1
    36:    1498.14 cm**-1
    37:    1501.66 cm**-1
    38:    1512.73 cm**-1
    39:    2977.63 cm**-1
    40:    2986.57 cm**-1
    41:    2992.01 cm**-1
    42:    2997.16 cm**-1
    43:    3002.89 cm**-1
    44:    3027.87 cm**-1
    45:    3064.36 cm**-1
    46:    3070.08 cm**-1
    47:    3075.08 cm**-1
    48:    3075.94 cm**-1
    49:    3081.44 cm**-1
    50:    3088.58 cm**-1

IR SPECTRUM
-----------

 Mode   freq       eps      Int      T**2         TX        TY        TZ
       cm**-1   L/(mol*cm) km/mol    a.u.
----------------------------------------------------------------------------
  6:    110.20   0.000001    0.00  0.000002  ( 0.000040 -0.000095 -0.001575)
  7:    231.84   0.000006    0.03  0.000008  (-0.001976  0.001988 -0.000085)
  8:    242.30   0.000002    0.01  0.000003  ( 0.000620  0.001541 -0.000319)
  9:    271.04   0.000002    0.01  0.000003  ( 0.001568 -0.000274  0.000156)
 10:    295.60   0.000000    0.00  0.000001  (-0.000708 -0.000126 -0.000071)
 11:    376.58   0.000002    0.01  0.000001  ( 0.000878 -0.000683  0.000203)
 12:    423.69   0.000028    0.14  0.000021  (-0.002160  0.002085 -0.003430)
 13:    460.56   0.000032    0.16  0.000022  ( 0.002205 -0.003021 -0.002775)
 14:    771.52   0.000379    1.91  0.000153  (-0.005243  0.008636  0.007147)
 15:    803.28   0.000129    0.65  0.000050  (-0.001647  0.006067  0.003279)
 16:    919.11   0.000093    0.47  0.000032  (-0.000516 -0.004073  0.003849)
 17:    928.65   0.000205    1.03  0.000069  (-0.005951 -0.005689 -0.001012)
 18:    965.61   0.000022    0.11  0.000007  (-0.002397 -0.000462 -0.001125)
 19:    984.60   0.000675    3.41  0.000214  ( 0.010321 -0.003185  0.009869)
 20:   1025.90   0.000501    2.53  0.000152  (-0.007695  0.009535 -0.001477)
 21:   1046.89   0.000098    0.49  0.000029  ( 0.004113  0.003482  0.000335)
 22:   1167.99   0.000558    2.82  0.000149  (-0.011694 -0.001817 -0.003017)
 23:   1194.36   0.000296    1.50  0.000077  ( 0.008247 -0.003038  0.000256)
 24:   1204.08   0.000026    0.13  0.000007  ( 0.002559 -0.000065  0.000338)
 25:   1296.49   0.000298    1.50  0.000072  ( 0.007767 -0.001956 -0.002742)
 26:   1319.75   0.000377    1.90  0.000089  (-0.009082 -0.002351  0.001040)
 27:   1359.32   0.000330    1.67  0.000076  ( 0.001406 -0.008469  0.001471)
 28:   1369.49   0.000077    0.39  0.000018  ( 0.003682 -0.001528  0.001328)
 29:   1389.12   0.001303    6.58  0.000293  ( 0.002776  0.016876  0.000357)
 30:   1403.26   0.000976    4.93  0.000217  (-0.013204 -0.004833  0.004397)
 31:   1411.59   0.001067    5.39  0.000236  (-0.011125  0.006602  0.008276)
 32:   1471.24   0.000015    0.08  0.000003  ( 0.000295 -0.001768 -0.000218)
 33:   1481.87   0.000025    0.13  0.000005  ( 0.001322  0.000880  0.001644)
 34:   1488.50   0.000550    2.78  0.000115  (-0.005769 -0.007501  0.005066)
 35:   1495.41   0.001602    8.09  0.000334  (-0.002454  0.013785  0.011755)
 36:   1498.14   0.001384    6.99  0.000288  (-0.005831  0.004055  0.015423)
 37:   1501.66   0.003496   17.67  0.000726  ( 0.013760 -0.007606  0.021892)
 38:   1512.73   0.000669    3.38  0.000138  (-0.001392  0.007566 -0.008880)
 39:   2977.63   0.000891    4.50  0.000093  (-0.001365  0.008034  0.005194)
 40:   2986.57   0.005842   29.52  0.000610  ( 0.003275 -0.016716  0.017895)
 41:   2992.01   0.008183   41.35  0.000854  (-0.014409 -0.025110  0.003924)
 42:   2997.16   0.007540   38.11  0.000785  (-0.018433  0.004901  0.020526)
 43:   3002.89   0.006237   31.52  0.000648  (-0.021626 -0.011668  0.006653)
 44:   3027.87   0.004234   21.40  0.000436  ( 0.005224 -0.014711 -0.013882)
 45:   3064.36   0.001665    8.41  0.000170  (-0.000912 -0.011856 -0.005305)
 46:   3070.08   0.009547   48.25  0.000970  ( 0.006750  0.002854  0.030277)
 47:   3075.08   0.009643   48.73  0.000979  ( 0.009506  0.000880  0.029790)
 48:   3075.94   0.008929   45.12  0.000906  (-0.014945  0.019398 -0.017499)
 49:   3081.44   0.011944   60.36  0.001210  ( 0.028060 -0.017081 -0.011424)
 50:   3088.58   0.006918   34.96  0.000699  ( 0.009535  0.024378  0.003716)

--------------------------
THERMOCHEMISTRY AT 298.15K
--------------------------

Temperature         ...   298.15 K
Pressure            ...     1.00 atm
Total Mass          ...    72.15 AMU
Quasi RRHO          ...     True
Cut-Off Frequency   ...     1.00 cm^-1

Throughout the following assumptions are being made:
  (1) The electronic state is orbitally nondegenerate
  (2) There are no thermally accessible electronically excited states
  (3) Hindered rotations indicated by low frequency modes are not
      treated as such but are treated as vibrations and this may
      cause some error
  (4) All equations used are the standard statistical mechanics
      equations for an ideal gas
  (5) All vibrations are strictly harmonic

freq.     110.20  E(vib)   ...       0.45
freq.     231.84  E(vib)   ...       0.32
freq.     242.30  E(vib)   ...       0.31
freq.     271.04  E(vib)   ...       0.29
freq.     295.60  E(vib)   ...       0.27
freq.     376.58  E(vib)   ...       0.21
freq.     423.69  E(vib)   ...       0.18
freq.     460.56  E(vib)   ...       0.16
freq.     771.52  E(vib)   ...       0.05
freq.     803.28  E(vib)   ...       0.05
freq.     919.11  E(vib)   ...       0.03
freq.     928.65  E(vib)   ...       0.03
freq.     965.61  E(vib)   ...       0.03
freq.     984.60  E(vib)   ...       0.02
freq.    1025.90  E(vib)   ...       0.02
freq.    1046.89  E(vib)   ...       0.02
freq.    1167.99  E(vib)   ...       0.01
freq.    1194.36  E(vib)   ...       0.01
freq.    1204.08  E(vib)   ...       0.01
freq.    1296.49  E(vib)   ...       0.01
freq.    1319.75  E(vib)   ...       0.01
freq.    1359.32  E(vib)   ...       0.01
freq.    1369.49  E(vib)   ...       0.01
freq.    1389.12  E(vib)   ...       0.00
freq.    1403.26  E(vib)   ...       0.00
freq.    1411.59  E(vib)   ...       0.00
freq.    1471.24  E(vib)   ...       0.00
freq.    1481.87  E(vib)   ...       0.00
freq.    1488.50  E(vib)   ...       0.00
freq.    1495.41  E(vib)   ...       0.00
freq.    1498.14  E(vib)   ...       0.00
freq.    1501.66  E(vib)   ...       0.00
freq.    1512.73  E(vib)   ...       0.00
freq.    2977.63  E(vib)   ...       0.00
freq.    2986.57  E(vib)   ...       0.00
freq.    2992.01  E(vib)   ...       0.00
freq.    2997.16  E(vib)   ...       0.00
freq.    3002.89  E(vib)   ...       0.00
freq.    3027.87  E(vib)   ...       0.00
freq.    3064.36  E(vib)   ...       0.00
freq.    3070.08  E(vib)   ...       0.00
freq.    3075.08  E(vib)   ...       0.00
freq.    3075.94  E(vib)   ...       0.00
freq.    3081.44  E(vib)   ...       0.00
freq.    3088.58  E(vib)   ...       0.00

------------
INNER ENERGY
------------

The inner energy is: U= E(el) + E(ZPE) + E(vib) + E(rot) + E(trans)
    E(el)   - is the total energy from the electronic structure calculation
              = E(kin-el) + E(nuc-el) + E(el-el) + E(nuc-nuc)
    E(ZPE)  - the the zero temperature vibrational energy from the frequency calculation
    E(vib)  - the the finite temperature correction to E(ZPE) due to population
              of excited vibrational states
    E(rot)  - is the rotational thermal energy
    E(trans)- is the translational thermal energy

Summary of contributions to the inner energy U:
Electronic energy                ...   -197.70491242 Eh
Zero point energy                ...      0.15915731 Eh      99.87 kcal/mol
Thermal vibrational correction   ...      0.00404119 Eh       2.54 kcal/mol
Thermal rotational correction    ...      0.00141627 Eh       0.89 kcal/mol
Thermal translational correction ...      0.00141627 Eh       0.89 kcal/mol
-----------------------------------------------------------------------
Total thermal energy                   -197.53888137 Eh

Summary of corrections to the electronic energy:
(perhaps to be used in another calculation)
Total thermal correction                  0.00687373 Eh       4.31 kcal/mol
Non-thermal (ZPE) correction              0.15915731 Eh      99.87 kcal/mol
-----------------------------------------------------------------------
Total correction                          0.16603104 Eh     104.19 kcal/mol

--------
ENTHALPY
--------

The enthalpy is H = U + kB*T
                kB is Boltzmann's constant
Total thermal energy              ...   -197.53888137 Eh
Thermal Enthalpy correction       ...      0.00094421 Eh       0.59 kcal/mol
-----------------------------------------------------------------------
Total Enthalpy                    ...   -197.53793717 Eh

Note: Only C1 symmetry has been detected, increase convergence thresholds
      if your molecule has a higher symmetry. Symmetry factor of 1.0 is
      used for the rotational entropy correction.

Note: Rotational entropy computed according to Herzberg
Infrared and Raman Spectra, Chapter V,1, Van Nostrand Reinhold, 1945
Point Group:  C1, Symmetry Number:   1
Rotational constants in cm-1:     0.245034     0.112677     0.085982

Vibrational entropy computed according to the QRRHO of S. Grimme
Chem.Eur.J. 2012 18 9955 using a reference frequency of 100.0 cm-1

-------
ENTROPY
-------

The entropy contributions are T*S = T*(S(el)+S(vib)+S(rot)+S(trans))
     S(el)   - electronic entropy
     S(vib)  - vibrational entropy
     S(rot)  - rotational entropy
     S(trans)- translational entropy
The entropies will be listed as multiplied by the temperature to get
units of energy

Electronic entropy                ...      0.00000000 Eh      0.00 kcal/mol
Vibrational entropy               ...      0.00659854 Eh      4.14 kcal/mol
Rotational entropy                ...      0.01236375 Eh      7.76 kcal/mol
Translational entropy             ...      0.01840896 Eh     11.55 kcal/mol
-----------------------------------------------------------------------
Final entropy term                ...      0.03737125 Eh     23.45 kcal/mol

In case the symmetry of your molecule has not been determined correctly
or in case you have a reason to use a different symmetry number we print
out the resulting rotational entropy values for sn=1,12:

 non-linear molecules -----------------------------------
|  sn= 1 | S(rot)=       0.01236375 Eh      7.76 kcal/mol|
|  sn= 2 | S(rot)=       0.01170929 Eh      7.35 kcal/mol|
|  sn= 3 | S(rot)=       0.01132646 Eh      7.11 kcal/mol|
|  sn= 4 | S(rot)=       0.01105484 Eh      6.94 kcal/mol|
|  sn= 5 | S(rot)=       0.01084415 Eh      6.80 kcal/mol|
|  sn= 6 | S(rot)=       0.01067201 Eh      6.70 kcal/mol|
|  sn= 7 | S(rot)=       0.01052646 Eh      6.61 kcal/mol|
|  sn= 8 | S(rot)=       0.01040038 Eh      6.53 kcal/mol|
|  sn= 9 | S(rot)=       0.01028917 Eh      6.46 kcal/mol|
|  sn=10 | S(rot)=       0.01018969 Eh      6.39 kcal/mol|
|  sn=11 | S(rot)=       0.01009970 Eh      6.34 kcal/mol|
|  sn=12 | S(rot)=       0.01001755 Eh      6.29 kcal/mol|
 linear molecules ---------------------------------------
|  Dinfh | S(rot)=       0.00764247 Eh      4.80 kcal/mol|
|  Cinfv | S(rot)=       0.00829693 Eh      5.21 kcal/mol|

                             ****ORCA TERMINATED NORMALLY****
TOTAL RUN TIME: 0 days 0 hours 7 minutes 51 seconds 561 msec
