                         Program Version 6.0.0  -   RELEASE  -
|  1> ! r2SCAN-3c DEF2-TZVP FREQ
|  2> * xyzfile 0 1 vacuum_censo.xyz
|  3>
|  4>                          ****END OF INPUT****

CARTESIAN COORDINATES (ANGSTROEM)
---------------------------------
  C     -2.083307   -0.015528   -0.095012
  C     -0.766267    0.661921    0.280109
  C      0.482011    0.018509   -0.339970
  C      1.729012    0.829185    0.019010
  C      0.652475   -1.439666    0.091284
  H     -2.938020    0.549176    0.289362
  H     -2.150368   -1.028224    0.312971
  H     -2.191860   -0.085401   -1.183186
  H     -0.803051    1.714893   -0.028230
  H     -0.651839    0.666749    1.373508
  H      0.360991    0.040448   -1.433453
  H      2.625740    0.407986   -0.446875
  H      1.885618    0.829695    1.104452
  H      1.635750    1.870692   -0.306098
  H      0.718809   -1.509927    1.184018
  H      1.570212   -1.865735   -0.326804
  H     -0.181863   -2.065865   -0.236710

 Total Charge           Charge          ....    0
 Multiplicity           Mult            ....    1
 Number of Electrons    NEL             ....   42
 Basis Dimension        Dim             ....  227

ORBITAL ENERGIES
----------------

  NO   OCC          E(Eh)            E(eV)
   0   2.0000     -10.032887      -273.0087
   1   2.0000     -10.023105      -272.7426
   2   2.0000     -10.015767      -272.5429
   3   2.0000     -10.014504      -272.5085
   4   2.0000     -10.014237      -272.5013
   5   2.0000      -0.774166       -21.0661
   6   2.0000      -0.696681       -18.9577
   7   2.0000      -0.646394       -17.5893
   8   2.0000      -0.589713       -16.0469
   9   2.0000      -0.520547       -14.1648
  10   2.0000      -0.433116       -11.7857
  11   2.0000      -0.411342       -11.1932
  12   2.0000      -0.395250       -10.7553
  13   2.0000      -0.378909       -10.3106
  14   2.0000      -0.351168        -9.5558
  15   2.0000      -0.347005        -9.4425
  16   2.0000      -0.327120        -8.9014
  17   2.0000      -0.315887        -8.5957
  18   2.0000      -0.291234        -7.9249
  19   2.0000      -0.287929        -7.8349
  20   2.0000      -0.283118        -7.7040
  21   0.0000       0.041959         1.1418
  22   0.0000       0.072042         1.9604
  23   0.0000       0.078528         2.1369
  24   0.0000       0.088763         2.4154
  25   0.0000       0.109648         2.9837

MULLIKEN ATOMIC CHARGES
-----------------------
   0 C :   -0.336504
   1 C :   -0.140450
   2 C :    0.019488
   3 C :   -0.322809
   4 C :   -0.348508
   5 H :    0.107492
   6 H :    0.105918
   7 H :    0.098818
   8 H :    0.081184
   9 H :    0.075196
  10 H :    0.046779
  11 H :    0.103594
  12 H :    0.096049
  13 H :    0.102793
  14 H :    0.096665
  15 H :    0.103885
  16 H :    0.110408
Sum of atomic charges:   -0.0000000

LOEWDIN ATOMIC CHARGES
----------------------
   0 C :   -0.310971
   1 C :   -0.273830
   2 C :   -0.318287
   3 C :   -0.287385
   4 C :   -0.286919
   5 H :    0.117518
   6 H :    0.115904
   7 H :    0.117933
   8 H :    0.133793
   9 H :    0.133246
  10 H :    0.145045
  11 H :    0.118249
  12 H :    0.119555
  13 H :    0.118286
  14 H :    0.120397
  15 H :    0.119538
  16 H :    0.117928

  Mayer bond orders larger than 0.100000
B(  0-C ,  1-C ) :   0.9673 B(  0-C ,  5-H ) :   0.9773 B(  0-C ,  6-H ) :   0.9788
B(  0-C ,  7-H ) :   0.9744 B(  1-C ,  2-C ) :   0.9727 B(  1-C ,  8-H ) :   0.9672
B(  1-C ,  9-H ) :   0.9648 B(  2-C ,  3-C ) :   0.9678 B(  2-C ,  4-C ) :   0.9632
B(  2-C , 10-H ) :   0.9590 B(  3-C , 11-H ) :   0.9775 B(  3-C , 12-H ) :   0.9719
B(  3-C , 13-H ) :   0.9757 B(  4-C , 14-H ) :   0.9695 B(  4-C , 15-H ) :   0.9754
B(  4-C , 16-H ) :   0.9766

Dispersion correction           -0.003866794
FINAL SINGLE POINT ENERGY      -197.704919708377

DIPOLE MOMENT
-------------

Method             : SCF
Type of density    : Electron Density
Multiplicity       :   1
Irrep              :   0
Energy             :  -197.7090731237613852 Eh
Relativity type    :
Basis              : AO
                                X                 Y                 Z
Electronic contribution:      0.105865260       0.490672588      -0.351415765
Nuclear contribution   :     -0.119707769      -0.473317360       0.320123075
                        -----------------------------------------
Total Dipole Moment    :     -0.013842509       0.017355227      -0.031292690
                        -----------------------------------------
Magnitude (a.u.)       :      0.038367322
Magnitude (Debye)      :      0.097521983

VIBRATIONAL FREQUENCIES
-----------------------

Scaling factor for frequencies =  1.000000000  (already applied!)

     0:       0.00 cm**-1
     1:       0.00 cm**-1
     2:       0.00 cm**-1
     3:       0.00 cm**-1
     4:       0.00 cm**-1
     5:       0.00 cm**-1
     6:     104.51 cm**-1
     7:     221.60 cm**-1
     8:     235.62 cm**-1
     9:     266.06 cm**-1
    10:     288.81 cm**-1
    11:     374.35 cm**-1
    12:     421.48 cm**-1
    13:     459.42 cm**-1
    14:     769.32 cm**-1
    15:     801.28 cm**-1
    16:     916.93 cm**-1
    17:     926.49 cm**-1
    18:     963.19 cm**-1
    19:     982.95 cm**-1
    20:    1024.31 cm**-1
    21:    1045.12 cm**-1
    22:    1166.76 cm**-1
    23:    1193.35 cm**-1
    24:    1202.78 cm**-1
    25:    1295.50 cm**-1
    26:    1319.66 cm**-1
    27:    1359.16 cm**-1
    28:    1369.16 cm**-1
    29:    1387.63 cm**-1
    30:    1401.98 cm**-1
    31:    1410.18 cm**-1
    32:    1471.29 cm**-1
    33:    1481.18 cm**-1
    34:    1488.20 cm**-1
    35:    1494.76 cm**-1
    36:    1497.63 cm**-1
    37:    1501.27 cm**-1
    38:    1511.70 cm**-1
    39:    2976.47 cm**-1
    40:    2987.56 cm**-1
    41:    2996.70 cm**-1
    42:    3001.49 cm**-1
    43:    3007.44 cm**-1
    44:    3028.23 cm**-1
    45:    3069.12 cm**-1
    46:    3074.75 cm**-1
    47:    3080.18 cm**-1
    48:    3081.50 cm**-1
    49:    3086.99 cm**-1
    50:    3093.97 cm**-1

IR SPECTRUM
-----------

 Mode   freq       eps      Int      T**2         TX        TY        TZ
       cm**-1   L/(mol*cm) km/mol    a.u.
----------------------------------------------------------------------------
  6:    104.51   0.000001    0.00  0.000002  ( 0.000145 -0.000071  0.001568)
  7:    221.60   0.000006    0.03  0.000008  ( 0.001937 -0.002072 -0.000042)
  8:    235.62   0.000002    0.01  0.000003  (-0.000482 -0.001533 -0.000328)
  9:    266.06   0.000003    0.01  0.000003  (-0.001735  0.000139  0.000123)
 10:    288.81   0.000000    0.00  0.000000  ( 0.000510  0.000079 -0.000124)
 11:    374.35   0.000001    0.01  0.000001  ( 0.000768 -0.000611 -0.000176)
 12:    421.48   0.000029    0.15  0.000021  (-0.002156  0.002076  0.003525)
 13:    459.42   0.000033    0.17  0.000023  (-0.002246  0.003083 -0.002847)
 14:    769.32   0.000385    1.95  0.000156  ( 0.005213 -0.008774  0.007221)
 15:    801.28   0.000131    0.66  0.000051  ( 0.001597 -0.006127  0.003289)
 16:    916.93   0.000096    0.49  0.000033  (-0.000744 -0.004195 -0.003821)
 17:    926.49   0.000201    1.01  0.000068  (-0.005964 -0.005547  0.001134)
 18:    963.19   0.000021    0.11  0.000007  (-0.002331 -0.000416  0.001087)
 19:    982.95   0.000687    3.47  0.000218  (-0.010422  0.003197  0.009965)
 20:   1024.31   0.000502    2.54  0.000153  ( 0.007621 -0.009633 -0.001479)
 21:   1045.12   0.000098    0.49  0.000029  (-0.004136 -0.003472  0.000278)
 22:   1166.76   0.000565    2.86  0.000151  (-0.011760 -0.001910  0.003042)
 23:   1193.35   0.000307    1.55  0.000080  (-0.008371  0.003181  0.000229)
 24:   1202.78   0.000029    0.15  0.000008  ( 0.002726 -0.000074 -0.000432)
 25:   1295.50   0.000297    1.50  0.000072  (-0.007797  0.001952 -0.002655)
 26:   1319.66   0.000381    1.93  0.000090  (-0.009136 -0.002348 -0.001048)
 27:   1359.16   0.000329    1.67  0.000076  ( 0.001442 -0.008456 -0.001437)
 28:   1369.16   0.000081    0.41  0.000019  ( 0.003777 -0.001601 -0.001311)
 29:   1387.63   0.001313    6.64  0.000295  ( 0.002732  0.016960 -0.000397)
 30:   1401.98   0.000975    4.93  0.000217  ( 0.013201  0.004756  0.004484)
 31:   1410.18   0.001051    5.31  0.000233  ( 0.011064 -0.006596  0.008166)
 32:   1471.29   0.000018    0.09  0.000004  (-0.000204  0.001962 -0.000090)
 33:   1481.18   0.000025    0.13  0.000005  ( 0.001049  0.000491 -0.001995)
 34:   1488.20   0.000519    2.62  0.000109  (-0.005989 -0.007092 -0.004769)
 35:   1494.76   0.001762    8.90  0.000368  (-0.002412  0.014164 -0.012705)
 36:   1497.63   0.001310    6.62  0.000273  (-0.005618  0.003065 -0.015233)
 37:   1501.27   0.003483   17.60  0.000724  (-0.013798  0.007985  0.021674)
 38:   1511.70   0.000638    3.22  0.000132  ( 0.001157 -0.007501 -0.008602)
 39:   2976.47   0.001070    5.41  0.000112  ( 0.001663 -0.006052  0.008532)
 40:   2987.56   0.006956   35.15  0.000727  ( 0.000980 -0.018626 -0.019460)
 41:   2996.70   0.007540   38.10  0.000785  ( 0.014654  0.023703  0.002938)
 42:   3001.49   0.007154   36.15  0.000744  ( 0.018313 -0.006345  0.019187)
 43:   3007.44   0.006192   31.29  0.000642  ( 0.021269  0.012039  0.006719)
 44:   3028.23   0.004642   23.46  0.000478  (-0.005449  0.015055 -0.014902)
 45:   3069.12   0.001711    8.65  0.000174  (-0.001266 -0.011865  0.005624)
 46:   3074.75   0.010349   52.30  0.001050  (-0.007319 -0.001226  0.031548)
 47:   3080.18   0.011497   58.10  0.001165  ( 0.010278 -0.000528 -0.032541)
 48:   3081.50   0.005606   28.33  0.000568  ( 0.011730 -0.018989 -0.008340)
 49:   3086.99   0.012206   61.68  0.001234  ( 0.028485 -0.019169  0.007419)
 50:   3093.97   0.006508   32.89  0.000656  (-0.011291 -0.022939  0.001656)

--------------------------
THERMOCHEMISTRY AT 298.15K
--------------------------

Temperature         ...   298.15 K
Pressure            ...     1.00 atm
Total Mass          ...    72.15 AMU
Quasi RRHO          ...     True
Cut-Off Frequency   ...     1.00 cm^-1

Throughout the following assumptions are being made:
  (1) The electronic state is orbitally nondegenerate
  (2) There are no thermally accessible electronically excited states
  (3) Hindered rotations indicated by low frequency modes are not
      treated as such but are treated as vibrations and this may
      cause some error
  (4) All equations used are the standard statistical mechanics
      equations for an ideal gas
  (5) All vibrations are strictly harmonic

freq.     104.51  E(vib)   ...       0.46
freq.     221.60  E(vib)   ...       0.33
freq.     235.62  E(vib)   ...       0.32
freq.     266.06  E(vib)   ...       0.29
freq.     288.81  E(vib)   ...       0.27
freq.     374.35  E(vib)   ...       0.21
freq.     421.48  E(vib)   ...       0.18
freq.     459.42  E(vib)   ...       0.16
freq.     769.32  E(vib)   ...       0.06
freq.     801.28  E(vib)   ...       0.05
freq.     916.93  E(vib)   ...       0.03
freq.     926.49  E(vib)   ...       0.03
freq.     963.19  E(vib)   ...       0.03
freq.     982.95  E(vib)   ...       0.02
freq.    1024.31  E(vib)   ...       0.02
freq.    1045.12  E(vib)   ...       0.02
freq.    1166.76  E(vib)   ...       0.01
freq.    1193.35  E(vib)   ...       0.01
freq.    1202.78  E(vib)   ...       0.01
freq.    1295.50  E(vib)   ...       0.01
freq.    1319.66  E(vib)   ...       0.01
freq.    1359.16  E(vib)   ...       0.01
freq.    1369.16  E(vib)   ...       0.01
freq.    1387.63  E(vib)   ...       0.00
freq.    1401.98  E(vib)   ...       0.00
freq.    1410.18  E(vib)   ...       0.00
freq.    1471.29  E(vib)   ...       0.00
freq.    1481.18  E(vib)   ...       0.00
freq.    1488.20  E(vib)   ...       0.00
freq.    1494.76  E(vib)   ...       0.00
freq.    1497.63  E(vib)   ...       0.00
freq.    1501.27  E(vib)   ...       0.00
freq.    1511.70  E(vib)   ...       0.00
freq.    2976.47  E(vib)   ...       0.00
freq.    2987.56  E(vib)   ...       0.00
freq.    2996.70  E(vib)   ...       0.00
freq.    3001.49  E(vib)   ...       0.00
freq.    3007.44  E(vib)   ...       0.00
freq.    3028.23  E(vib)   ...       0.00
freq.    3069.12  E(vib)   ...       0.00
freq.    3074.75  E(vib)   ...       0.00
freq.    3080.18  E(vib)   ...       0.00
freq.    3081.50  E(vib)   ...       0.00
freq.    3086.99  E(vib)   ...       0.00
freq.    3093.97  E(vib)   ...       0.00

------------
INNER ENERGY
------------

The inner energy is: U= E(el) + E(ZPE) + E(vib) + E(rot) + E(trans)
    E(el)   - is the total energy from the electronic structure calculation
              = E(kin-el) + E(nuc-el) + E(el-el) + E(nuc-nuc)
    E(ZPE)  - the the zero temperature vibrational energy from the frequency calculation
    E(vib)  - the the finite temperature correction to E(ZPE) due to population
              of excited vibrational states
    E(rot)  - is the rotational thermal energy
    E(trans)- is the translational thermal energy

Summary of contributions to the inner energy U:
Electronic energy                ...   -197.70491971 Eh
Zero point energy                ...      0.15910276 Eh      99.84 kcal/mol
Thermal vibrational correction   ...      0.00410099 Eh       2.57 kcal/mol
Thermal rotational correction    ...      0.00141627 Eh       0.89 kcal/mol
Thermal translational correction ...      0.00141627 Eh       0.89 kcal/mol
-----------------------------------------------------------------------
Total thermal energy                   -197.53888342 Eh

Summary of corrections to the electronic energy:
(perhaps to be used in another calculation)
Total thermal correction                  0.00693353 Eh       4.35 kcal/mol
Non-thermal (ZPE) correction              0.15910276 Eh      99.84 kcal/mol
-----------------------------------------------------------------------
Total correction                          0.16603629 Eh     104.19 kcal/mol

--------
ENTHALPY
--------

The enthalpy is H = U + kB*T
                kB is Boltzmann's constant
Total thermal energy              ...   -197.53888342 Eh
Thermal Enthalpy correction       ...      0.00094421 Eh       0.59 kcal/mol
-----------------------------------------------------------------------
Total Enthalpy                    ...   -197.53793921 Eh

Note: Only C1 symmetry has been detected, increase convergence thresholds
      if your molecule has a higher symmetry. Symmetry factor of 1.0 is
      used for the rotational entropy correction.

Note: Rotational entropy computed according to Herzberg
Infrared and Raman Spectra, Chapter V,1, Van Nostrand Reinhold, 1945
Point Group:  C1, Symmetry Number:   1
Rotational constants in cm-1:     0.244677     0.112465     0.085828

Vibrational entropy computed according to the QRRHO of S. Grimme
Chem.Eur.J. 2012 18 9955 using a reference frequency of 100.0 cm-1

-------
ENTROPY
-------

The entropy contributions are T*S = T*(S(el)+S(vib)+S(rot)+S(trans))
     S(el)   - electronic entropy
     S(vib)  - vibrational entropy
     S(rot)  - rotational entropy
     S(trans)- translational entropy
The entropies will be listed as multiplied by the temperature to get
units of energy

Electronic entropy                ...      0.00000000 Eh      0.00 kcal/mol
Vibrational entropy               ...      0.00673427 Eh      4.23 kcal/mol
Rotational entropy                ...      0.01236618 Eh      7.76 kcal/mol
Translational entropy             ...      0.01840896 Eh     11.55 kcal/mol
-----------------------------------------------------------------------
Final entropy term                ...      0.03750941 Eh     23.54 kcal/mol

In case the symmetry of your molecule has not been determined correctly
or in case you have a reason to use a different symmetry number we print
out the resulting rotational entropy values for sn=1,12:

 non-linear molecules -----------------------------------
|  sn= 1 | S(rot)=       0.01236618 Eh      7.76 kcal/mol|
|  sn= 2 | S(rot)=       0.01171172 Eh      7.35 kcal/mol|
|  sn= 3 | S(rot)=       0.01132889 Eh      7.11 kcal/mol|
|  sn= 4 | S(rot)=       0.01105726 Eh      6.94 kcal/mol|
|  sn= 5 | S(rot)=       0.01084658 Eh      6.81 kcal/mol|
|  sn= 6 | S(rot)=       0.01067443 Eh      6.70 kcal/mol|
|  sn= 7 | S(rot)=       0.01052889 Eh      6.61 kcal/mol|
|  sn= 8 | S(rot)=       0.01040281 Eh      6.53 kcal/mol|
|  sn= 9 | S(rot)=       0.01029160 Eh      6.46 kcal/mol|
|  sn=10 | S(rot)=       0.01019212 Eh      6.40 kcal/mol|
|  sn=11 | S(rot)=       0.01010213 Eh      6.34 kcal/mol|
|  sn=12 | S(rot)=       0.01001998 Eh      6.29 kcal/mol|
 linear molecules ---------------------------------------
|  Dinfh | S(rot)=       0.00764416 Eh      4.80 kcal/mol|
|  Cinfv | S(rot)=       0.00829862 Eh      5.21 kcal/mol|

                             ****ORCA TERMINATED NORMALLY****
TOTAL RUN TIME: 0 days 0 hours 7 minutes 46 seconds 496 msec
