                         Program Version 6.0.1  -  RELEASE   -
|  1> ! r2scan-3c def2/J RI DEFGRID2 scfconv6 printgap
|  2> %output
|  3>     printlevel normal
|  4> end
|  5> * xyz 0 1
|  6> C 0.9771860293 -2.1013492612 0.3802124493
|  7> C 0.3440657199 -0.843908318 -0.1919826865
|  8> H 0.0832365091 -0.9827696956 -1.2441538879
|  9> C -0.8816952869 -0.4278401057 0.6025565983
| 10> Cl -1.7311727538 0.9260095629 -0.185987687
| 11> Cl 1.5456689009 0.4889349453 -0.1552791264
| 12> H 0.2786324236 -2.9321079976 0.3089341498
| 13> H 1.8766115887 -2.3526569456 -0.1749606854
| 14> H 1.2437651439 -1.9521528939 1.423515164
| 15> H -1.5891069891 -1.2558654894 0.6625704346
| 16> H -0.606150455 -0.0985628182 1.6045069194
| 17> *
| 18>
| 19>                          ****END OF INPUT****

CARTESIAN COORDINATES (ANGSTROEM)
---------------------------------
  C      0.977186   -2.101349    0.380212
  C      0.344066   -0.843908   -0.191983
  H      0.083237   -0.982770   -1.244154
  C     -0.881695   -0.427840    0.602557
  Cl    -1.731173    0.926010   -0.185988
  Cl     1.545669    0.488935   -0.155279
  H      0.278632   -2.932108    0.308934
  H      1.876612   -2.352657   -0.174961
  H      1.243765   -1.952153    1.423515
  H     -1.589107   -1.255865    0.662570
  H     -0.606150   -0.098563    1.604507

 Total Charge           Charge          ....    0
 Multiplicity           Mult            ....    1
 Number of Electrons    NEL             ....   58
 Basis Dimension        Dim             ....  141

ORBITAL ENERGIES
----------------

  NO   OCC          E(Eh)            E(eV)
   0   2.0000    -101.208024     -2754.0103
   1   2.0000    -101.204977     -2753.9274
   2   2.0000     -10.116438      -275.2823
   3   2.0000     -10.108184      -275.0577
   4   2.0000     -10.049398      -273.4580
   5   2.0000      -9.364089      -254.8098
   6   2.0000      -9.361219      -254.7317
   7   2.0000      -7.110559      -193.4882
   8   2.0000      -7.107482      -193.4044
   9   2.0000      -7.100073      -193.2028
  10   2.0000      -7.099889      -193.1978
  11   2.0000      -7.097362      -193.1290
  12   2.0000      -7.097078      -193.1213
  13   2.0000      -0.859306       -23.3829
  14   2.0000      -0.804302       -21.8862
  15   2.0000      -0.727892       -19.8069
  16   2.0000      -0.657363       -17.8878
  17   2.0000      -0.571943       -15.5634
  18   2.0000      -0.473244       -12.8776
  19   2.0000      -0.440604       -11.9894
  20   2.0000      -0.430914       -11.7258
  21   2.0000      -0.405597       -11.0369
  22   2.0000      -0.367440        -9.9986
  23   2.0000      -0.362351        -9.8601
  24   2.0000      -0.352405        -9.5894
  25   2.0000      -0.281255        -7.6533
  26   2.0000      -0.278147        -7.5688
  27   2.0000      -0.270109        -7.3500
  28   2.0000      -0.266066        -7.2400
  29   0.0000      -0.010416        -0.2834
  30   0.0000       0.011453         0.3117
  31   0.0000       0.086897         2.3646
  32   0.0000       0.102077         2.7777
  33   0.0000       0.122839         3.3426

MULLIKEN ATOMIC CHARGES
-----------------------
   0 C :   -0.468981
   1 C :    0.014354
   2 H :    0.177208
   3 C :   -0.181376
   4 Cl:   -0.165484
   5 Cl:   -0.183807
   6 H :    0.146937
   7 H :    0.170092
   8 H :    0.157984
   9 H :    0.157952
  10 H :    0.175119
Sum of atomic charges:    0.0000000

LOEWDIN ATOMIC CHARGES
----------------------
   0 C :   -0.422827
   1 C :   -0.289294
   2 H :    0.168014
   3 C :   -0.343388
   4 Cl:    0.027162
   5 Cl:    0.038427
   6 H :    0.159085
   7 H :    0.166485
   8 H :    0.162885
   9 H :    0.164734
  10 H :    0.168716

  Mayer bond orders larger than 0.100000
B(  0-C ,  1-C ) :   0.9140 B(  0-C ,  6-H ) :   0.9609 B(  0-C ,  7-H ) :   0.9609
B(  0-C ,  8-H ) :   0.9725 B(  1-C ,  2-H ) :   0.9395 B(  1-C ,  3-C ) :   0.9472
B(  1-C ,  5-Cl) :   0.9470 B(  3-C ,  4-Cl) :   1.0043 B(  3-C ,  9-H ) :   0.9428
B(  3-C , 10-H ) :   0.9561

Dispersion correction           -0.002956290
FINAL SINGLE POINT ENERGY     -1038.250642795434

DIPOLE MOMENT
-------------

Method             : SCF
Type of density    : Electron Density
Multiplicity       :   1
Irrep              :   0
Energy             : -1038.2572133923677029 Eh
Relativity type    :
Basis              : AO
                                X                 Y                 Z
Electronic contribution:     -1.530641291       9.692652772      -2.565211744
Nuclear contribution   :      1.456403296     -10.881333793       2.878925905
                        -----------------------------------------
Total Dipole Moment    :     -0.074237995      -1.188681021       0.313714161
                        -----------------------------------------
Magnitude (a.u.)       :      1.231621056
Magnitude (Debye)      :      3.130531936

Rotational constants in cm-1:             0.152780             0.064911             0.048170
Rotational constants in MHz :          4580.237712          1945.969406          1444.094443

                             ****ORCA TERMINATED NORMALLY****
TOTAL RUN TIME: 0 days 0 hours 0 minutes 7 seconds 149 msec
