                         Program Version 6.0.0  -   RELEASE  -
|  1> ! r2SCAN-3c DEF2-TZVP FREQ
|  2> * xyzfile 0 1 censo.xyz
|  3>
|  4>                          ****END OF INPUT****

CARTESIAN COORDINATES (ANGSTROEM)
---------------------------------
  C     -1.267265    0.268221   -0.000007
  C      0.000002   -0.582521   -0.000003
  C      1.267272    0.268215    0.000012
  H     -1.303466    0.914530   -0.884517
  H     -2.170395   -0.351054   -0.000036
  H     -1.303497    0.914492    0.884530
  H     -0.000007   -1.239787    0.878372
  H      0.000007   -1.239776   -0.878386
  H      2.170399   -0.351064    0.000040
  H      1.303473    0.914518    0.884527
  H      1.303511    0.914492   -0.884520

 Total Charge           Charge          ....    0
 Multiplicity           Mult            ....    1
 Number of Electrons    NEL             ....   26
 Basis Dimension        Dim             ....  141

ORBITAL ENERGIES
----------------

  NO   OCC          E(Eh)            E(eV)
   0   2.0000     -10.025928      -272.8194
   1   2.0000     -10.015969      -272.5484
   2   2.0000     -10.015964      -272.5482
   3   2.0000      -0.745242       -20.2791
   4   2.0000      -0.644988       -17.5510
   5   2.0000      -0.549654       -14.9569
   6   2.0000      -0.424033       -11.5385
   7   2.0000      -0.403973       -10.9927
   8   2.0000      -0.365656        -9.9500
   9   2.0000      -0.347437        -9.4542
  10   2.0000      -0.306544        -8.3415
  11   2.0000      -0.305518        -8.3136
  12   2.0000      -0.295022        -8.0280
  13   0.0000       0.049427         1.3450
  14   0.0000       0.094901         2.5824
  15   0.0000       0.099107         2.6968
  16   0.0000       0.102578         2.7913
  17   0.0000       0.116934         3.1819

MULLIKEN ATOMIC CHARGES
-----------------------
   0 C :   -0.312595
   1 C :   -0.119138
   2 C :   -0.312595
   3 H :    0.095598
   4 H :    0.103796
   5 H :    0.095598
   6 H :    0.077172
   7 H :    0.077172
   8 H :    0.103796
   9 H :    0.095598
  10 H :    0.095598
Sum of atomic charges:    0.0000000

LOEWDIN ATOMIC CHARGES
----------------------
   0 C :   -0.315709
   1 C :   -0.323364
   2 C :   -0.315709
   3 H :    0.116339
   4 H :    0.116240
   5 H :    0.116339
   6 H :    0.128472
   7 H :    0.128472
   8 H :    0.116240
   9 H :    0.116339
  10 H :    0.116339

  Mayer bond orders larger than 0.100000
B(  0-C ,  1-C ) :   0.9820 B(  0-C ,  3-H ) :   0.9755 B(  0-C ,  4-H ) :   0.9752
B(  0-C ,  5-H ) :   0.9755 B(  1-C ,  2-C ) :   0.9820 B(  1-C ,  6-H ) :   0.9690
B(  1-C ,  7-H ) :   0.9690 B(  2-C ,  8-H ) :   0.9752 B(  2-C ,  9-H ) :   0.9755
B(  2-C , 10-H ) :   0.9755

Dispersion correction           -0.001704456
FINAL SINGLE POINT ENERGY      -119.098837747077

DIPOLE MOMENT
-------------

Method             : SCF
Type of density    : Electron Density
Multiplicity       :   1
Irrep              :   0
Energy             :  -119.1023512525479902 Eh
Relativity type    :
Basis              : AO
                                X                 Y                 Z
Electronic contribution:     -0.000000373      -0.494419540      -0.000003270
Nuclear contribution   :      0.000000233       0.459387963       0.000003008
                        -----------------------------------------
Total Dipole Moment    :     -0.000000140      -0.035031577      -0.000000262
                        -----------------------------------------
Magnitude (a.u.)       :      0.035031577
Magnitude (Debye)      :      0.089043191

VIBRATIONAL FREQUENCIES
-----------------------

Scaling factor for frequencies =  1.000000000  (already applied!)

     0:       0.00 cm**-1
     1:       0.00 cm**-1
     2:       0.00 cm**-1
     3:       0.00 cm**-1
     4:       0.00 cm**-1
     5:       0.00 cm**-1
     6:     241.45 cm**-1
     7:     292.72 cm**-1
     8:     375.67 cm**-1
     9:     760.05 cm**-1
    10:     877.68 cm**-1
    11:     914.62 cm**-1
    12:     933.32 cm**-1
    13:    1057.49 cm**-1
    14:    1179.71 cm**-1
    15:    1214.24 cm**-1
    16:    1317.68 cm**-1
    17:    1357.89 cm**-1
    18:    1394.10 cm**-1
    19:    1413.56 cm**-1
    20:    1484.64 cm**-1
    21:    1484.99 cm**-1
    22:    1490.71 cm**-1
    23:    1504.10 cm**-1
    24:    1506.43 cm**-1
    25:    2996.61 cm**-1
    26:    2998.06 cm**-1
    27:    3002.43 cm**-1
    28:    3032.65 cm**-1
    29:    3067.46 cm**-1
    30:    3076.65 cm**-1
    31:    3079.24 cm**-1
    32:    3079.54 cm**-1

IR SPECTRUM
-----------

 Mode   freq       eps      Int      T**2         TX        TY        TZ
       cm**-1   L/(mol*cm) km/mol    a.u.
----------------------------------------------------------------------------
  6:    241.45   0.000000    0.00  0.000000  (-0.000000 -0.000000 -0.000000)
  7:    292.72   0.000000    0.00  0.000000  ( 0.000000 -0.000000 -0.000264)
  8:    375.67   0.000016    0.08  0.000013  (-0.000000 -0.003671  0.000000)
  9:    760.05   0.000667    3.37  0.000274  (-0.000000 -0.000000  0.016549)
 10:    877.68   0.000168    0.85  0.000060  ( 0.000000  0.007736  0.000000)
 11:    914.62   0.000000    0.00  0.000000  ( 0.000000  0.000000 -0.000000)
 12:    933.32   0.000348    1.76  0.000116  ( 0.010786 -0.000000  0.000000)
 13:   1057.49   0.000226    1.14  0.000067  (-0.008163  0.000000 -0.000000)
 14:   1179.71   0.000229    1.16  0.000061  (-0.000000 -0.007787 -0.000000)
 15:   1214.24   0.000032    0.16  0.000008  (-0.000000  0.000000 -0.002869)
 16:   1317.68   0.000000    0.00  0.000000  (-0.000000 -0.000000 -0.000000)
 17:   1357.89   0.000590    2.98  0.000136  (-0.011641  0.000000  0.000000)
 18:   1394.10   0.000869    4.39  0.000194  ( 0.013944  0.000000  0.000000)
 19:   1413.56   0.000613    3.10  0.000135  ( 0.000000 -0.011635 -0.000000)
 20:   1484.64   0.000008    0.04  0.000002  (-0.000000  0.001308 -0.000000)
 21:   1484.99   0.000000    0.00  0.000000  ( 0.000000 -0.000002 -0.000000)
 22:   1490.71   0.000536    2.71  0.000112  ( 0.010596 -0.000000  0.000001)
 23:   1504.10   0.003107   15.70  0.000645  (-0.000000 -0.000000  0.025390)
 24:   1506.43   0.001247    6.30  0.000258  ( 0.000000  0.016075  0.000000)
 25:   2996.61   0.008479   42.85  0.000883  (-0.029716 -0.000000 -0.000000)
 26:   2998.06   0.001580    7.98  0.000164  (-0.000000  0.012823  0.000000)
 27:   3002.43   0.009045   45.71  0.000940  ( 0.000000  0.030661  0.000000)
 28:   3032.65   0.000359    1.81  0.000037  ( 0.000000  0.000000 -0.006078)
 29:   3067.46   0.000000    0.00  0.000000  ( 0.000000 -0.000000 -0.000000)
 30:   3076.65   0.006231   31.49  0.000632  ( 0.025140  0.000002 -0.000004)
 31:   3079.24   0.010499   53.06  0.001064  (-0.000001  0.032619  0.000010)
 32:   3079.54   0.020152  101.84  0.002042  (-0.000002  0.000007 -0.045189)

--------------------------
THERMOCHEMISTRY AT 298.15K
--------------------------

Temperature         ...   298.15 K
Pressure            ...     1.00 atm
Total Mass          ...    44.10 AMU
Quasi RRHO          ...     True
Cut-Off Frequency   ...     1.00 cm^-1

Throughout the following assumptions are being made:
  (1) The electronic state is orbitally nondegenerate
  (2) There are no thermally accessible electronically excited states
  (3) Hindered rotations indicated by low frequency modes are not
      treated as such but are treated as vibrations and this may
      cause some error
  (4) All equations used are the standard statistical mechanics
      equations for an ideal gas
  (5) All vibrations are strictly harmonic

freq.     241.45  E(vib)   ...       0.31
freq.     292.72  E(vib)   ...       0.27
freq.     375.67  E(vib)   ...       0.21
freq.     760.05  E(vib)   ...       0.06
freq.     877.68  E(vib)   ...       0.04
freq.     914.62  E(vib)   ...       0.03
freq.     933.32  E(vib)   ...       0.03
freq.    1057.49  E(vib)   ...       0.02
freq.    1179.71  E(vib)   ...       0.01
freq.    1214.24  E(vib)   ...       0.01
freq.    1317.68  E(vib)   ...       0.01
freq.    1357.89  E(vib)   ...       0.01
freq.    1394.10  E(vib)   ...       0.00
freq.    1413.56  E(vib)   ...       0.00
freq.    1484.64  E(vib)   ...       0.00
freq.    1484.99  E(vib)   ...       0.00
freq.    1490.71  E(vib)   ...       0.00
freq.    1504.10  E(vib)   ...       0.00
freq.    1506.43  E(vib)   ...       0.00
freq.    2996.61  E(vib)   ...       0.00
freq.    2998.06  E(vib)   ...       0.00
freq.    3002.43  E(vib)   ...       0.00
freq.    3032.65  E(vib)   ...       0.00
freq.    3067.46  E(vib)   ...       0.00
freq.    3076.65  E(vib)   ...       0.00
freq.    3079.24  E(vib)   ...       0.00
freq.    3079.54  E(vib)   ...       0.00

------------
INNER ENERGY
------------

The inner energy is: U= E(el) + E(ZPE) + E(vib) + E(rot) + E(trans)
    E(el)   - is the total energy from the electronic structure calculation
              = E(kin-el) + E(nuc-el) + E(el-el) + E(nuc-nuc)
    E(ZPE)  - the the zero temperature vibrational energy from the frequency calculation
    E(vib)  - the the finite temperature correction to E(ZPE) due to population
              of excited vibrational states
    E(rot)  - is the rotational thermal energy
    E(trans)- is the translational thermal energy

Summary of contributions to the inner energy U:
Electronic energy                ...   -119.09883775 Eh
Zero point energy                ...      0.10282211 Eh      64.52 kcal/mol
Thermal vibrational correction   ...      0.00163258 Eh       1.02 kcal/mol
Thermal rotational correction    ...      0.00141627 Eh       0.89 kcal/mol
Thermal translational correction ...      0.00141627 Eh       0.89 kcal/mol
-----------------------------------------------------------------------
Total thermal energy                   -118.99155052 Eh

Summary of corrections to the electronic energy:
(perhaps to be used in another calculation)
Total thermal correction                  0.00446512 Eh       2.80 kcal/mol
Non-thermal (ZPE) correction              0.10282211 Eh      64.52 kcal/mol
-----------------------------------------------------------------------
Total correction                          0.10728722 Eh      67.32 kcal/mol

--------
ENTHALPY
--------

The enthalpy is H = U + kB*T
                kB is Boltzmann's constant
Total thermal energy              ...   -118.99155052 Eh
Thermal Enthalpy correction       ...      0.00094421 Eh       0.59 kcal/mol
-----------------------------------------------------------------------
Total Enthalpy                    ...   -118.99060631 Eh

Note: Rotational entropy computed according to Herzberg
Infrared and Raman Spectra, Chapter V,1, Van Nostrand Reinhold, 1945
Point Group:  C2v, Symmetry Number:   2
Rotational constants in cm-1:     0.978220     0.282676     0.249932

Vibrational entropy computed according to the QRRHO of S. Grimme
Chem.Eur.J. 2012 18 9955 using a reference frequency of 100.0 cm-1

-------
ENTROPY
-------

The entropy contributions are T*S = T*(S(el)+S(vib)+S(rot)+S(trans))
     S(el)   - electronic entropy
     S(vib)  - vibrational entropy
     S(rot)  - rotational entropy
     S(trans)- translational entropy
The entropies will be listed as multiplied by the temperature to get
units of energy

Electronic entropy                ...      0.00000000 Eh      0.00 kcal/mol
Vibrational entropy               ...      0.00250369 Eh      1.57 kcal/mol
Rotational entropy                ...      0.01011780 Eh      6.35 kcal/mol
Translational entropy             ...      0.01771163 Eh     11.11 kcal/mol
-----------------------------------------------------------------------
Final entropy term                ...      0.03033312 Eh     19.03 kcal/mol

In case the symmetry of your molecule has not been determined correctly
or in case you have a reason to use a different symmetry number we print
out the resulting rotational entropy values for sn=1,12:

 non-linear molecules -----------------------------------
|  sn= 1 | S(rot)=       0.01077226 Eh      6.76 kcal/mol|
|  sn= 2 | S(rot)=       0.01011780 Eh      6.35 kcal/mol|
|  sn= 3 | S(rot)=       0.00973497 Eh      6.11 kcal/mol|
|  sn= 4 | S(rot)=       0.00946334 Eh      5.94 kcal/mol|
|  sn= 5 | S(rot)=       0.00925265 Eh      5.81 kcal/mol|
|  sn= 6 | S(rot)=       0.00908051 Eh      5.70 kcal/mol|
|  sn= 7 | S(rot)=       0.00893496 Eh      5.61 kcal/mol|
|  sn= 8 | S(rot)=       0.00880889 Eh      5.53 kcal/mol|
|  sn= 9 | S(rot)=       0.00869768 Eh      5.46 kcal/mol|
|  sn=10 | S(rot)=       0.00859820 Eh      5.40 kcal/mol|
|  sn=11 | S(rot)=       0.00850821 Eh      5.34 kcal/mol|
|  sn=12 | S(rot)=       0.00842605 Eh      5.29 kcal/mol|
 linear molecules ---------------------------------------
|  Dinfh | S(rot)=       0.00663498 Eh      4.16 kcal/mol|
|  Cinfv | S(rot)=       0.00728943 Eh      4.57 kcal/mol|
 --------------------------------------------------------

-------------------
GIBBS FREE ENERGY
-------------------

The Gibbs free energy is G = H - T*S

Total enthalpy                    ...   -118.99060631 Eh
Total entropy correction          ...     -0.03033312 Eh    -19.03 kcal/mol
-----------------------------------------------------------------------
Final Gibbs free energy         ...   -119.02093943 Eh

For completeness - the Gibbs free energy minus the electronic energy
G-E(el)                           ...      0.07789832 Eh     48.88 kcal/mol

                             ****ORCA TERMINATED NORMALLY****
TOTAL RUN TIME: 0 days 0 hours 2 minutes 17 seconds 324 msec
