                         Program Version 6.0.0  -   RELEASE  -
|  1> ! r2SCAN-3c DEF2-TZVP FREQ
|  2> * xyzfile 0 1 vacuum_censo.xyz
|  3>
|  4>                          ****END OF INPUT****

CARTESIAN COORDINATES (ANGSTROEM)
---------------------------------
  C     -1.268738    0.268378    0.000005
  C     -0.000003   -0.582259    0.000027
  C      1.268744    0.268359   -0.000030
  H     -1.304811    0.915080    0.883583
  H     -1.304970    0.914811   -0.883763
  H     -2.171159   -0.350649    0.000181
  H      0.000004   -1.240567    0.877439
  H     -0.000022   -1.240649   -0.877325
  H      1.304921    0.914855   -0.883754
  H      2.171156   -0.350683    0.000034
  H      1.304894    0.914996    0.883593

 Total Charge           Charge          ....    0
 Multiplicity           Mult            ....    1
 Number of Electrons    NEL             ....   26
 Basis Dimension        Dim             ....  141

ORBITAL ENERGIES
----------------

  NO   OCC          E(Eh)            E(eV)
   0   2.0000     -10.026055      -272.8228
   1   2.0000     -10.015891      -272.5463
   2   2.0000     -10.015887      -272.5461
   3   2.0000      -0.744932       -20.2706
   4   2.0000      -0.645116       -17.5545
   5   2.0000      -0.549900       -14.9635
   6   2.0000      -0.423694       -11.5293
   7   2.0000      -0.403957       -10.9922
   8   2.0000      -0.365730        -9.9520
   9   2.0000      -0.347440        -9.4543
  10   2.0000      -0.306699        -8.3457
  11   2.0000      -0.305646        -8.3171
  12   2.0000      -0.294956        -8.0261
  13   0.0000       0.049540         1.3481
  14   0.0000       0.094931         2.5832
  15   0.0000       0.099185         2.6990
  16   0.0000       0.102822         2.7979
  17   0.0000       0.117077         3.1858

MULLIKEN ATOMIC CHARGES
-----------------------
   0 C :   -0.312670
   1 C :   -0.119846
   2 C :   -0.312670
   3 H :    0.095662
   4 H :    0.095665
   5 H :    0.103959
   6 H :    0.077308
   7 H :    0.077307
   8 H :    0.095664
   9 H :    0.103959
  10 H :    0.095663
Sum of atomic charges:   -0.0000000

LOEWDIN ATOMIC CHARGES
----------------------
   0 C :   -0.315460
   1 C :   -0.322697
   2 C :   -0.315460
   3 H :    0.116208
   4 H :    0.116208
   5 H :    0.116088
   6 H :    0.128305
   7 H :    0.128305
   8 H :    0.116208
   9 H :    0.116088
  10 H :    0.116208

  Mayer bond orders larger than 0.100000
B(  0-C ,  1-C ) :   0.9819 B(  0-C ,  3-H ) :   0.9756 B(  0-C ,  4-H ) :   0.9756
B(  0-C ,  5-H ) :   0.9752 B(  1-C ,  2-C ) :   0.9819 B(  1-C ,  6-H ) :   0.9692
B(  1-C ,  7-H ) :   0.9692 B(  2-C ,  8-H ) :   0.9756 B(  2-C ,  9-H ) :   0.9752
B(  2-C , 10-H ) :   0.9756

Dispersion correction           -0.001704056
FINAL SINGLE POINT ENERGY      -119.098838766192

DIPOLE MOMENT
-------------

Method             : SCF
Type of density    : Electron Density
Multiplicity       :   1
Irrep              :   0
Energy             :  -119.1023534026067949 Eh
Relativity type    :
Basis              : AO
                                X                 Y                 Z
Electronic contribution:     -0.000004460      -0.493497074       0.000013811
Nuclear contribution   :      0.000004268       0.458885217      -0.000012639
                        -----------------------------------------
Total Dipole Moment    :     -0.000000192      -0.034611856       0.000001172
                        -----------------------------------------
Magnitude (a.u.)       :      0.034611856
Magnitude (Debye)      :      0.087976347

VIBRATIONAL FREQUENCIES
-----------------------

Scaling factor for frequencies =  1.000000000  (already applied!)

     0:       0.00 cm**-1
     1:       0.00 cm**-1
     2:       0.00 cm**-1
     3:       0.00 cm**-1
     4:       0.00 cm**-1
     5:       0.00 cm**-1
     6:     230.92 cm**-1
     7:     285.15 cm**-1
     8:     374.07 cm**-1
     9:     757.33 cm**-1
    10:     874.79 cm**-1
    11:     912.01 cm**-1
    12:     930.94 cm**-1
    13:    1054.86 cm**-1
    14:    1178.07 cm**-1
    15:    1212.48 cm**-1
    16:    1316.47 cm**-1
    17:    1357.03 cm**-1
    18:    1392.43 cm**-1
    19:    1411.88 cm**-1
    20:    1484.04 cm**-1
    21:    1484.76 cm**-1
    22:    1490.36 cm**-1
    23:    1503.12 cm**-1
    24:    1506.14 cm**-1
    25:    3001.62 cm**-1
    26:    3002.31 cm**-1
    27:    3005.03 cm**-1
    28:    3034.44 cm**-1
    29:    3072.05 cm**-1
    30:    3083.09 cm**-1
    31:    3083.24 cm**-1
    32:    3085.52 cm**-1

IR SPECTRUM
-----------

 Mode   freq       eps      Int      T**2         TX        TY        TZ
       cm**-1   L/(mol*cm) km/mol    a.u.
----------------------------------------------------------------------------
  6:    230.92   0.000000    0.00  0.000000  (-0.000002  0.000000  0.000000)
  7:    285.15   0.000000    0.00  0.000000  (-0.000001 -0.000000 -0.000218)
  8:    374.07   0.000017    0.08  0.000014  ( 0.000000  0.003719 -0.000001)
  9:    757.33   0.000680    3.44  0.000280  ( 0.000000  0.000001  0.016738)
 10:    874.79   0.000169    0.85  0.000060  (-0.000000 -0.007762 -0.000000)
 11:    912.01   0.000000    0.00  0.000000  (-0.000000 -0.000000 -0.000000)
 12:    930.94   0.000345    1.74  0.000116  ( 0.010757 -0.000000 -0.000000)
 13:   1054.86   0.000232    1.17  0.000069  ( 0.008284 -0.000000 -0.000000)
 14:   1178.07   0.000235    1.19  0.000062  ( 0.000000  0.007897  0.000000)
 15:   1212.48   0.000034    0.17  0.000009  ( 0.000000  0.000001 -0.002961)
 16:   1316.47   0.000000    0.00  0.000000  (-0.000000  0.000000 -0.000000)
 17:   1357.03   0.000598    3.02  0.000137  ( 0.011725 -0.000000  0.000000)
 18:   1392.43   0.000864    4.37  0.000194  (-0.013916  0.000000  0.000000)
 19:   1411.88   0.000606    3.06  0.000134  (-0.000000 -0.011573 -0.000000)
 20:   1484.04   0.000000    0.00  0.000000  ( 0.000000  0.000000  0.000000)
 21:   1484.76   0.000006    0.03  0.000001  ( 0.000000 -0.001121  0.000001)
 22:   1490.36   0.000538    2.72  0.000113  (-0.010613  0.000000  0.000002)
 23:   1503.12   0.003115   15.74  0.000647  ( 0.000001 -0.000000  0.025431)
 24:   1506.14   0.001258    6.36  0.000261  (-0.000000 -0.016142 -0.000005)
 25:   3001.62   0.008312   42.01  0.000864  ( 0.029397 -0.000001 -0.000000)
 26:   3002.31   0.000000    0.00  0.000000  (-0.000004 -0.000108 -0.000000)
 27:   3005.03   0.010905   55.11  0.001132  (-0.000001 -0.033651  0.000001)
 28:   3034.44   0.000558    2.82  0.000057  (-0.000000  0.000001 -0.007578)
 29:   3072.05   0.000000    0.00  0.000000  ( 0.000006  0.000001 -0.000000)
 30:   3083.09   0.006261   31.64  0.000634  (-0.025173 -0.000001 -0.000138)
 31:   3083.24   0.019942  100.78  0.002018  (-0.000077  0.000025  0.044927)
 32:   3085.52   0.010174   51.42  0.001029  ( 0.000001 -0.032078  0.000035)

--------------------------
THERMOCHEMISTRY AT 298.15K
--------------------------

Temperature         ...   298.15 K
Pressure            ...     1.00 atm
Total Mass          ...    44.10 AMU
Quasi RRHO          ...     True
Cut-Off Frequency   ...     1.00 cm^-1

Throughout the following assumptions are being made:
  (1) The electronic state is orbitally nondegenerate
  (2) There are no thermally accessible electronically excited states
  (3) Hindered rotations indicated by low frequency modes are not
      treated as such but are treated as vibrations and this may
      cause some error
  (4) All equations used are the standard statistical mechanics
      equations for an ideal gas
  (5) All vibrations are strictly harmonic

freq.     230.92  E(vib)   ...       0.32
freq.     285.15  E(vib)   ...       0.28
freq.     374.07  E(vib)   ...       0.21
freq.     757.33  E(vib)   ...       0.06
freq.     874.79  E(vib)   ...       0.04
freq.     912.01  E(vib)   ...       0.03
freq.     930.94  E(vib)   ...       0.03
freq.    1054.86  E(vib)   ...       0.02
freq.    1178.07  E(vib)   ...       0.01
freq.    1212.48  E(vib)   ...       0.01
freq.    1316.47  E(vib)   ...       0.01
freq.    1357.03  E(vib)   ...       0.01
freq.    1392.43  E(vib)   ...       0.00
freq.    1411.88  E(vib)   ...       0.00
freq.    1484.04  E(vib)   ...       0.00
freq.    1484.76  E(vib)   ...       0.00
freq.    1490.36  E(vib)   ...       0.00
freq.    1503.12  E(vib)   ...       0.00
freq.    1506.14  E(vib)   ...       0.00
freq.    3001.62  E(vib)   ...       0.00
freq.    3002.31  E(vib)   ...       0.00
freq.    3005.03  E(vib)   ...       0.00
freq.    3034.44  E(vib)   ...       0.00
freq.    3072.05  E(vib)   ...       0.00
freq.    3083.09  E(vib)   ...       0.00
freq.    3083.24  E(vib)   ...       0.00
freq.    3085.52  E(vib)   ...       0.00

------------
INNER ENERGY
------------

The inner energy is: U= E(el) + E(ZPE) + E(vib) + E(rot) + E(trans)
    E(el)   - is the total energy from the electronic structure calculation
              = E(kin-el) + E(nuc-el) + E(el-el) + E(nuc-nuc)
    E(ZPE)  - the the zero temperature vibrational energy from the frequency calculation
    E(vib)  - the the finite temperature correction to E(ZPE) due to population
              of excited vibrational states
    E(rot)  - is the rotational thermal energy
    E(trans)- is the translational thermal energy

Summary of contributions to the inner energy U:
Electronic energy                ...   -119.09883877 Eh
Zero point energy                ...      0.10280042 Eh      64.51 kcal/mol
Thermal vibrational correction   ...      0.00166244 Eh       1.04 kcal/mol
Thermal rotational correction    ...      0.00141627 Eh       0.89 kcal/mol
Thermal translational correction ...      0.00141627 Eh       0.89 kcal/mol
-----------------------------------------------------------------------
Total thermal energy                   -118.99154336 Eh

Summary of corrections to the electronic energy:
(perhaps to be used in another calculation)
Total thermal correction                  0.00449499 Eh       2.82 kcal/mol
Non-thermal (ZPE) correction              0.10280042 Eh      64.51 kcal/mol
-----------------------------------------------------------------------
Total correction                          0.10729541 Eh      67.33 kcal/mol

--------
ENTHALPY
--------

The enthalpy is H = U + kB*T
                kB is Boltzmann's constant
Total thermal energy              ...   -118.99154336 Eh
Thermal Enthalpy correction       ...      0.00094421 Eh       0.59 kcal/mol
-----------------------------------------------------------------------
Total Enthalpy                    ...   -118.99059915 Eh

Note: Rotational entropy computed according to Herzberg
Infrared and Raman Spectra, Chapter V,1, Van Nostrand Reinhold, 1945
Point Group:  Cs, Symmetry Number:   1
Rotational constants in cm-1:     0.978479     0.282195     0.249502

Vibrational entropy computed according to the QRRHO of S. Grimme
Chem.Eur.J. 2012 18 9955 using a reference frequency of 100.0 cm-1

-------
ENTROPY
-------

The entropy contributions are T*S = T*(S(el)+S(vib)+S(rot)+S(trans))
     S(el)   - electronic entropy
     S(vib)  - vibrational entropy
     S(rot)  - rotational entropy
     S(trans)- translational entropy
The entropies will be listed as multiplied by the temperature to get
units of energy

Electronic entropy                ...      0.00000000 Eh      0.00 kcal/mol
Vibrational entropy               ...      0.00256989 Eh      1.61 kcal/mol
Rotational entropy                ...      0.01077375 Eh      6.76 kcal/mol
Translational entropy             ...      0.01771163 Eh     11.11 kcal/mol
-----------------------------------------------------------------------
Final entropy term                ...      0.03105527 Eh     19.49 kcal/mol

In case the symmetry of your molecule has not been determined correctly
or in case you have a reason to use a different symmetry number we print
out the resulting rotational entropy values for sn=1,12:

 non-linear molecules -----------------------------------
|  sn= 1 | S(rot)=       0.01077375 Eh      6.76 kcal/mol|
|  sn= 2 | S(rot)=       0.01011929 Eh      6.35 kcal/mol|
|  sn= 3 | S(rot)=       0.00973646 Eh      6.11 kcal/mol|
|  sn= 4 | S(rot)=       0.00946483 Eh      5.94 kcal/mol|
|  sn= 5 | S(rot)=       0.00925415 Eh      5.81 kcal/mol|
|  sn= 6 | S(rot)=       0.00908200 Eh      5.70 kcal/mol|
|  sn= 7 | S(rot)=       0.00893646 Eh      5.61 kcal/mol|
|  sn= 8 | S(rot)=       0.00881038 Eh      5.53 kcal/mol|
|  sn= 9 | S(rot)=       0.00869917 Eh      5.46 kcal/mol|
|  sn=10 | S(rot)=       0.00859969 Eh      5.40 kcal/mol|
|  sn=11 | S(rot)=       0.00850970 Eh      5.34 kcal/mol|
|  sn=12 | S(rot)=       0.00842755 Eh      5.29 kcal/mol|
 linear molecules ---------------------------------------
|  Dinfh | S(rot)=       0.00663660 Eh      4.16 kcal/mol|
|  Cinfv | S(rot)=       0.00729106 Eh      4.58 kcal/mol|
 --------------------------------------------------------

-------------------
GIBBS FREE ENERGY
-------------------

The Gibbs free energy is G = H - T*S

Total enthalpy                    ...   -118.99059915 Eh
Total entropy correction          ...     -0.03105527 Eh    -19.49 kcal/mol
-----------------------------------------------------------------------
Final Gibbs free energy         ...   -119.02165442 Eh

For completeness - the Gibbs free energy minus the electronic energy
G-E(el)                           ...      0.07718435 Eh     48.43 kcal/mol

                             ****ORCA TERMINATED NORMALLY****
TOTAL RUN TIME: 0 days 0 hours 2 minutes 24 seconds 324 msec
