                         Program Version 6.0.0  -   RELEASE  -
|  1> ! r2SCAN-3c DEF2-TZVP FREQ
|  2> * xyzfile 0 1 censo.xyz
|  3>
|  4>                          ****END OF INPUT****

CARTESIAN COORDINATES (ANGSTROEM)
---------------------------------
  C     -1.845477   -0.758259   -0.125142
  C     -1.846338    0.757769    0.124835
  C     -0.530269    1.296320   -0.426823
  S      0.698398    0.000144    0.000269
  C     -0.530094   -1.295245    0.429467
  O      1.479373    0.391697    1.205899
  O      1.475997   -0.392105   -1.207384
  H     -1.914363   -0.961370   -1.198973
  H     -2.687950   -1.247401    0.369522
  H     -2.688232    1.246255   -0.371456
  H     -1.917630    0.960535    1.198560
  H     -0.535817    1.363305   -1.518352
  H     -0.191801    2.237087    0.011836
  H     -0.190763   -2.237107   -0.006181
  H     -0.537141   -1.359202    1.521182

 Total Charge           Charge          ....    0
 Multiplicity           Mult            ....    1
 Number of Electrons    NEL             ....   64
 Basis Dimension        Dim             ....  271

ORBITAL ENERGIES
----------------

  NO   OCC          E(Eh)            E(eV)
   0   2.0000     -88.708222     -2413.8734
   1   2.0000     -18.938681      -515.3477
   2   2.0000     -18.938650      -515.3469
   3   2.0000     -10.080821      -274.3131
   4   2.0000     -10.080815      -274.3129
   5   2.0000     -10.070042      -274.0198
   6   2.0000     -10.069923      -274.0165
   7   2.0000      -7.994874      -217.5516
   8   2.0000      -5.940426      -161.6472
   9   2.0000      -5.938348      -161.5907
  10   2.0000      -5.936899      -161.5512
  11   2.0000      -1.038084       -28.2477
  12   2.0000      -0.940370       -25.5888
  13   2.0000      -0.830699       -22.6045
  14   2.0000      -0.732716       -19.9382
  15   2.0000      -0.688463       -18.7340
  16   2.0000      -0.586206       -15.9515
  17   2.0000      -0.558950       -15.2098
  18   2.0000      -0.489582       -13.3222
  19   2.0000      -0.474758       -12.9188
  20   2.0000      -0.437978       -11.9180
  21   2.0000      -0.425648       -11.5825
  22   2.0000      -0.408028       -11.1030
  23   2.0000      -0.405065       -11.0224
  24   2.0000      -0.370959       -10.0943
  25   2.0000      -0.365426        -9.9437
  26   2.0000      -0.357214        -9.7203
  27   2.0000      -0.341542        -9.2938
  28   2.0000      -0.290200        -7.8967
  29   2.0000      -0.274650        -7.4736
  30   2.0000      -0.260717        -7.0945
  31   2.0000      -0.256040        -6.9672
  32   0.0000       0.009679         0.2634
  33   0.0000       0.012095         0.3291
  34   0.0000       0.037633         1.0240
  35   0.0000       0.040486         1.1017
  36   0.0000       0.043843         1.1930

MULLIKEN ATOMIC CHARGES
-----------------------
   0 C :   -0.185250
   1 C :   -0.185152
   2 C :   -0.234341
   3 S :    0.806442
   4 C :   -0.234285
   5 O :   -0.489395
   6 O :   -0.489456
   7 H :    0.113394
   8 H :    0.110236
   9 H :    0.110254
  10 H :    0.113269
  11 H :    0.138255
  12 H :    0.143904
  13 H :    0.143971
  14 H :    0.138154
Sum of atomic charges:   -0.0000000

LOEWDIN ATOMIC CHARGES
----------------------
   0 C :   -0.276580
   1 C :   -0.276534
   2 C :   -0.344124
   3 S :    0.769311
   4 C :   -0.344209
   5 O :   -0.324528
   6 O :   -0.324588
   7 H :    0.142411
   8 H :    0.140593
   9 H :    0.140592
  10 H :    0.142381
  11 H :    0.139745
  12 H :    0.137880
  13 H :    0.137909
  14 H :    0.139740

  Mayer bond orders larger than 0.100000
B(  0-C ,  1-C ) :   0.9597 B(  0-C ,  4-C ) :   0.9897 B(  0-C ,  7-H ) :   0.9630
B(  0-C ,  8-H ) :   0.9504 B(  1-C ,  2-C ) :   0.9898 B(  1-C ,  9-H ) :   0.9504
B(  1-C , 10-H ) :   0.9630 B(  2-C ,  3-S ) :   0.8266 B(  2-C , 11-H ) :   0.9429
B(  2-C , 12-H ) :   0.9432 B(  3-S ,  4-C ) :   0.8268 B(  3-S ,  5-O ) :   1.7980
B(  3-S ,  6-O ) :   1.7977 B(  4-C , 13-H ) :   0.9432 B(  4-C , 14-H ) :   0.9429

Dispersion correction           -0.004654447
FINAL SINGLE POINT ENERGY      -705.810623565529

DIPOLE MOMENT
-------------

Method             : SCF
Type of density    : Electron Density
Multiplicity       :   1
Irrep              :   0
Energy             :  -705.8211004589363711 Eh
Relativity type    :
Basis              : AO
                                X                 Y                 Z
Electronic contribution:      7.911338821      -0.000904158      -0.002499526
Nuclear contribution   :    -10.096260137       0.001510313       0.004531927
                        -----------------------------------------
Total Dipole Moment    :     -2.184921316       0.000606155       0.002032401
                        -----------------------------------------
Magnitude (a.u.)       :      2.184922346
Magnitude (Debye)      :      5.553631248

VIBRATIONAL FREQUENCIES
-----------------------

Scaling factor for frequencies =  1.000000000  (already applied!)

     0:       0.00 cm**-1
     1:       0.00 cm**-1
     2:       0.00 cm**-1
     3:       0.00 cm**-1
     4:       0.00 cm**-1
     5:       0.00 cm**-1
     6:     116.17 cm**-1
     7:     250.75 cm**-1
     8:     322.93 cm**-1
     9:     369.06 cm**-1
    10:     372.04 cm**-1
    11:     432.43 cm**-1
    12:     512.05 cm**-1
    13:     564.81 cm**-1
    14:     621.49 cm**-1
    15:     709.06 cm**-1
    16:     805.01 cm**-1
    17:     884.34 cm**-1
    18:     905.97 cm**-1
    19:     914.19 cm**-1
    20:     979.91 cm**-1
    21:     991.78 cm**-1
    22:    1014.39 cm**-1
    23:    1043.50 cm**-1
    24:    1063.26 cm**-1
    25:    1143.20 cm**-1
    26:    1183.20 cm**-1
    27:    1207.25 cm**-1
    28:    1223.39 cm**-1
    29:    1286.47 cm**-1
    30:    1288.65 cm**-1
    31:    1336.33 cm**-1
    32:    1356.19 cm**-1
    33:    1450.10 cm**-1
    34:    1451.51 cm**-1
    35:    1480.60 cm**-1
    36:    1491.27 cm**-1
    37:    3034.37 cm**-1
    38:    3039.06 cm**-1
    39:    3057.84 cm**-1
    40:    3057.97 cm**-1
    41:    3092.14 cm**-1
    42:    3099.94 cm**-1
    43:    3134.52 cm**-1
    44:    3135.38 cm**-1

IR SPECTRUM
-----------

 Mode   freq       eps      Int      T**2         TX        TY        TZ
       cm**-1   L/(mol*cm) km/mol    a.u.
----------------------------------------------------------------------------
  6:    116.17   0.000405    2.05  0.001087  (-0.000103 -0.012655 -0.030452)
  7:    250.75   0.000009    0.04  0.000011  ( 0.003323  0.000038  0.000006)
  8:    322.93   0.000005    0.03  0.000005  ( 0.002215  0.000063  0.000007)
  9:    369.06   0.000080    0.40  0.000068  ( 0.001489  0.001385  0.007962)
 10:    372.04   0.001605    8.11  0.001346  ( 0.036692 -0.000050 -0.000350)
 11:    432.43   0.002075   10.49  0.001498  ( 0.000025  0.036397 -0.013151)
 12:    512.05   0.001849    9.34  0.001127  ( 0.000017 -0.033537 -0.001453)
 13:    564.81   0.002061   10.42  0.001139  (-0.033749  0.000082  0.000017)
 14:    621.49   0.001936    9.78  0.000972  (-0.031176  0.000004  0.000040)
 15:    709.06   0.010939   55.28  0.004814  (-0.000028 -0.063551  0.027852)
 16:    805.01   0.000217    1.10  0.000084  ( 0.009170 -0.000029  0.000037)
 17:    884.34   0.000003    0.01  0.000001  ( 0.000952 -0.000020  0.000017)
 18:    905.97   0.000156    0.79  0.000054  ( 0.000013  0.005923 -0.004300)
 19:    914.19   0.003071   15.52  0.001048  ( 0.000023 -0.032162  0.003736)
 20:    979.91   0.000058    0.29  0.000018  ( 0.000009  0.004170 -0.000966)
 21:    991.78   0.006426   32.47  0.002022  ( 0.044966  0.000010 -0.000102)
 22:   1014.39   0.025489  128.81  0.007841  (-0.088551  0.000098  0.000198)
 23:   1043.50   0.000141    0.71  0.000042  (-0.006488 -0.000004  0.000016)
 24:   1063.26   0.006058   30.61  0.001778  ( 0.000255  0.014883  0.039451)
 25:   1143.20   0.004625   23.37  0.001263  (-0.035532  0.000025  0.000079)
 26:   1183.20   0.033029  166.92  0.008711  ( 0.000183  0.030060  0.088361)
 27:   1207.25   0.000448    2.26  0.000116  ( 0.000021 -0.005647 -0.009163)
 28:   1223.39   0.000095    0.48  0.000024  ( 0.004920  0.000004  0.000054)
 29:   1286.47   0.001837    9.29  0.000446  ( 0.021112  0.000015  0.000036)
 30:   1288.65   0.000692    3.50  0.000168  ( 0.000006 -0.002470  0.012708)
 31:   1336.33   0.000336    1.70  0.000079  ( 0.000015 -0.006249 -0.006283)
 32:   1356.19   0.000045    0.23  0.000010  (-0.003214  0.000000  0.000009)
 33:   1450.10   0.000523    2.64  0.000113  ( 0.010592 -0.000451  0.000398)
 34:   1451.51   0.002409   12.17  0.000518  ( 0.000291  0.017983 -0.013944)
 35:   1480.60   0.001387    7.01  0.000292  (-0.000021 -0.009441 -0.014256)
 36:   1491.27   0.000457    2.31  0.000096  (-0.009781  0.000016  0.000024)
 37:   3034.37   0.003200   16.17  0.000329  ( 0.018140  0.000091  0.000064)
 38:   3039.06   0.004305   21.75  0.000442  ( 0.000127 -0.015801 -0.013868)
 39:   3057.84   0.000478    2.42  0.000049  (-0.004411  0.002413 -0.004851)
 40:   3057.97   0.000508    2.57  0.000052  ( 0.006033  0.001802 -0.003489)
 41:   3092.14   0.002605   13.17  0.000263  ( 0.016215  0.000017 -0.000017)
 42:   3099.94   0.003549   17.93  0.000357  ( 0.000013 -0.007498  0.017349)
 43:   3134.52   0.000108    0.54  0.000011  ( 0.003269 -0.000030 -0.000167)
 44:   3135.38   0.000334    1.69  0.000033  ( 0.000084  0.001315  0.005611)

--------------------------
THERMOCHEMISTRY AT 298.15K
--------------------------

Temperature         ...   298.15 K
Pressure            ...     1.00 atm
Total Mass          ...   120.17 AMU
Quasi RRHO          ...     True
Cut-Off Frequency   ...     1.00 cm^-1

Throughout the following assumptions are being made:
  (1) The electronic state is orbitally nondegenerate
  (2) There are no thermally accessible electronically excited states
  (3) Hindered rotations indicated by low frequency modes are not
      treated as such but are treated as vibrations and this may
      cause some error
  (4) All equations used are the standard statistical mechanics
      equations for an ideal gas
  (5) All vibrations are strictly harmonic

freq.     116.17  E(vib)   ...       0.44
freq.     250.75  E(vib)   ...       0.30
freq.     322.93  E(vib)   ...       0.25
freq.     369.06  E(vib)   ...       0.21
freq.     372.04  E(vib)   ...       0.21
freq.     432.43  E(vib)   ...       0.18
freq.     512.05  E(vib)   ...       0.14
freq.     564.81  E(vib)   ...       0.11
freq.     621.49  E(vib)   ...       0.09
freq.     709.06  E(vib)   ...       0.07
freq.     805.01  E(vib)   ...       0.05
freq.     884.34  E(vib)   ...       0.04
freq.     905.97  E(vib)   ...       0.03
freq.     914.19  E(vib)   ...       0.03
freq.     979.91  E(vib)   ...       0.02
freq.     991.78  E(vib)   ...       0.02
freq.    1014.39  E(vib)   ...       0.02
freq.    1043.50  E(vib)   ...       0.02
freq.    1063.26  E(vib)   ...       0.02
freq.    1143.20  E(vib)   ...       0.01
freq.    1183.20  E(vib)   ...       0.01
freq.    1207.25  E(vib)   ...       0.01
freq.    1223.39  E(vib)   ...       0.01
freq.    1286.47  E(vib)   ...       0.01
freq.    1288.65  E(vib)   ...       0.01
freq.    1336.33  E(vib)   ...       0.01
freq.    1356.19  E(vib)   ...       0.01
freq.    1450.10  E(vib)   ...       0.00
freq.    1451.51  E(vib)   ...       0.00
freq.    1480.60  E(vib)   ...       0.00
freq.    1491.27  E(vib)   ...       0.00
freq.    3034.37  E(vib)   ...       0.00
freq.    3039.06  E(vib)   ...       0.00
freq.    3057.84  E(vib)   ...       0.00
freq.    3057.97  E(vib)   ...       0.00
freq.    3092.14  E(vib)   ...       0.00
freq.    3099.94  E(vib)   ...       0.00
freq.    3134.52  E(vib)   ...       0.00
freq.    3135.38  E(vib)   ...       0.00

------------
INNER ENERGY
------------

The inner energy is: U= E(el) + E(ZPE) + E(vib) + E(rot) + E(trans)
    E(el)   - is the total energy from the electronic structure calculation
              = E(kin-el) + E(nuc-el) + E(el-el) + E(nuc-nuc)
    E(ZPE)  - the the zero temperature vibrational energy from the frequency calculation
    E(vib)  - the the finite temperature correction to E(ZPE) due to population
              of excited vibrational states
    E(rot)  - is the rotational thermal energy
    E(trans)- is the translational thermal energy

Summary of contributions to the inner energy U:
Electronic energy                ...   -705.81062357 Eh
Zero point energy                ...      0.12170544 Eh      76.37 kcal/mol
Thermal vibrational correction   ...      0.00373867 Eh       2.35 kcal/mol
Thermal rotational correction    ...      0.00141627 Eh       0.89 kcal/mol
Thermal translational correction ...      0.00141627 Eh       0.89 kcal/mol
-----------------------------------------------------------------------
Total thermal energy                   -705.68234691 Eh

Summary of corrections to the electronic energy:
(perhaps to be used in another calculation)
Total thermal correction                  0.00657121 Eh       4.12 kcal/mol
Non-thermal (ZPE) correction              0.12170544 Eh      76.37 kcal/mol
-----------------------------------------------------------------------
Total correction                          0.12827665 Eh      80.49 kcal/mol

--------
ENTHALPY
--------

The enthalpy is H = U + kB*T
                kB is Boltzmann's constant
Total thermal energy              ...   -705.68234691 Eh
Thermal Enthalpy correction       ...      0.00094421 Eh       0.59 kcal/mol
-----------------------------------------------------------------------
Total Enthalpy                    ...   -705.68140270 Eh

Note: Only C1 symmetry has been detected, increase convergence thresholds
      if your molecule has a higher symmetry. Symmetry factor of 1.0 is
      used for the rotational entropy correction.

Note: Rotational entropy computed according to Herzberg
Infrared and Raman Spectra, Chapter V,1, Van Nostrand Reinhold, 1945
Point Group:  C1, Symmetry Number:   1
Rotational constants in cm-1:     0.122986     0.065900     0.061374

Vibrational entropy computed according to the QRRHO of S. Grimme
Chem.Eur.J. 2012 18 9955 using a reference frequency of 100.0 cm-1

-------
ENTROPY
-------

The entropy contributions are T*S = T*(S(el)+S(vib)+S(rot)+S(trans))
     S(el)   - electronic entropy
     S(vib)  - vibrational entropy
     S(rot)  - rotational entropy
     S(trans)- translational entropy
The entropies will be listed as multiplied by the temperature to get
units of energy

Electronic entropy                ...      0.00000000 Eh      0.00 kcal/mol
Vibrational entropy               ...      0.00583798 Eh      3.66 kcal/mol
Rotational entropy                ...      0.01310157 Eh      8.22 kcal/mol
Translational entropy             ...      0.01913142 Eh     12.01 kcal/mol
-----------------------------------------------------------------------
Final entropy term                ...      0.03807097 Eh     23.89 kcal/mol

In case the symmetry of your molecule has not been determined correctly
or in case you have a reason to use a different symmetry number we print
out the resulting rotational entropy values for sn=1,12:

 non-linear molecules -----------------------------------
|  sn= 1 | S(rot)=       0.01310157 Eh      8.22 kcal/mol|
|  sn= 2 | S(rot)=       0.01244711 Eh      7.81 kcal/mol|
|  sn= 3 | S(rot)=       0.01206428 Eh      7.57 kcal/mol|
|  sn= 4 | S(rot)=       0.01179266 Eh      7.40 kcal/mol|
|  sn= 5 | S(rot)=       0.01158197 Eh      7.27 kcal/mol|
|  sn= 6 | S(rot)=       0.01140982 Eh      7.16 kcal/mol|
|  sn= 7 | S(rot)=       0.01126428 Eh      7.07 kcal/mol|
|  sn= 8 | S(rot)=       0.01113820 Eh      6.99 kcal/mol|
|  sn= 9 | S(rot)=       0.01102699 Eh      6.92 kcal/mol|
|  sn=10 | S(rot)=       0.01092751 Eh      6.86 kcal/mol|
|  sn=11 | S(rot)=       0.01083752 Eh      6.80 kcal/mol|
|  sn=12 | S(rot)=       0.01075537 Eh      6.75 kcal/mol|
 linear molecules ---------------------------------------
|  Dinfh | S(rot)=       0.00796080 Eh      5.00 kcal/mol|
|  Cinfv | S(rot)=       0.00861526 Eh      5.41 kcal/mol|
 --------------------------------------------------------

-------------------
GIBBS FREE ENERGY
-------------------

                             ****ORCA TERMINATED NORMALLY****
TOTAL RUN TIME: 0 days 0 hours 9 minutes 29 seconds 728 msec
