                         Program Version 6.0.0  -   RELEASE  -
|  1> ! r2SCAN-3c DEF2-TZVP FREQ
|  2> * xyzfile 0 1 vacuum_censo.xyz
|  3>
|  4>                          ****END OF INPUT****

CARTESIAN COORDINATES (ANGSTROEM)
---------------------------------
  C     -1.847198   -0.761585   -0.111070
  C     -1.847246    0.761588    0.110968
  C     -0.530123    1.288623   -0.448610
  S      0.719019   -0.000021   -0.000044
  C     -0.530133   -1.288611    0.448648
  O      1.449409    0.416047    1.211529
  O      1.449569   -0.416053   -1.211448
  H     -1.913504   -0.979946   -1.183110
  H     -2.700210   -1.239468    0.379152
  H     -2.700226    1.239457   -0.379320
  H     -1.913645    0.979938    1.183017
  H     -0.533347    1.344802   -1.540808
  H     -0.193072    2.233501   -0.018109
  H     -0.193023   -2.233487    0.018223
  H     -0.533479   -1.344759    1.540867

 Total Charge           Charge          ....    0
 Multiplicity           Mult            ....    1
 Number of Electrons    NEL             ....   64
 Basis Dimension        Dim             ....  271

ORBITAL ENERGIES
----------------

  NO   OCC          E(Eh)            E(eV)
   0   2.0000     -88.707732     -2413.8601
   1   2.0000     -18.943038      -515.4663
   2   2.0000     -18.942997      -515.4651
   3   2.0000     -10.077504      -274.2228
   4   2.0000     -10.077500      -274.2227
   5   2.0000     -10.067711      -273.9563
   6   2.0000     -10.067596      -273.9532
   7   2.0000      -7.994459      -217.5403
   8   2.0000      -5.940099      -161.6383
   9   2.0000      -5.938167      -161.5857
  10   2.0000      -5.936175      -161.5315
  11   2.0000      -1.047025       -28.4910
  12   2.0000      -0.952372       -25.9154
  13   2.0000      -0.825433       -22.4612
  14   2.0000      -0.728378       -19.8202
  15   2.0000      -0.683516       -18.5994
  16   2.0000      -0.583159       -15.8686
  17   2.0000      -0.556347       -15.1390
  18   2.0000      -0.485904       -13.2221
  19   2.0000      -0.474205       -12.9038
  20   2.0000      -0.434990       -11.8367
  21   2.0000      -0.426190       -11.5972
  22   2.0000      -0.409429       -11.1411
  23   2.0000      -0.408391       -11.1129
  24   2.0000      -0.371108       -10.0984
  25   2.0000      -0.362594        -9.8667
  26   2.0000      -0.353704        -9.6248
  27   2.0000      -0.338417        -9.2088
  28   2.0000      -0.293246        -7.9796
  29   2.0000      -0.281689        -7.6652
  30   2.0000      -0.270227        -7.3532
  31   2.0000      -0.255424        -6.9504
  32   0.0000       0.010647         0.2897
  33   0.0000       0.021930         0.5968
  34   0.0000       0.035177         0.9572
  35   0.0000       0.039792         1.0828
  36   0.0000       0.041398         1.1265

MULLIKEN ATOMIC CHARGES
-----------------------
   0 C :   -0.186108
   1 C :   -0.186088
   2 C :   -0.237385
   3 S :    0.813553
   4 C :   -0.237386
   5 O :   -0.481423
   6 O :   -0.481361
   7 H :    0.111135
   8 H :    0.110883
   9 H :    0.110888
  10 H :    0.111130
  11 H :    0.135890
  12 H :    0.140189
  13 H :    0.140182
  14 H :    0.135901
Sum of atomic charges:   -0.0000000

LOEWDIN ATOMIC CHARGES
----------------------
   0 C :   -0.277370
   1 C :   -0.277360
   2 C :   -0.343341
   3 S :    0.753115
   4 C :   -0.343339
   5 O :   -0.311089
   6 O :   -0.311007
   7 H :    0.141987
   8 H :    0.139858
   9 H :    0.139858
  10 H :    0.141991
  11 H :    0.137511
  12 H :    0.135835
  13 H :    0.135827
  14 H :    0.137522

  Mayer bond orders larger than 0.100000
B(  0-C ,  1-C ) :   0.9587 B(  0-C ,  4-C ) :   0.9916 B(  0-C ,  7-H ) :   0.9640
B(  0-C ,  8-H ) :   0.9504 B(  1-C ,  2-C ) :   0.9916 B(  1-C ,  9-H ) :   0.9504
B(  1-C , 10-H ) :   0.9640 B(  2-C ,  3-S ) :   0.8244 B(  2-C , 11-H ) :   0.9440
B(  2-C , 12-H ) :   0.9446 B(  3-S ,  4-C ) :   0.8244 B(  3-S ,  5-O ) :   1.8083
B(  3-S ,  6-O ) :   1.8084 B(  4-C , 13-H ) :   0.9446 B(  4-C , 14-H ) :   0.9440

Dispersion correction           -0.004656673
FINAL SINGLE POINT ENERGY      -705.813249129960

DIPOLE MOMENT
-------------

Method             : SCF
Type of density    : Electron Density
Multiplicity       :   1
Irrep              :   0
Energy             :  -705.8235187173119130 Eh
Relativity type    :
Basis              : AO
                                X                 Y                 Z
Electronic contribution:      8.056203759      -0.000123903      -0.000199777
Nuclear contribution   :    -10.095450086       0.000070784      -0.000019233
                        -----------------------------------------
Total Dipole Moment    :     -2.039246327      -0.000053119      -0.000219010
                        -----------------------------------------
Magnitude (a.u.)       :      2.039246340
Magnitude (Debye)      :      5.183352268

VIBRATIONAL FREQUENCIES
-----------------------

Scaling factor for frequencies =  1.000000000  (already applied!)

     0:       0.00 cm**-1
     1:       0.00 cm**-1
     2:       0.00 cm**-1
     3:       0.00 cm**-1
     4:       0.00 cm**-1
     5:       0.00 cm**-1
     6:     107.51 cm**-1
     7:     251.86 cm**-1
     8:     324.85 cm**-1
     9:     364.72 cm**-1
    10:     366.68 cm**-1
    11:     425.29 cm**-1
    12:     507.38 cm**-1
    13:     558.41 cm**-1
    14:     609.08 cm**-1
    15:     697.10 cm**-1
    16:     804.71 cm**-1
    17:     881.44 cm**-1
    18:     907.67 cm**-1
    19:     912.97 cm**-1
    20:     978.53 cm**-1
    21:     994.52 cm**-1
    22:    1042.51 cm**-1
    23:    1046.66 cm**-1
    24:    1074.74 cm**-1
    25:    1145.04 cm**-1
    26:    1206.76 cm**-1
    27:    1223.48 cm**-1
    28:    1235.06 cm**-1
    29:    1284.72 cm**-1
    30:    1290.99 cm**-1
    31:    1338.54 cm**-1
    32:    1357.15 cm**-1
    33:    1451.61 cm**-1
    34:    1452.86 cm**-1
    35:    1482.76 cm**-1
    36:    1492.83 cm**-1
    37:    3025.00 cm**-1
    38:    3030.31 cm**-1
    39:    3056.72 cm**-1
    40:    3056.79 cm**-1
    41:    3081.00 cm**-1
    42:    3088.28 cm**-1
    43:    3134.16 cm**-1
    44:    3134.95 cm**-1

IR SPECTRUM
-----------

 Mode   freq       eps      Int      T**2         TX        TY        TZ
       cm**-1   L/(mol*cm) km/mol    a.u.
----------------------------------------------------------------------------
  6:    107.51   0.000389    1.96  0.001129  (-0.000004 -0.013508 -0.030760)
  7:    251.86   0.000014    0.07  0.000018  ( 0.004195  0.000005 -0.000002)
  8:    324.85   0.000008    0.04  0.000007  ( 0.002736 -0.000003  0.000005)
  9:    364.72   0.001605    8.11  0.001373  ( 0.037053  0.000008  0.000045)
 10:    366.68   0.000077    0.39  0.000065  (-0.000204  0.001982  0.007828)
 11:    425.29   0.002013   10.17  0.001477  ( 0.000005  0.035953 -0.013586)
 12:    507.38   0.002170   10.97  0.001335  ( 0.000003 -0.036535  0.000006)
 13:    558.41   0.002507   12.67  0.001401  (-0.037432  0.000008  0.000000)
 14:    609.08   0.002091   10.57  0.001071  (-0.032729 -0.000008  0.000003)
 15:    697.10   0.011597   58.61  0.005192  (-0.000002 -0.065353  0.030343)
 16:    804.71   0.000213    1.08  0.000083  ( 0.009088  0.000004 -0.000001)
 17:    881.44   0.000035    0.18  0.000012  ( 0.003526  0.000009 -0.000002)
 18:    907.67   0.000159    0.81  0.000055  (-0.000013  0.007228 -0.001593)
 19:    912.97   0.002989   15.10  0.001022  ( 0.000006 -0.031864  0.002506)
 20:    978.53   0.000100    0.50  0.000032  (-0.000005  0.005403 -0.001596)
 21:    994.52   0.000579    2.93  0.000182  ( 0.013479  0.000006  0.000011)
 22:   1042.51   0.003173   16.03  0.000950  (-0.030819 -0.000007 -0.000018)
 23:   1046.66   0.027434  138.64  0.008179  ( 0.090440  0.000037  0.000096)
 24:   1074.74   0.002166   10.94  0.000629  (-0.000109  0.009439  0.023232)
 25:   1145.04   0.006357   32.13  0.001733  (-0.041625 -0.000008 -0.000026)
 26:   1206.76   0.000044    0.22  0.000011  (-0.000002 -0.002966 -0.001568)
 27:   1223.48   0.000076    0.38  0.000019  ( 0.004397 -0.000027 -0.000069)
 28:   1235.06   0.035183  177.80  0.008890  (-0.000061  0.032850  0.088378)
 29:   1284.72   0.002072   10.47  0.000503  ( 0.022432 -0.000014 -0.000042)
 30:   1290.99   0.002737   13.83  0.000662  (-0.000009  0.002341  0.025614)
 31:   1338.54   0.000547    2.76  0.000128  ( 0.000003 -0.007020 -0.008844)
 32:   1357.15   0.000049    0.25  0.000011  (-0.003362  0.000002  0.000001)
 33:   1451.61   0.000485    2.45  0.000104  ( 0.010212  0.000053 -0.000041)
 34:   1452.86   0.002218   11.21  0.000477  (-0.000031  0.017015 -0.013675)
 35:   1482.76   0.001373    6.94  0.000289  (-0.000003 -0.009645 -0.013994)
 36:   1492.83   0.000408    2.06  0.000085  (-0.009234  0.000003  0.000006)
 37:   3025.00   0.003196   16.15  0.000330  ( 0.018157 -0.000104 -0.000105)
 38:   3030.31   0.004610   23.30  0.000475  (-0.000127 -0.016300 -0.014459)
 39:   3056.72   0.000679    3.43  0.000069  (-0.006857  0.002951 -0.003688)
 40:   3056.79   0.000635    3.21  0.000065  (-0.005721 -0.003546  0.004422)
 41:   3081.00   0.002614   13.21  0.000265  ( 0.016271 -0.000018  0.000022)
 42:   3088.28   0.004093   20.68  0.000414  (-0.000018 -0.008001  0.018696)
 43:   3134.16   0.000116    0.59  0.000012  ( 0.003404  0.000025  0.000081)
 44:   3134.95   0.000463    2.34  0.000046  (-0.000041  0.002993  0.006093)

--------------------------
THERMOCHEMISTRY AT 298.15K
--------------------------

Temperature         ...   298.15 K
Pressure            ...     1.00 atm
Total Mass          ...   120.17 AMU
Quasi RRHO          ...     True
Cut-Off Frequency   ...     1.00 cm^-1

Throughout the following assumptions are being made:
  (1) The electronic state is orbitally nondegenerate
  (2) There are no thermally accessible electronically excited states
  (3) Hindered rotations indicated by low frequency modes are not
      treated as such but are treated as vibrations and this may
      cause some error
  (4) All equations used are the standard statistical mechanics
      equations for an ideal gas
  (5) All vibrations are strictly harmonic

freq.     107.51  E(vib)   ...       0.45
freq.     251.86  E(vib)   ...       0.30
freq.     324.85  E(vib)   ...       0.24
freq.     364.72  E(vib)   ...       0.22
freq.     366.68  E(vib)   ...       0.22
freq.     425.29  E(vib)   ...       0.18
freq.     507.38  E(vib)   ...       0.14
freq.     558.41  E(vib)   ...       0.12
freq.     609.08  E(vib)   ...       0.10
freq.     697.10  E(vib)   ...       0.07
freq.     804.71  E(vib)   ...       0.05
freq.     881.44  E(vib)   ...       0.04
freq.     907.67  E(vib)   ...       0.03
freq.     912.97  E(vib)   ...       0.03
freq.     978.53  E(vib)   ...       0.03
freq.     994.52  E(vib)   ...       0.02
freq.    1042.51  E(vib)   ...       0.02
freq.    1046.66  E(vib)   ...       0.02
freq.    1074.74  E(vib)   ...       0.02
freq.    1145.04  E(vib)   ...       0.01
freq.    1206.76  E(vib)   ...       0.01
freq.    1223.48  E(vib)   ...       0.01
freq.    1235.06  E(vib)   ...       0.01
freq.    1284.72  E(vib)   ...       0.01
freq.    1290.99  E(vib)   ...       0.01
freq.    1338.54  E(vib)   ...       0.01
freq.    1357.15  E(vib)   ...       0.01
freq.    1451.61  E(vib)   ...       0.00
freq.    1452.86  E(vib)   ...       0.00
freq.    1482.76  E(vib)   ...       0.00
freq.    1492.83  E(vib)   ...       0.00
freq.    3025.00  E(vib)   ...       0.00
freq.    3030.31  E(vib)   ...       0.00
freq.    3056.72  E(vib)   ...       0.00
freq.    3056.79  E(vib)   ...       0.00
freq.    3081.00  E(vib)   ...       0.00
freq.    3088.28  E(vib)   ...       0.00
freq.    3134.16  E(vib)   ...       0.00
freq.    3134.95  E(vib)   ...       0.00

------------
INNER ENERGY
------------

The inner energy is: U= E(el) + E(ZPE) + E(vib) + E(rot) + E(trans)
    E(el)   - is the total energy from the electronic structure calculation
              = E(kin-el) + E(nuc-el) + E(el-el) + E(nuc-nuc)
    E(ZPE)  - the the zero temperature vibrational energy from the frequency calculation
    E(vib)  - the the finite temperature correction to E(ZPE) due to population
              of excited vibrational states
    E(rot)  - is the rotational thermal energy
    E(trans)- is the translational thermal energy

Summary of contributions to the inner energy U:
Electronic energy                ...   -705.81324913 Eh
Zero point energy                ...      0.12171251 Eh      76.38 kcal/mol
Thermal vibrational correction   ...      0.00377772 Eh       2.37 kcal/mol
Thermal rotational correction    ...      0.00141627 Eh       0.89 kcal/mol
Thermal translational correction ...      0.00141627 Eh       0.89 kcal/mol
-----------------------------------------------------------------------
Total thermal energy                   -705.68492635 Eh

Summary of corrections to the electronic energy:
(perhaps to be used in another calculation)
Total thermal correction                  0.00661027 Eh       4.15 kcal/mol
Non-thermal (ZPE) correction              0.12171251 Eh      76.38 kcal/mol
-----------------------------------------------------------------------
Total correction                          0.12832278 Eh      80.52 kcal/mol

--------
ENTHALPY
--------

The enthalpy is H = U + kB*T
                kB is Boltzmann's constant
Total thermal energy              ...   -705.68492635 Eh
Thermal Enthalpy correction       ...      0.00094421 Eh       0.59 kcal/mol
-----------------------------------------------------------------------
Total Enthalpy                    ...   -705.68398214 Eh

Note: Only C1 symmetry has been detected, increase convergence thresholds
      if your molecule has a higher symmetry. Symmetry factor of 1.0 is
      used for the rotational entropy correction.

Note: Rotational entropy computed according to Herzberg
Infrared and Raman Spectra, Chapter V,1, Van Nostrand Reinhold, 1945
Point Group:  C1, Symmetry Number:   1
Rotational constants in cm-1:     0.122077     0.066078     0.061651

Vibrational entropy computed according to the QRRHO of S. Grimme
Chem.Eur.J. 2012 18 9955 using a reference frequency of 100.0 cm-1

-------
ENTROPY
-------

The entropy contributions are T*S = T*(S(el)+S(vib)+S(rot)+S(trans))
     S(el)   - electronic entropy
     S(vib)  - vibrational entropy
     S(rot)  - rotational entropy
     S(trans)- translational entropy
The entropies will be listed as multiplied by the temperature to get
units of energy

Electronic entropy                ...      0.00000000 Eh      0.00 kcal/mol
Vibrational entropy               ...      0.00591779 Eh      3.71 kcal/mol
Rotational entropy                ...      0.01310167 Eh      8.22 kcal/mol
Translational entropy             ...      0.01913142 Eh     12.01 kcal/mol
-----------------------------------------------------------------------
Final entropy term                ...      0.03815088 Eh     23.94 kcal/mol

In case the symmetry of your molecule has not been determined correctly
or in case you have a reason to use a different symmetry number we print
out the resulting rotational entropy values for sn=1,12:

 non-linear molecules -----------------------------------
|  sn= 1 | S(rot)=       0.01310167 Eh      8.22 kcal/mol|
|  sn= 2 | S(rot)=       0.01244721 Eh      7.81 kcal/mol|
|  sn= 3 | S(rot)=       0.01206438 Eh      7.57 kcal/mol|
|  sn= 4 | S(rot)=       0.01179275 Eh      7.40 kcal/mol|
|  sn= 5 | S(rot)=       0.01158207 Eh      7.27 kcal/mol|
|  sn= 6 | S(rot)=       0.01140992 Eh      7.16 kcal/mol|
|  sn= 7 | S(rot)=       0.01126438 Eh      7.07 kcal/mol|
|  sn= 8 | S(rot)=       0.01113830 Eh      6.99 kcal/mol|
|  sn= 9 | S(rot)=       0.01102709 Eh      6.92 kcal/mol|
|  sn=10 | S(rot)=       0.01092761 Eh      6.86 kcal/mol|
|  sn=11 | S(rot)=       0.01083762 Eh      6.80 kcal/mol|
|  sn=12 | S(rot)=       0.01075547 Eh      6.75 kcal/mol|
 linear molecules ---------------------------------------
|  Dinfh | S(rot)=       0.00795655 Eh      4.99 kcal/mol|
|  Cinfv | S(rot)=       0.00861100 Eh      5.40 kcal/mol|
 --------------------------------------------------------

-------------------
GIBBS FREE ENERGY
-------------------

                             ****ORCA TERMINATED NORMALLY****
TOTAL RUN TIME: 0 days 0 hours 9 minutes 47 seconds 165 msec
