                         Program Version 6.0.1  -  RELEASE   -
|  1> ! r2scan-3c def2/J RI DEFGRID2 scfconv6 printgap
|  2> %output
|  3>     printlevel normal
|  4> end
|  5> * xyz 0 1
|  6> C 1.5130079825 0.0284858958 0.5144905333
|  7> C 0.7211338355 0.0960366525 -0.5492624779
|  8> C -0.7211404731 -0.0956212025 -0.5493507377
|  9> C -1.5129818224 -0.0289253429 0.5145237756
| 10> H 2.5759106084 0.1812274729 0.4383757026
| 11> H 1.1333395015 -0.1923164455 1.4975377698
| 12> H 1.1575194034 0.2921426106 -1.5210119284
| 13> H -1.1577129988 -0.2900646374 -1.521377206
| 14> H -2.5759475549 -0.181149793 0.4381278077
| 15> H -1.1333416059 0.1904467627 1.4977480613
| 16> *
| 17>
| 18>                          ****END OF INPUT****

CARTESIAN COORDINATES (ANGSTROEM)
---------------------------------
  C      1.513008    0.028486    0.514491
  C      0.721134    0.096037   -0.549262
  C     -0.721140   -0.095621   -0.549351
  C     -1.512982   -0.028925    0.514524
  H      2.575911    0.181227    0.438376
  H      1.133340   -0.192316    1.497538
  H      1.157519    0.292143   -1.521012
  H     -1.157713   -0.290065   -1.521377
  H     -2.575948   -0.181150    0.438128
  H     -1.133342    0.190447    1.497748

 Total Charge           Charge          ....    0
 Multiplicity           Mult            ....    1
 Number of Electrons    NEL             ....   30
 Basis Dimension        Dim             ....  106

ORBITAL ENERGIES
----------------

  NO   OCC          E(Eh)            E(eV)
   0   2.0000     -10.039558      -273.1902
   1   2.0000     -10.039312      -273.1836
   2   2.0000     -10.028586      -272.8917
   3   2.0000     -10.028576      -272.8914
   4   2.0000      -0.777852       -21.1664
   5   2.0000      -0.699605       -19.0372
   6   2.0000      -0.593474       -16.1492
   7   2.0000      -0.500157       -13.6100
   8   2.0000      -0.464337       -12.6353
   9   2.0000      -0.412243       -11.2177
  10   2.0000      -0.390580       -10.6282
  11   2.0000      -0.335416        -9.1271
  12   2.0000      -0.319670        -8.6987
  13   2.0000      -0.301393        -8.2013
  14   2.0000      -0.217823        -5.9273
  15   0.0000      -0.066354        -1.8056
  16   0.0000       0.048128         1.3096
  17   0.0000       0.105876         2.8810
  18   0.0000       0.123726         3.3668
  19   0.0000       0.147643         4.0176

MULLIKEN ATOMIC CHARGES
-----------------------
   0 C :   -0.316948
   1 C :   -0.108317
   2 C :   -0.108382
   3 C :   -0.316912
   4 H :    0.144625
   5 H :    0.134876
   6 H :    0.145782
   7 H :    0.145778
   8 H :    0.144615
   9 H :    0.134884
Sum of atomic charges:   -0.0000000

LOEWDIN ATOMIC CHARGES
----------------------
   0 C :   -0.284383
   1 C :   -0.194512
   2 C :   -0.194505
   3 C :   -0.284364
   4 H :    0.158870
   5 H :    0.156381
   6 H :    0.163640
   7 H :    0.163643
   8 H :    0.158869
   9 H :    0.156361

  Mayer bond orders larger than 0.100000
B(  0-C ,  1-C ) :   1.8689 B(  0-C ,  3-C ) :   0.1205 B(  0-C ,  4-H ) :   0.9593
B(  0-C ,  5-H ) :   0.9762 B(  1-C ,  2-C ) :   1.0417 B(  1-C ,  6-H ) :   0.9470
B(  2-C ,  3-C ) :   1.8689 B(  2-C ,  7-H ) :   0.9470 B(  3-C ,  8-H ) :   0.9593
B(  3-C ,  9-H ) :   0.9762

Dispersion correction           -0.001929975
FINAL SINGLE POINT ENERGY      -155.930567021747

DIPOLE MOMENT
-------------

Method             : SCF
Type of density    : Electron Density
Multiplicity       :   1
Irrep              :   0
Energy             :  -155.9312896599589635 Eh
Relativity type    :
Basis              : AO
                                X                 Y                 Z
Electronic contribution:      0.000166511      -0.000025813      -0.812670952
Nuclear contribution   :     -0.000218261       0.000268288       0.778115083
                        -----------------------------------------
Total Dipole Moment    :     -0.000051750       0.000242474      -0.034555869
                        -----------------------------------------
Magnitude (a.u.)       :      0.034556759
Magnitude (Debye)      :      0.087836300

Rotational constants in cm-1:             0.715623             0.194433             0.153940
Rotational constants in MHz :         21453.826949          5828.943601          4615.000361

                             ****ORCA TERMINATED NORMALLY****
TOTAL RUN TIME: 0 days 0 hours 0 minutes 19 seconds 724 msec
