                         Program Version 6.0.1  -  RELEASE   -
|  1> ! r2scan-3c def2/J RI DEFGRID2 scfconv6 printgap
|  2> %output
|  3>     printlevel normal
|  4> end
|  5> * xyz 0 1
|  6> C -1.744333762 1.4526965626 -0.1571128285
|  7> C -1.630822345 0.0083531123 0.3206839211
|  8> C -2.9411367173 -0.7427542979 0.0860180289
|  9> C -0.5120043683 -0.7245765979 -0.4063220344
| 10> Br 1.2488999897 -0.0022860791 0.0357306707
| 11> H -0.8133659996 1.9900897038 0.009913457
| 12> H -1.9770077594 1.4845811364 -1.2202753165
| 13> H -2.5350822051 1.9674167705 0.3829799206
| 14> H -1.4108658459 0.0063554631 1.3943606751
| 15> H -3.1776046551 -0.7737108718 -0.9758707656
| 16> H -3.7552227463 -0.2421542675 0.6038016991
| 17> H -2.8770945285 -1.7640822736 0.4553886195
| 18> H -0.6142834477 -0.6350329711 -1.4876487439
| 19> H -0.4775591273 -1.7773751755 -0.1275314728
| 20> *
| 21>
| 22>                          ****END OF INPUT****

CARTESIAN COORDINATES (ANGSTROEM)
---------------------------------
  C     -1.744334    1.452697   -0.157113
  C     -1.630822    0.008353    0.320684
  C     -2.941137   -0.742754    0.086018
  C     -0.512004   -0.724577   -0.406322
  Br     1.248900   -0.002286    0.035731
  H     -0.813366    1.990090    0.009913
  H     -1.977008    1.484581   -1.220275
  H     -2.535082    1.967417    0.382980
  H     -1.410866    0.006355    1.394361
  H     -3.177605   -0.773711   -0.975871
  H     -3.755223   -0.242154    0.603802
  H     -2.877095   -1.764082    0.455389
  H     -0.614283   -0.635033   -1.487649
  H     -0.477559   -1.777375   -0.127531

 Total Charge           Charge          ....    0
 Multiplicity           Mult            ....    1
 Number of Electrons    NEL             ....   68
 Basis Dimension        Dim             ....  157

ORBITAL ENERGIES
----------------

  NO   OCC          E(Eh)            E(eV)
   0   2.0000    -482.210886    -13121.6253
   1   2.0000     -62.282953     -1694.8053
   2   2.0000     -56.063402     -1525.5627
   3   2.0000     -56.060706     -1525.4894
   4   2.0000     -56.060653     -1525.4879
   5   2.0000     -10.089519      -274.5498
   6   2.0000     -10.053376      -273.5663
   7   2.0000     -10.031752      -272.9778
   8   2.0000     -10.022131      -272.7161
   9   2.0000      -8.615246      -234.4328
  10   2.0000      -6.422592      -174.7676
  11   2.0000      -6.409170      -174.4024
  12   2.0000      -6.408995      -174.3976
  13   2.0000      -2.520201       -68.5781
  14   2.0000      -2.516892       -68.4881
  15   2.0000      -2.516767       -68.4847
  16   2.0000      -2.506773       -68.2128
  17   2.0000      -2.506745       -68.2120
  18   2.0000      -0.804818       -21.9002
  19   2.0000      -0.738693       -20.1009
  20   2.0000      -0.662143       -18.0178
  21   2.0000      -0.634133       -17.2556
  22   2.0000      -0.543390       -14.7864
  23   2.0000      -0.453074       -12.3288
  24   2.0000      -0.421467       -11.4687
  25   2.0000      -0.414723       -11.2852
  26   2.0000      -0.382716       -10.4142
  27   2.0000      -0.365149        -9.9362
  28   2.0000      -0.345734        -9.4079
  29   2.0000      -0.325569        -8.8592
  30   2.0000      -0.313941        -8.5428
  31   2.0000      -0.310245        -8.4422
  32   2.0000      -0.249773        -6.7967
  33   2.0000      -0.248075        -6.7505
  34   0.0000      -0.020468        -0.5570
  35   0.0000       0.082746         2.2516
  36   0.0000       0.117048         3.1850
  37   0.0000       0.123211         3.3527
  38   0.0000       0.130790         3.5590

MULLIKEN ATOMIC CHARGES
-----------------------
   0 C :   -0.473428
   1 C :   -0.063972
   2 C :   -0.471782
   3 C :   -0.208907
   4 Br:   -0.178991
   5 H :    0.165840
   6 H :    0.143909
   7 H :    0.146136
   8 H :    0.159655
   9 H :    0.147457
  10 H :    0.154065
  11 H :    0.147521
  12 H :    0.164694
  13 H :    0.167802
Sum of atomic charges:    0.0000000

LOEWDIN ATOMIC CHARGES
----------------------
   0 C :   -0.421530
   1 C :   -0.275743
   2 C :   -0.411824
   3 C :   -0.390611
   4 Br:    0.076411
   5 H :    0.162018
   6 H :    0.153451
   7 H :    0.155077
   8 H :    0.162449
   9 H :    0.155241
  10 H :    0.159041
  11 H :    0.154219
  12 H :    0.161339
  13 H :    0.160462

  Mayer bond orders larger than 0.100000
B(  0-C ,  1-C ) :   0.9307 B(  0-C ,  5-H ) :   0.9622 B(  0-C ,  6-H ) :   0.9820
B(  0-C ,  7-H ) :   0.9710 B(  1-C ,  2-C ) :   0.9069 B(  1-C ,  3-C ) :   0.9230
B(  1-C ,  8-H ) :   0.9451 B(  2-C ,  9-H ) :   0.9797 B(  2-C , 10-H ) :   0.9678
B(  2-C , 11-H ) :   0.9722 B(  3-C ,  4-Br) :   0.9697 B(  3-C , 12-H ) :   0.9629
B(  3-C , 13-H ) :   0.9543

Dispersion correction           -0.003536143
FINAL SINGLE POINT ENERGY     -2731.933986709995

DIPOLE MOMENT
-------------

Method             : SCF
Type of density    : Electron Density
Multiplicity       :   1
Irrep              :   0
Energy             : -2731.9374864411356612 Eh
Relativity type    :
Basis              : AO
                                X                 Y                 Z
Electronic contribution:     27.268491946      -0.482764638       1.141207453
Nuclear contribution   :    -28.143720013       0.261481734      -1.236990374
                        -----------------------------------------
Total Dipole Moment    :     -0.875228068      -0.221282903      -0.095782920
                        -----------------------------------------
Magnitude (a.u.)       :      0.907835151
Magnitude (Debye)      :      2.307533571

Rotational constants in cm-1:             0.252042             0.047128             0.041894
Rotational constants in MHz :          7556.031935          1412.869488          1255.958211

                             ****ORCA TERMINATED NORMALLY****
TOTAL RUN TIME: 0 days 0 hours 0 minutes 12 seconds 445 msec
