                         Program Version 6.0.1  -  RELEASE   -
|  1> ! r2scan-3c def2/J RI DEFGRID2 scfconv6 printgap
|  2> %output
|  3>     printlevel normal
|  4> end
|  5> * xyz 0 1
|  6> C -3.6485734608 -0.0327493074 -0.0522355932
|  7> C -2.1527080591 -0.0189716766 -0.0034095101
|  8> C -1.4352250299 -1.18688202 0.2280374072
|  9> C -0.0534757753 -1.1865457046 0.2377620867
| 10> C 0.6507485912 -0.0038325881 0.0268368549
| 11> C -0.0690919644 1.1744620473 -0.1754484004
| 12> C -1.447820838 1.1638509105 -0.2024042591
| 13> C 2.1325414895 0.0871858028 0.0386492997
| 14> O 2.6933590798 1.1023916663 0.3882694679
| 15> C 2.9150094612 -1.1055889836 -0.4589698533
| 16> H -4.0502369756 -0.8762587462 0.5039940037
| 17> H -4.0577067866 0.8890794982 0.3549825679
| 18> H -3.9832940151 -0.1188688288 -1.0867001087
| 19> H -1.9679005715 -2.1105736811 0.4050442937
| 20> H 0.4689054195 -2.107898303 0.4478585815
| 21> H 0.4792422197 2.0937543323 -0.3181561512
| 22> H -1.9889558977 2.0834523674 -0.3730695838
| 23> H 3.7582135559 -1.2887371379 0.2034175758
| 24> H 3.3193894958 -0.8458756472 -1.4370191768
| 25> H 2.3126623534 -2.0007876163 -0.5595859657
| 26> *
| 27>
| 28>                          ****END OF INPUT****

CARTESIAN COORDINATES (ANGSTROEM)
---------------------------------
  C     -3.648573   -0.032749   -0.052236
  C     -2.152708   -0.018972   -0.003410
  C     -1.435225   -1.186882    0.228037
  C     -0.053476   -1.186546    0.237762
  C      0.650749   -0.003833    0.026837
  C     -0.069092    1.174462   -0.175448
  C     -1.447821    1.163851   -0.202404
  C      2.132541    0.087186    0.038649
  O      2.693359    1.102392    0.388269
  C      2.915009   -1.105589   -0.458970
  H     -4.050237   -0.876259    0.503994
  H     -4.057707    0.889079    0.354983
  H     -3.983294   -0.118869   -1.086700
  H     -1.967901   -2.110574    0.405044
  H      0.468905   -2.107898    0.447859
  H      0.479242    2.093754   -0.318156
  H     -1.988956    2.083452   -0.373070
  H      3.758214   -1.288737    0.203418
  H      3.319389   -0.845876   -1.437019
  H      2.312662   -2.000788   -0.559586

 Total Charge           Charge          ....    0
 Multiplicity           Mult            ....    1
 Number of Electrons    NEL             ....   72
 Basis Dimension        Dim             ....  245

ORBITAL ENERGIES
----------------

  NO   OCC          E(Eh)            E(eV)
   0   2.0000     -18.931870      -515.1624
   1   2.0000     -10.118209      -275.3305
   2   2.0000     -10.057818      -273.6871
   3   2.0000     -10.050199      -273.4798
   4   2.0000     -10.046792      -273.3871
   5   2.0000     -10.043593      -273.3000
   6   2.0000     -10.042968      -273.2831
   7   2.0000     -10.041089      -273.2319
   8   2.0000     -10.037732      -273.1406
   9   2.0000     -10.032164      -272.9890
  10   2.0000      -1.003889       -27.3172
  11   2.0000      -0.841571       -22.9003
  12   2.0000      -0.763665       -20.7804
  13   2.0000      -0.728056       -19.8114
  14   2.0000      -0.711944       -19.3730
  15   2.0000      -0.668199       -18.1826
  16   2.0000      -0.588587       -16.0163
  17   2.0000      -0.580118       -15.7858
  18   2.0000      -0.526929       -14.3385
  19   2.0000      -0.467012       -12.7080
  20   2.0000      -0.451257       -12.2793
  21   2.0000      -0.428459       -11.6590
  22   2.0000      -0.414653       -11.2833
  23   2.0000      -0.413520       -11.2525
  24   2.0000      -0.403467       -10.9789
  25   2.0000      -0.398632       -10.8473
  26   2.0000      -0.391148       -10.6437
  27   2.0000      -0.364087        -9.9073
  28   2.0000      -0.361031        -9.8241
  29   2.0000      -0.347016        -9.4428
  30   2.0000      -0.330469        -8.9925
  31   2.0000      -0.321204        -8.7404
  32   2.0000      -0.314760        -8.5651
  33   2.0000      -0.248273        -6.7559
  34   2.0000      -0.237742        -6.4693
  35   2.0000      -0.214298        -5.8314
  36   0.0000      -0.078562        -2.1378
  37   0.0000      -0.042351        -1.1524
  38   0.0000       0.002496         0.0679
  39   0.0000       0.068423         1.8619
  40   0.0000       0.087900         2.3919

MULLIKEN ATOMIC CHARGES
-----------------------
   0 C :   -0.532597
   1 C :    0.226456
   2 C :   -0.222737
   3 C :   -0.213661
   4 C :    0.162428
   5 C :   -0.180152
   6 C :   -0.206326
   7 C :    0.238752
   8 O :   -0.344333
   9 C :   -0.521196
  10 H :    0.152973
  11 H :    0.155494
  12 H :    0.174170
  13 H :    0.146736
  14 H :    0.139556
  15 H :    0.173847
  16 H :    0.147882
  17 H :    0.177330
  18 H :    0.178354
  19 H :    0.147024
Sum of atomic charges:    0.0000000

LOEWDIN ATOMIC CHARGES
----------------------
   0 C :   -0.387551
   1 C :   -0.081600
   2 C :   -0.162163
   3 C :   -0.134659
   4 C :   -0.082177
   5 C :   -0.100009
   6 C :   -0.157341
   7 C :    0.237983
   8 O :   -0.464178
   9 C :   -0.382765
  10 H :    0.161729
  11 H :    0.164126
  12 H :    0.169565
  13 H :    0.169793
  14 H :    0.170503
  15 H :    0.187262
  16 H :    0.171033
  17 H :    0.178166
  18 H :    0.183757
  19 H :    0.158527

  Mayer bond orders larger than 0.100000
B(  0-C ,  1-C ) :   0.7981 B(  0-C , 10-H ) :   0.9895 B(  0-C , 11-H ) :   0.9834
B(  0-C , 12-H ) :   0.9668 B(  1-C ,  2-C ) :   1.3995 B(  1-C ,  6-C ) :   1.3656
B(  2-C ,  3-C ) :   1.4660 B(  2-C , 13-H ) :   0.9413 B(  3-C ,  4-C ) :   1.3836
B(  3-C , 14-H ) :   0.9352 B(  4-C ,  5-C ) :   1.4015 B(  4-C ,  7-C ) :   0.8920
B(  4-C ,  8-O ) :  -0.1410 B(  5-C ,  6-C ) :   1.4333 B(  5-C , 15-H ) :   0.9558
B(  6-C , 16-H ) :   0.9476 B(  7-C ,  8-O ) :   1.9463 B(  7-C ,  9-C ) :   0.9200
B(  9-C , 17-H ) :   0.9692 B(  9-C , 18-H ) :   0.9451 B(  9-C , 19-H ) :   0.9683

Dispersion correction           -0.006770307
FINAL SINGLE POINT ENERGY      -424.098844568250

DIPOLE MOMENT
-------------

Method             : SCF
Type of density    : Electron Density
Multiplicity       :   1
Irrep              :   0
Energy             :  -424.0989160031236338 Eh
Relativity type    :
Basis              : AO
                                X                 Y                 Z
Electronic contribution:      4.299964879       3.149543343       1.364233072
Nuclear contribution   :     -5.316739927      -4.001576579      -1.738523328
                        -----------------------------------------
Total Dipole Moment    :     -1.016775048      -0.852033236      -0.374290256
                        -----------------------------------------
Magnitude (a.u.)       :      1.378363279
Magnitude (Debye)      :      3.503521025

Rotational constants in cm-1:             0.121746             0.026201             0.022232
Rotational constants in MHz :          3649.862725           785.497029           666.484085

                             ****ORCA TERMINATED NORMALLY****
TOTAL RUN TIME: 0 days 0 hours 0 minutes 39 seconds 398 msec
