                         Program Version 6.0.1  -  RELEASE   -
|  1> ! pbe def2-sv(p) def2/J RI DEFGRID1 loosescf d4 GCP(DFT/SV(P)) printgap
|  2> %output
|  3>     printlevel normal
|  4> end
|  5> * xyz 0 1
|  6> C -2.8953430555 0.4604759177 -0.5649593409
|  7> C -1.6477199614 -0.1218951785 0.0497254067
|  8> O -1.6766177195 -0.8482409142 1.0109030756
|  9> C -0.350245474 0.2929358804 -0.6247869655
| 10> C 0.5253641223 -0.9409706086 -0.920097246
| 11> C 1.4685411396 -1.2324272811 0.24022727
| 12> C 2.4878065504 -0.0996166656 0.405484979
| 13> C 1.8818363304 1.2558993449 0.0215293901
| 14> C 0.3861200891 1.2706497574 0.3121062264
| 15> H -2.8087253161 1.543960487 -0.6130485724
| 16> H -3.0034590488 0.0849742472 -1.5809612506
| 17> H -3.7709615875 0.1856335244 0.0172199519
| 18> H -0.5804479425 0.8006937919 -1.5657096349
| 19> H -0.1172097568 -1.805101789 -1.1010837618
| 20> H 1.1082479129 -0.7646327731 -1.826413166
| 21> H 0.8729670559 -1.3460403946 1.1460170423
| 22> H 1.9887305215 -2.176037455 0.0676417018
| 23> H 2.8272854272 -0.0734043826 1.4422980776
| 24> H 3.3624545732 -0.2910400748 -0.2194375514
| 25> H 2.3756421338 2.0554477397 0.5762457439
| 26> H 2.0368557113 1.4514052091 -1.0416119976
| 27> H 0.2204686679 0.9759601777 1.3499214908
| 28> H -0.0191995824 2.2761260538 0.1812358146
| 29> *
| 30>
| 31>                          ****END OF INPUT****

CARTESIAN COORDINATES (ANGSTROEM)
---------------------------------
  C     -2.895343    0.460476   -0.564959
  C     -1.647720   -0.121895    0.049725
  O     -1.676618   -0.848241    1.010903
  C     -0.350245    0.292936   -0.624787
  C      0.525364   -0.940971   -0.920097
  C      1.468541   -1.232427    0.240227
  C      2.487807   -0.099617    0.405485
  C      1.881836    1.255899    0.021529
  C      0.386120    1.270650    0.312106
  H     -2.808725    1.543960   -0.613049
  H     -3.003459    0.084974   -1.580961
  H     -3.770962    0.185634    0.017220
  H     -0.580448    0.800694   -1.565710
  H     -0.117210   -1.805102   -1.101084
  H      1.108248   -0.764633   -1.826413
  H      0.872967   -1.346040    1.146017
  H      1.988731   -2.176037    0.067642
  H      2.827285   -0.073404    1.442298
  H      3.362455   -0.291040   -0.219438
  H      2.375642    2.055448    0.576246
  H      2.036856    1.451405   -1.041612
  H      0.220469    0.975960    1.349921
  H     -0.019200    2.276126    0.181236

 Total Charge           Charge          ....    0
 Multiplicity           Mult            ....    1
 Number of Electrons    NEL             ....   70
 Basis Dimension        Dim             ....  154

ORBITAL ENERGIES
----------------

  NO   OCC          E(Eh)            E(eV)
   0   2.0000     -18.737752      -509.8802
   1   2.0000      -9.970968      -271.3238
   2   2.0000      -9.898562      -269.3536
   3   2.0000      -9.890713      -269.1400
   4   2.0000      -9.886536      -269.0263
   5   2.0000      -9.886268      -269.0190
   6   2.0000      -9.884688      -268.9760
   7   2.0000      -9.879839      -268.8441
   8   2.0000      -9.875349      -268.7219
   9   2.0000      -0.940688       -25.5974
  10   2.0000      -0.759642       -20.6709
  11   2.0000      -0.690863       -18.7993
  12   2.0000      -0.665216       -18.1015
  13   2.0000      -0.653770       -17.7900
  14   2.0000      -0.558421       -15.1954
  15   2.0000      -0.554398       -15.0859
  16   2.0000      -0.481633       -13.1059
  17   2.0000      -0.457679       -12.4541
  18   2.0000      -0.444779       -12.1031
  19   2.0000      -0.429212       -11.6794
  20   2.0000      -0.411614       -11.2006
  21   2.0000      -0.395004       -10.7486
  22   2.0000      -0.383517       -10.4360
  23   2.0000      -0.361179        -9.8282
  24   2.0000      -0.354065        -9.6346
  25   2.0000      -0.338983        -9.2242
  26   2.0000      -0.332456        -9.0466
  27   2.0000      -0.325805        -8.8656
  28   2.0000      -0.322473        -8.7749
  29   2.0000      -0.319055        -8.6819
  30   2.0000      -0.302140        -8.2217
  31   2.0000      -0.272656        -7.4193
  32   2.0000      -0.263556        -7.1717
  33   2.0000      -0.261099        -7.1049
  34   2.0000      -0.192664        -5.2427
  35   0.0000      -0.046767        -1.2726
  36   0.0000       0.023231         0.6321
  37   0.0000       0.048745         1.3264
  38   0.0000       0.054662         1.4874
  39   0.0000       0.074368         2.0237

MULLIKEN ATOMIC CHARGES
-----------------------
   0 C :   -0.258328
   1 C :    0.016668
   2 O :   -0.157454
   3 C :   -0.170571
   4 C :   -0.119631
   5 C :   -0.150083
   6 C :   -0.165494
   7 C :   -0.138253
   8 C :   -0.132470
   9 H :    0.122485
  10 H :    0.126475
  11 H :    0.114426
  12 H :    0.060965
  13 H :    0.090427
  14 H :    0.076913
  15 H :    0.095345
  16 H :    0.084131
  17 H :    0.084018
  18 H :    0.079790
  19 H :    0.087458
  20 H :    0.075045
  21 H :    0.093565
  22 H :    0.084576
Sum of atomic charges:    0.0000000

LOEWDIN ATOMIC CHARGES
----------------------
   0 C :   -0.363225
   1 C :    0.051671
   2 O :   -0.122446
   3 C :   -0.169457
   4 C :   -0.209829
   5 C :   -0.233191
   6 C :   -0.229377
   7 C :   -0.227398
   8 C :   -0.210498
   9 H :    0.139737
  10 H :    0.142637
  11 H :    0.130907
  12 H :    0.116986
  13 H :    0.120670
  14 H :    0.115908
  15 H :    0.121918
  16 H :    0.118330
  17 H :    0.117594
  18 H :    0.114852
  19 H :    0.119439
  20 H :    0.114172
  21 H :    0.123048
  22 H :    0.117551

  Mayer bond orders larger than 0.100000
B(  0-C ,  1-C ) :   1.0815 B(  0-C ,  9-H ) :   0.9253 B(  0-C , 10-H ) :   0.9240
B(  0-C , 11-H ) :   0.9352 B(  1-C ,  2-O ) :   2.1910 B(  1-C ,  3-C ) :   0.9095
B(  3-C ,  4-C ) :   1.0693 B(  3-C ,  8-C ) :   1.0829 B(  3-C , 12-H ) :   0.8892
B(  4-C ,  5-C ) :   1.1825 B(  4-C , 13-H ) :   0.9182 B(  4-C , 14-H ) :   0.9066
B(  5-C ,  6-C ) :   1.1457 B(  5-C , 15-H ) :   0.8971 B(  5-C , 16-H ) :   0.9193
B(  6-C ,  7-C ) :   1.1411 B(  6-C , 17-H ) :   0.9219 B(  6-C , 18-H ) :   0.9223
B(  7-C ,  8-C ) :   1.1843 B(  7-C , 19-H ) :   0.9205 B(  7-C , 20-H ) :   0.9067
B(  8-C , 21-H ) :   0.8983 B(  8-C , 22-H ) :   0.9170

Dispersion correction           -0.022187817
FINAL SINGLE POINT ENERGY      -387.600108909774

DIPOLE MOMENT
-------------

Method             : SCF
Type of density    : Electron Density
Multiplicity       :   1
Irrep              :   0
Energy             :  -387.6777877956355383 Eh
Relativity type    :
Basis              : AO
                                X                 Y                 Z
Electronic contribution:     -4.082321446      -2.147139408       2.237657987
Nuclear contribution   :      4.189984435       2.724935940      -2.956822720
                        -----------------------------------------
Total Dipole Moment    :      0.107662988       0.577796533      -0.719164733
                        -----------------------------------------
Magnitude (a.u.)       :      0.928783110
Magnitude (Debye)      :      2.360779051

Rotational constants in cm-1:             0.103066             0.037500             0.033363
Rotational constants in MHz :          3089.827449          1124.213709          1000.210918

                             ****ORCA TERMINATED NORMALLY****
TOTAL RUN TIME: 0 days 0 hours 0 minutes 10 seconds 940 msec
