                         Program Version 6.0.1  -  RELEASE   -
|  1> ! pbe def2-sv(p) def2/J RI DEFGRID1 loosescf d4 GCP(DFT/SV(P)) printgap
|  2> %output
|  3>     printlevel normal
|  4> end
|  5> * xyz 0 1
|  6> C -2.893334639 -0.5783424681 0.4388703801
|  7> C -1.6765689431 -0.5108863099 -0.4896765005
|  8> H -2.0384215655 -0.6021052148 -1.5198924787
|  9> C -0.6685460793 -1.6346771361 -0.2148787763
| 10> C 0.1343862404 -1.4095870493 1.0629747512
| 11> C 0.8624491638 -0.0625289272 1.0287866522
| 12> H 1.3720324368 0.0835155679 1.9922182443
| 13> C -0.2101853921 1.0351809692 0.9030989479
| 14> C -1.0019070495 0.8409419817 -0.3650457451
| 15> O -1.0904302611 1.6900989347 -1.2175295437
| 16> C 1.932146807 0.0430889373 -0.0429461802
| 17> C 2.5508972922 -1.0044508512 -0.5659395311
| 18> C 2.327555465 1.4323564294 -0.449958818
| 19> H -2.6023973865 -0.5514802922 1.4853708218
| 20> H -3.5611155934 0.2582711998 0.2447470128
| 21> H -3.4394979959 -1.5020671498 0.2599626517
| 22> H -1.2036712471 -2.5851151431 -0.1533260539
| 23> H 0.0208328195 -1.6920225364 -1.0589715161
| 24> H -0.5314289164 -1.4257784408 1.9284103703
| 25> H 0.846562378 -2.2241555819 1.196269297
| 26> H -0.8906820472 0.9538602479 1.7530485856
| 27> H 0.2247133163 2.0335769637 0.913523433
| 28> H 3.3319848136 -0.8767730997 -1.2965369548
| 29> H 2.3270754474 -2.0233642891 -0.3058354428
| 30> H 2.5350292717 2.0468251122 0.4253075835
| 31> H 3.2184715513 1.4049280175 -1.0718691577
| 32> H 1.5300996921 1.9063911782 -1.0202645913
| 33> *
| 34>
| 35>                          ****END OF INPUT****

CARTESIAN COORDINATES (ANGSTROEM)
---------------------------------
  C     -2.893335   -0.578342    0.438870
  C     -1.676569   -0.510886   -0.489677
  H     -2.038422   -0.602105   -1.519892
  C     -0.668546   -1.634677   -0.214879
  C      0.134386   -1.409587    1.062975
  C      0.862449   -0.062529    1.028787
  H      1.372032    0.083516    1.992218
  C     -0.210185    1.035181    0.903099
  C     -1.001907    0.840942   -0.365046
  O     -1.090430    1.690099   -1.217530
  C      1.932147    0.043089   -0.042946
  C      2.550897   -1.004451   -0.565940
  C      2.327555    1.432356   -0.449959
  H     -2.602397   -0.551480    1.485371
  H     -3.561116    0.258271    0.244747
  H     -3.439498   -1.502067    0.259963
  H     -1.203671   -2.585115   -0.153326
  H      0.020833   -1.692023   -1.058972
  H     -0.531429   -1.425778    1.928410
  H      0.846562   -2.224156    1.196269
  H     -0.890682    0.953860    1.753049
  H      0.224713    2.033577    0.913523
  H      3.331985   -0.876773   -1.296537
  H      2.327075   -2.023364   -0.305835
  H      2.535029    2.046825    0.425308
  H      3.218472    1.404928   -1.071869
  H      1.530100    1.906391   -1.020265

 Total Charge           Charge          ....    0
 Multiplicity           Mult            ....    1
 Number of Electrons    NEL             ....   84
 Basis Dimension        Dim             ....  186

ORBITAL ENERGIES
----------------

  NO   OCC          E(Eh)            E(eV)
   0   2.0000     -18.736236      -509.8389
   1   2.0000      -9.969542      -271.2850
   2   2.0000      -9.913230      -269.7527
   3   2.0000      -9.904543      -269.5163
   4   2.0000      -9.900122      -269.3960
   5   2.0000      -9.894150      -269.2335
   6   2.0000      -9.893584      -269.2181
   7   2.0000      -9.891921      -269.1729
   8   2.0000      -9.888545      -269.0810
   9   2.0000      -9.877335      -268.7760
  10   2.0000      -9.871112      -268.6066
  11   2.0000      -0.938065       -25.5261
  12   2.0000      -0.775093       -21.0914
  13   2.0000      -0.726848       -19.7785
  14   2.0000      -0.682619       -18.5750
  15   2.0000      -0.665862       -18.1190
  16   2.0000      -0.613750       -16.7010
  17   2.0000      -0.603325       -16.4173
  18   2.0000      -0.559298       -15.2193
  19   2.0000      -0.534891       -14.5551
  20   2.0000      -0.483663       -13.1611
  21   2.0000      -0.447870       -12.1872
  22   2.0000      -0.442875       -12.0513
  23   2.0000      -0.419384       -11.4120
  24   2.0000      -0.411860       -11.2073
  25   2.0000      -0.402350       -10.9485
  26   2.0000      -0.396536       -10.7903
  27   2.0000      -0.374977       -10.2036
  28   2.0000      -0.365242        -9.9388
  29   2.0000      -0.362874        -9.8743
  30   2.0000      -0.354363        -9.6427
  31   2.0000      -0.348890        -9.4938
  32   2.0000      -0.345669        -9.4061
  33   2.0000      -0.330059        -8.9814
  34   2.0000      -0.319333        -8.6895
  35   2.0000      -0.313113        -8.5202
  36   2.0000      -0.307153        -8.3581
  37   2.0000      -0.287702        -7.8288
  38   2.0000      -0.280250        -7.6260
  39   2.0000      -0.275448        -7.4953
  40   2.0000      -0.219874        -5.9831
  41   2.0000      -0.189178        -5.1478
  42   0.0000      -0.051843        -1.4107
  43   0.0000      -0.016855        -0.4587
  44   0.0000       0.026533         0.7220
  45   0.0000       0.050900         1.3851
  46   0.0000       0.058466         1.5909

MULLIKEN ATOMIC CHARGES
-----------------------
   0 C :   -0.275401
   1 C :   -0.121987
   2 H :    0.069266
   3 C :   -0.116364
   4 C :   -0.155843
   5 C :   -0.128277
   6 H :    0.091833
   7 C :   -0.085985
   8 C :    0.003834
   9 O :   -0.150351
  10 C :   -0.071879
  11 C :   -0.230929
  12 C :   -0.233535
  13 H :    0.109002
  14 H :    0.117219
  15 H :    0.110290
  16 H :    0.082567
  17 H :    0.101016
  18 H :    0.082593
  19 H :    0.098598
  20 H :    0.099109
  21 H :    0.090463
  22 H :    0.084577
  23 H :    0.089796
  24 H :    0.107922
  25 H :    0.097753
  26 H :    0.134710
Sum of atomic charges:   -0.0000000

LOEWDIN ATOMIC CHARGES
----------------------
   0 C :   -0.323910
   1 C :   -0.167693
   2 H :    0.126367
   3 C :   -0.214936
   4 C :   -0.216989
   5 C :   -0.124331
   6 H :    0.133043
   7 C :   -0.237245
   8 C :    0.054562
   9 O :   -0.119585
  10 C :   -0.053964
  11 C :   -0.265307
  12 C :   -0.328320
  13 H :    0.115698
  14 H :    0.126443
  15 H :    0.125371
  16 H :    0.118182
  17 H :    0.124708
  18 H :    0.116872
  19 H :    0.121861
  20 H :    0.136096
  21 H :    0.128315
  22 H :    0.120024
  23 H :    0.116397
  24 H :    0.125986
  25 H :    0.125003
  26 H :    0.137354

  Mayer bond orders larger than 0.100000
B(  0-C ,  1-C ) :   1.0816 B(  0-C , 13-H ) :   0.9418 B(  0-C , 14-H ) :   0.9474
B(  0-C , 15-H ) :   0.9439 B(  1-C ,  2-H ) :   0.8723 B(  1-C ,  3-C ) :   1.0697
B(  1-C ,  8-C ) :   0.9703 B(  3-C ,  4-C ) :   1.1247 B(  3-C , 16-H ) :   0.9115
B(  3-C , 17-H ) :   0.9033 B(  4-C ,  5-C ) :   1.0997 B(  4-C , 18-H ) :   0.9103
B(  4-C , 19-H ) :   0.8981 B(  5-C ,  6-H ) :   0.8612 B(  5-C ,  7-C ) :   1.0726
B(  5-C , 10-C ) :   0.9877 B(  7-C ,  8-C ) :   1.0268 B(  7-C , 20-H ) :   0.8826
B(  7-C , 21-H ) :   0.8733 B(  8-C ,  9-O ) :   2.1817 B( 10-C , 11-C ) :   2.0464
B( 10-C , 12-C ) :   1.1319 B( 11-C , 22-H ) :   0.8996 B( 11-C , 23-H ) :   0.8986
B( 12-C , 24-H ) :   0.9319 B( 12-C , 25-H ) :   0.9334 B( 12-C , 26-H ) :   0.9066

Dispersion correction           -0.030356356
FINAL SINGLE POINT ENERGY      -464.825808424745

DIPOLE MOMENT
-------------

Method             : SCF
Type of density    : Electron Density
Multiplicity       :   1
Irrep              :   0
Energy             :  -464.9109686812530526 Eh
Relativity type    :
Basis              : AO
                                X                 Y                 Z
Electronic contribution:     -1.020669023       3.836106445      -2.738807333
Nuclear contribution   :      1.052952629      -4.473909437       3.520861538
                        -----------------------------------------
Total Dipole Moment    :      0.032283606      -0.637802992       0.782054205
                        -----------------------------------------
Magnitude (a.u.)       :      1.009675031
Magnitude (Debye)      :      2.566389974

Rotational constants in cm-1:             0.056080             0.031771             0.025318
Rotational constants in MHz :          1681.224183           952.479419           759.021519

                             ****ORCA TERMINATED NORMALLY****
TOTAL RUN TIME: 0 days 0 hours 0 minutes 26 seconds 135 msec
