                         Program Version 6.0.1  -  RELEASE   -
|  1> ! pbe def2-sv(p) def2/J RI DEFGRID1 loosescf d4 GCP(DFT/SV(P)) printgap
|  2> %output
|  3>     printlevel normal
|  4> end
|  5> * xyz 0 1
|  6> C -3.3113950978 0.1859306724 0.9125055924
|  7> C -1.8264977926 0.3401857939 0.5980729966
|  8> H -1.3595995053 0.9028901542 1.4138020129
|  9> C -1.5966851322 1.1085004249 -0.701746885
| 10> C -0.1154272557 1.4525822774 -0.8386015043
| 11> C 0.7989464281 0.2246186094 -0.6398965974
| 12> H 1.4528053989 0.1023199827 -1.5097048715
| 13> C -0.0219478622 -1.0460763381 -0.5359276772
| 14> O 0.2189702425 -2.0189726625 -1.2079739598
| 15> C -1.1555949311 -1.0324870565 0.4640846923
| 16> C 1.7114336342 0.3597247233 0.6010000736
| 17> C 2.4412122635 -0.9510016789 0.8920006914
| 18> C 2.7429410288 1.4661330141 0.3852006095
| 19> H -3.7739070245 1.1599073997 1.056569801
| 20> H -3.8227492064 -0.3180782404 0.0951437236
| 21> H -3.4514667426 -0.3977811004 1.8196752913
| 22> H -1.9223263277 0.4947893543 -1.545040162
| 23> H -2.183589863 2.0290321293 -0.7085369319
| 24> H 0.0650580476 1.8885690384 -1.8220748616
| 25> H 0.1254203879 2.2131109279 -0.093539865
| 26> H -1.881514052 -1.7833852883 0.1431875593
| 27> H -0.7567478171 -1.3642080903 1.4259778644
| 28> H 1.0900394014 0.6179119927 1.4653711582
| 29> H 1.7479165654 -1.7485320588 1.1470623388
| 30> H 3.1310877287 -0.8197649235 1.7230921659
| 31> H 3.008933663 -1.2674296743 0.019931273
| 32> H 3.3522498127 1.5878414491 1.2780978174
| 33> H 2.2718207512 2.4201526673 0.1641891283
| 34> H 3.3991248574 1.2097667939 -0.443626045
| 35> *
| 36>
| 37>                          ****END OF INPUT****

CARTESIAN COORDINATES (ANGSTROEM)
---------------------------------
  C     -3.311395    0.185931    0.912506
  C     -1.826498    0.340186    0.598073
  H     -1.359600    0.902890    1.413802
  C     -1.596685    1.108500   -0.701747
  C     -0.115427    1.452582   -0.838602
  C      0.798946    0.224619   -0.639897
  H      1.452805    0.102320   -1.509705
  C     -0.021948   -1.046076   -0.535928
  O      0.218970   -2.018973   -1.207974
  C     -1.155595   -1.032487    0.464085
  C      1.711434    0.359725    0.601000
  C      2.441212   -0.951002    0.892001
  C      2.742941    1.466133    0.385201
  H     -3.773907    1.159907    1.056570
  H     -3.822749   -0.318078    0.095144
  H     -3.451467   -0.397781    1.819675
  H     -1.922326    0.494789   -1.545040
  H     -2.183590    2.029032   -0.708537
  H      0.065058    1.888569   -1.822075
  H      0.125420    2.213111   -0.093540
  H     -1.881514   -1.783385    0.143188
  H     -0.756748   -1.364208    1.425978
  H      1.090039    0.617912    1.465371
  H      1.747917   -1.748532    1.147062
  H      3.131088   -0.819765    1.723092
  H      3.008934   -1.267430    0.019931
  H      3.352250    1.587841    1.278098
  H      2.271821    2.420153    0.164189
  H      3.399125    1.209767   -0.443626

 Total Charge           Charge          ....    0
 Multiplicity           Mult            ....    1
 Number of Electrons    NEL             ....   86
 Basis Dimension        Dim             ....  190

ORBITAL ENERGIES
----------------

  NO   OCC          E(Eh)            E(eV)
   0   2.0000     -18.728649      -509.6324
   1   2.0000      -9.965548      -271.1763
   2   2.0000      -9.907557      -269.5983
   3   2.0000      -9.904476      -269.5145
   4   2.0000      -9.895342      -269.2660
   5   2.0000      -9.891490      -269.1611
   6   2.0000      -9.889171      -269.0980
   7   2.0000      -9.888667      -269.0843
   8   2.0000      -9.878940      -268.8196
   9   2.0000      -9.878771      -268.8150
  10   2.0000      -9.874206      -268.6908
  11   2.0000      -0.932659       -25.3789
  12   2.0000      -0.768895       -20.9227
  13   2.0000      -0.731813       -19.9136
  14   2.0000      -0.680079       -18.5059
  15   2.0000      -0.650601       -17.7038
  16   2.0000      -0.614998       -16.7349
  17   2.0000      -0.612999       -16.6806
  18   2.0000      -0.549733       -14.9590
  19   2.0000      -0.523557       -14.2467
  20   2.0000      -0.509621       -13.8675
  21   2.0000      -0.469872       -12.7859
  22   2.0000      -0.443637       -12.0720
  23   2.0000      -0.419732       -11.4215
  24   2.0000      -0.408319       -11.1109
  25   2.0000      -0.397048       -10.8042
  26   2.0000      -0.389217       -10.5911
  27   2.0000      -0.376718       -10.2510
  28   2.0000      -0.370243       -10.0748
  29   2.0000      -0.355036        -9.6610
  30   2.0000      -0.346533        -9.4296
  31   2.0000      -0.342313        -9.3148
  32   2.0000      -0.340646        -9.2695
  33   2.0000      -0.335636        -9.1331
  34   2.0000      -0.320253        -8.7145
  35   2.0000      -0.316577        -8.6145
  36   2.0000      -0.302667        -8.2360
  37   2.0000      -0.299616        -8.1530
  38   2.0000      -0.292083        -7.9480
  39   2.0000      -0.285334        -7.7643
  40   2.0000      -0.274696        -7.4749
  41   2.0000      -0.267971        -7.2918
  42   2.0000      -0.183766        -5.0005
  43   0.0000      -0.045222        -1.2306
  44   0.0000       0.024012         0.6534
  45   0.0000       0.044799         1.2190
  46   0.0000       0.047887         1.3031
  47   0.0000       0.056433         1.5356

MULLIKEN ATOMIC CHARGES
-----------------------
   0 C :   -0.214967
   1 C :   -0.205033
   2 H :    0.069713
   3 C :   -0.135521
   4 C :   -0.081672
   5 C :   -0.072708
   6 H :    0.057453
   7 C :   -0.037008
   8 O :   -0.148028
   9 C :   -0.081013
  10 C :   -0.241874
  11 C :   -0.220075
  12 C :   -0.229929
  13 H :    0.098969
  14 H :    0.097774
  15 H :    0.102452
  16 H :    0.089276
  17 H :    0.084660
  18 H :    0.088742
  19 H :    0.079850
  20 H :    0.087799
  21 H :    0.106747
  22 H :    0.080005
  23 H :    0.117765
  24 H :    0.099318
  25 H :    0.102272
  26 H :    0.103575
  27 H :    0.104671
  28 H :    0.096790
Sum of atomic charges:   -0.0000000

LOEWDIN ATOMIC CHARGES
----------------------
   0 C :   -0.327295
   1 C :   -0.152289
   2 H :    0.113804
   3 C :   -0.218816
   4 C :   -0.212308
   5 C :   -0.155690
   6 H :    0.126282
   7 C :    0.044475
   8 O :   -0.122639
   9 C :   -0.239753
  10 C :   -0.143567
  11 C :   -0.330190
  12 C :   -0.327169
  13 H :    0.118583
  14 H :    0.119222
  15 H :    0.119360
  16 H :    0.120380
  17 H :    0.118037
  18 H :    0.123210
  19 H :    0.116805
  20 H :    0.134050
  21 H :    0.141726
  22 H :    0.113073
  23 H :    0.119974
  24 H :    0.118861
  25 H :    0.124365
  26 H :    0.120310
  27 H :    0.117326
  28 H :    0.119873

  Mayer bond orders larger than 0.100000
B(  0-C ,  1-C ) :   1.1225 B(  0-C , 13-H ) :   0.9482 B(  0-C , 14-H ) :   0.9430
B(  0-C , 15-H ) :   0.9499 B(  1-C ,  2-H ) :   0.8788 B(  1-C ,  3-C ) :   1.1398
B(  1-C ,  9-C ) :   1.0551 B(  3-C ,  4-C ) :   1.1827 B(  3-C , 16-H ) :   0.8851
B(  3-C , 17-H ) :   0.9195 B(  4-C ,  5-C ) :   1.0325 B(  4-C , 18-H ) :   0.9092
B(  4-C , 19-H ) :   0.8976 B(  5-C ,  6-H ) :   0.8554 B(  5-C ,  7-C ) :   1.0075
B(  5-C , 10-C ) :   1.0145 B(  7-C ,  8-O ) :   2.1937 B(  7-C ,  9-C ) :   1.0167
B(  9-C , 20-H ) :   0.8868 B(  9-C , 21-H ) :   0.8718 B( 10-C , 11-C ) :   1.1226
B( 10-C , 12-C ) :   1.1155 B( 10-C , 22-H ) :   0.8893 B( 11-C , 23-H ) :   0.9263
B( 11-C , 24-H ) :   0.9475 B( 11-C , 25-H ) :   0.9435 B( 12-C , 26-H ) :   0.9495
B( 12-C , 27-H ) :   0.9423 B( 12-C , 28-H ) :   0.9460

Dispersion correction           -0.030439233
FINAL SINGLE POINT ENERGY      -466.028173699419

DIPOLE MOMENT
-------------

Method             : SCF
Type of density    : Electron Density
Multiplicity       :   1
Irrep              :   0
Energy             :  -466.1241669664517531 Eh
Relativity type    :
Basis              : AO
                                X                 Y                 Z
Electronic contribution:     -0.632766371      -5.588583293      -4.640018161
Nuclear contribution   :      0.465347110       6.468830013       5.263557032
                        -----------------------------------------
Total Dipole Moment    :     -0.167419261       0.880246720       0.623538870
                        -----------------------------------------
Magnitude (a.u.)       :      1.091633739
Magnitude (Debye)      :      2.774712454

Rotational constants in cm-1:             0.054004             0.026488             0.022702
Rotational constants in MHz :          1618.986666           794.092955           680.577266

                             ****ORCA TERMINATED NORMALLY****
TOTAL RUN TIME: 0 days 0 hours 0 minutes 18 seconds 285 msec
