                         Program Version 6.0.1  -  RELEASE   -
|  1> ! pbe def2-sv(p) def2/J RI DEFGRID1 loosescf d4 GCP(DFT/SV(P)) printgap
|  2> %output
|  3>     printlevel normal
|  4> end
|  5> * xyz 0 1
|  6> C 3.72323351 -0.1772563058 -0.0636396955
|  7> C 2.2500085309 -0.3283461329 0.3045665912
|  8> H 2.1774007946 -0.5480596315 1.3763946743
|  9> C 1.6011207075 -1.4732721535 -0.4701904497
| 10> C 0.123239202 -1.5998731195 -0.1162749885
| 11> C -0.6443720041 -0.306430697 -0.4080747981
| 12> H -0.5187653547 -0.0638413893 -1.4687416185
| 13> C 0.0007354281 0.833538135 0.3928846357
| 14> H -0.0679165119 0.6012351368 1.4684987555
| 15> C 1.4827036131 0.9612028087 0.0224780919
| 16> O -0.6813709855 2.0457047775 0.1299463294
| 17> C -2.1572780214 -0.4953792678 -0.1593070938
| 18> C -2.5526907167 -0.3554429171 1.3087883135
| 19> C -2.981718502 0.4675241996 -1.0119908248
| 20> H 3.8285098805 0.0470022656 -1.1230381736
| 21> H 4.1813027881 0.6291958429 0.5048339778
| 22> H 4.2649585074 -1.0964752043 0.1473347045
| 23> H 1.703372523 -1.2844936659 -1.5414000992
| 24> H 2.1153877917 -2.4103375787 -0.2456056859
| 25> H -0.3176189382 -2.416455818 -0.691694183
| 26> H 0.0260104389 -1.849349899 0.9427841807
| 27> H 1.5583043453 1.2102505279 -1.0388629428
| 28> H 1.9243169245 1.7856995602 0.5919226638
| 29> H -0.188628951 2.7661683293 0.537388854
| 30> H -2.4017780435 -1.5171852512 -0.4767997498
| 31> H -3.5945747403 -0.6410379665 1.4380217224
| 32> H -2.4418174118 0.6757980777 1.6321877098
| 33> H -1.9457226088 -0.9959441469 1.944698635
| 34> H -4.0436559797 0.3214101451 -0.8255837301
| 35> H -2.7934592039 0.2992777486 -2.0702190107
| 36> H -2.7190728419 1.4927858142 -0.7724573471
| 37> *
| 38>
| 39>                          ****END OF INPUT****

CARTESIAN COORDINATES (ANGSTROEM)
---------------------------------
  C      3.723234   -0.177256   -0.063640
  C      2.250009   -0.328346    0.304567
  H      2.177401   -0.548060    1.376395
  C      1.601121   -1.473272   -0.470190
  C      0.123239   -1.599873   -0.116275
  C     -0.644372   -0.306431   -0.408075
  H     -0.518765   -0.063841   -1.468742
  C      0.000735    0.833538    0.392885
  H     -0.067917    0.601235    1.468499
  C      1.482704    0.961203    0.022478
  O     -0.681371    2.045705    0.129946
  C     -2.157278   -0.495379   -0.159307
  C     -2.552691   -0.355443    1.308788
  C     -2.981719    0.467524   -1.011991
  H      3.828510    0.047002   -1.123038
  H      4.181303    0.629196    0.504834
  H      4.264959   -1.096475    0.147335
  H      1.703373   -1.284494   -1.541400
  H      2.115388   -2.410338   -0.245606
  H     -0.317619   -2.416456   -0.691694
  H      0.026010   -1.849350    0.942784
  H      1.558304    1.210251   -1.038863
  H      1.924317    1.785700    0.591923
  H     -0.188629    2.766168    0.537389
  H     -2.401778   -1.517185   -0.476800
  H     -3.594575   -0.641038    1.438022
  H     -2.441817    0.675798    1.632188
  H     -1.945723   -0.995944    1.944699
  H     -4.043656    0.321410   -0.825584
  H     -2.793459    0.299278   -2.070219
  H     -2.719073    1.492786   -0.772457

 Total Charge           Charge          ....    0
 Multiplicity           Mult            ....    1
 Number of Electrons    NEL             ....   88
 Basis Dimension        Dim             ....  194

ORBITAL ENERGIES
----------------

  NO   OCC          E(Eh)            E(eV)
   0   2.0000     -18.741723      -509.9882
   1   2.0000      -9.933417      -270.3020
   2   2.0000      -9.895211      -269.2624
   3   2.0000      -9.885321      -268.9933
   4   2.0000      -9.882724      -268.9226
   5   2.0000      -9.882642      -268.9204
   6   2.0000      -9.880734      -268.8684
   7   2.0000      -9.880508      -268.8623
   8   2.0000      -9.873804      -268.6799
   9   2.0000      -9.862155      -268.3629
  10   2.0000      -9.852326      -268.0954
  11   2.0000      -0.921309       -25.0701
  12   2.0000      -0.759673       -20.6718
  13   2.0000      -0.717894       -19.5349
  14   2.0000      -0.667938       -18.1755
  15   2.0000      -0.655367       -17.8334
  16   2.0000      -0.602242       -16.3878
  17   2.0000      -0.597132       -16.2488
  18   2.0000      -0.552213       -15.0265
  19   2.0000      -0.526988       -14.3401
  20   2.0000      -0.502537       -13.6747
  21   2.0000      -0.481971       -13.1151
  22   2.0000      -0.455154       -12.3854
  23   2.0000      -0.418195       -11.3797
  24   2.0000      -0.416141       -11.3238
  25   2.0000      -0.403902       -10.9907
  26   2.0000      -0.392795       -10.6885
  27   2.0000      -0.369986       -10.0678
  28   2.0000      -0.361427        -9.8349
  29   2.0000      -0.352036        -9.5794
  30   2.0000      -0.345448        -9.4001
  31   2.0000      -0.336303        -9.1513
  32   2.0000      -0.330549        -8.9947
  33   2.0000      -0.320187        -8.7127
  34   2.0000      -0.313215        -8.5230
  35   2.0000      -0.310857        -8.4588
  36   2.0000      -0.297814        -8.1039
  37   2.0000      -0.289608        -7.8806
  38   2.0000      -0.285036        -7.7562
  39   2.0000      -0.269850        -7.3430
  40   2.0000      -0.268153        -7.2968
  41   2.0000      -0.258842        -7.0435
  42   2.0000      -0.242898        -6.6096
  43   2.0000      -0.212856        -5.7921
  44   0.0000       0.026819         0.7298
  45   0.0000       0.038647         1.0516
  46   0.0000       0.044741         1.2175
  47   0.0000       0.046490         1.2651
  48   0.0000       0.076841         2.0909

MULLIKEN ATOMIC CHARGES
-----------------------
   0 C :   -0.197057
   1 C :   -0.214410
   2 H :    0.063357
   3 C :   -0.095377
   4 C :   -0.104084
   5 C :   -0.162624
   6 H :    0.054311
   7 C :    0.067372
   8 H :    0.047600
   9 C :   -0.104001
  10 O :   -0.401953
  11 C :   -0.102375
  12 C :   -0.263819
  13 C :   -0.240763
  14 H :    0.091023
  15 H :    0.094610
  16 H :    0.096415
  17 H :    0.066324
  18 H :    0.077783
  19 H :    0.080417
  20 H :    0.072334
  21 H :    0.070874
  22 H :    0.062771
  23 H :    0.295050
  24 H :    0.057385
  25 H :    0.094666
  26 H :    0.109675
  27 H :    0.095701
  28 H :    0.084935
  29 H :    0.085801
  30 H :    0.118058
Sum of atomic charges:   -0.0000000

LOEWDIN ATOMIC CHARGES
----------------------
   0 C :   -0.326434
   1 C :   -0.153020
   2 H :    0.113546
   3 C :   -0.215644
   4 C :   -0.213315
   5 C :   -0.137296
   6 H :    0.117110
   7 C :   -0.047285
   8 H :    0.095055
   9 C :   -0.227131
  10 O :   -0.316838
  11 C :   -0.143723
  12 C :   -0.332983
  13 C :   -0.336909
  14 H :    0.117165
  15 H :    0.116351
  16 H :    0.117611
  17 H :    0.114469
  18 H :    0.115741
  19 H :    0.117639
  20 H :    0.114352
  21 H :    0.117421
  22 H :    0.107658
  23 H :    0.281139
  24 H :    0.110131
  25 H :    0.117520
  26 H :    0.119527
  27 H :    0.111161
  28 H :    0.110967
  29 H :    0.111530
  30 H :    0.124484

  Mayer bond orders larger than 0.100000
B(  0-C ,  1-C ) :   1.1109 B(  0-C , 14-H ) :   0.9461 B(  0-C , 15-H ) :   0.9488
B(  0-C , 16-H ) :   0.9481 B(  1-C ,  2-H ) :   0.8903 B(  1-C ,  3-C ) :   1.0987
B(  1-C ,  9-C ) :   1.0807 B(  3-C ,  4-C ) :   1.1438 B(  3-C , 17-H ) :   0.9027
B(  3-C , 18-H ) :   0.9118 B(  4-C ,  5-C ) :   1.0884 B(  4-C , 19-H ) :   0.9076
B(  4-C , 20-H ) :   0.8962 B(  5-C ,  6-H ) :   0.8788 B(  5-C ,  7-C ) :   1.0533
B(  5-C , 11-C ) :   1.0177 B(  7-C ,  8-H ) :   0.8757 B(  7-C ,  9-C ) :   1.0924
B(  7-C , 10-O ) :   1.0592 B(  9-C , 21-H ) :   0.8911 B(  9-C , 22-H ) :   0.9043
B( 10-O , 23-H ) :   0.8474 B( 11-C , 12-C ) :   1.1170 B( 11-C , 13-C ) :   1.1151
B( 11-C , 24-H ) :   0.8997 B( 12-C , 25-H ) :   0.9452 B( 12-C , 26-H ) :   0.9341
B( 12-C , 27-H ) :   0.9454 B( 13-C , 28-H ) :   0.9478 B( 13-C , 29-H ) :   0.9469
B( 13-C , 30-H ) :   0.9325

Dispersion correction           -0.031710409
FINAL SINGLE POINT ENERGY      -467.199362809238

DIPOLE MOMENT
-------------

Method             : SCF
Type of density    : Electron Density
Multiplicity       :   1
Irrep              :   0
Energy             :  -467.3121028445739285 Eh
Relativity type    :
Basis              : AO
                                X                 Y                 Z
Electronic contribution:     -0.113570628       2.822493362      -0.014870893
Nuclear contribution   :      0.690280080      -2.778846366       0.311206468
                        -----------------------------------------
Total Dipole Moment    :      0.576709452       0.043646995       0.296335575
                        -----------------------------------------
Magnitude (a.u.)       :      0.649856619
Magnitude (Debye)      :      1.651804254

Rotational constants in cm-1:             0.065975             0.022745             0.019598
Rotational constants in MHz :          1977.883022           681.887090           587.530364

                             ****ORCA TERMINATED NORMALLY****
TOTAL RUN TIME: 0 days 0 hours 0 minutes 11 seconds 908 msec
