                         Program Version 6.0.1  -  RELEASE   -
|  1> ! r2scan-3c def2/J RI DEFGRID2 scfconv6 printgap
|  2> %output
|  3>     printlevel normal
|  4> end
|  5> * xyz 0 1
|  6> C 2.2029897539 1.0176530843 -0.3998288762
|  7> C 1.1582101605 -0.077065496 -0.2406337696
|  8> C 1.5808641059 -1.1361692993 0.7717938395
|  9> O -0.054524563 0.5577715637 0.2008278392
| 10> C -1.2106209118 -0.0362382441 -0.09701667
| 11> O -1.3059450694 -1.0579505838 -0.7250680269
| 12> C -2.3731246841 0.7418988946 0.4653615269
| 13> H 3.1320462649 0.5893648923 -0.7643584223
| 14> H 1.8582920901 1.7682810686 -1.106171522
| 15> H 2.3834867165 1.4985189139 0.5581160255
| 16> H 0.9512307827 -0.5576595429 -1.2058268068
| 17> H 0.8112536926 -1.8999897317 0.8532041529
| 18> H 1.7323061386 -0.6798007093 1.7474793828
| 19> H 2.5062775336 -1.6051256475 0.4501617611
| 20> H -2.6439872609 0.3104483178 1.4272310454
| 21> H -3.2256970887 0.65600719 -0.2017995906
| 22> H -2.0960063282 1.7812570375 0.6091823652
| 23> *
| 24>
| 25>                          ****END OF INPUT****

CARTESIAN COORDINATES (ANGSTROEM)
---------------------------------
  C      2.202990    1.017653   -0.399829
  C      1.158210   -0.077065   -0.240634
  C      1.580864   -1.136169    0.771794
  O     -0.054525    0.557772    0.200828
  C     -1.210621   -0.036238   -0.097017
  O     -1.305945   -1.057951   -0.725068
  C     -2.373125    0.741899    0.465362
  H      3.132046    0.589365   -0.764358
  H      1.858292    1.768281   -1.106172
  H      2.383487    1.498519    0.558116
  H      0.951231   -0.557660   -1.205827
  H      0.811254   -1.899990    0.853204
  H      1.732306   -0.679801    1.747479
  H      2.506278   -1.605126    0.450162
  H     -2.643987    0.310448    1.427231
  H     -3.225697    0.656007   -0.201800
  H     -2.096006    1.781257    0.609182

 Total Charge           Charge          ....    0
 Multiplicity           Mult            ....    1
 Number of Electrons    NEL             ....   56
 Basis Dimension        Dim             ....  193

ORBITAL ENERGIES
----------------

  NO   OCC          E(Eh)            E(eV)
   0   2.0000     -18.994029      -516.8538
   1   2.0000     -18.928913      -515.0819
   2   2.0000     -10.154485      -276.3176
   3   2.0000     -10.095157      -274.7032
   4   2.0000     -10.037719      -273.1402
   5   2.0000     -10.028144      -272.8797
   6   2.0000     -10.024835      -272.7896
   7   2.0000      -1.071186       -29.1484
   8   2.0000      -0.980639       -26.6846
   9   2.0000      -0.770431       -20.9645
  10   2.0000      -0.709504       -19.3066
  11   2.0000      -0.665512       -18.1095
  12   2.0000      -0.597856       -16.2685
  13   2.0000      -0.521677       -14.1956
  14   2.0000      -0.460821       -12.5396
  15   2.0000      -0.448259       -12.1978
  16   2.0000      -0.438046       -11.9198
  17   2.0000      -0.413507       -11.2521
  18   2.0000      -0.392739       -10.6870
  19   2.0000      -0.387098       -10.5335
  20   2.0000      -0.368128       -10.0173
  21   2.0000      -0.366384        -9.9698
  22   2.0000      -0.352273        -9.5858
  23   2.0000      -0.333981        -9.0881
  24   2.0000      -0.325121        -8.8470
  25   2.0000      -0.301993        -8.2176
  26   2.0000      -0.270406        -7.3581
  27   2.0000      -0.237246        -6.4558
  28   0.0000      -0.011581        -0.3151
  29   0.0000       0.076376         2.0783
  30   0.0000       0.100041         2.7223
  31   0.0000       0.116878         3.1804
  32   0.0000       0.131444         3.5768

MULLIKEN ATOMIC CHARGES
-----------------------
   0 C :   -0.450310
   1 C :    0.001555
   2 C :   -0.487752
   3 O :   -0.156955
   4 C :    0.429775
   5 O :   -0.423300
   6 C :   -0.527451
   7 H :    0.147508
   8 H :    0.153362
   9 H :    0.152633
  10 H :    0.173334
  11 H :    0.170669
  12 H :    0.154071
  13 H :    0.147659
  14 H :    0.172947
  15 H :    0.172865
  16 H :    0.169391
Sum of atomic charges:   -0.0000000

LOEWDIN ATOMIC CHARGES
----------------------
   0 C :   -0.377010
   1 C :    0.069009
   2 C :   -0.379803
   3 O :   -0.596079
   4 C :    0.355860
   5 O :   -0.428195
   6 C :   -0.338169
   7 H :    0.160524
   8 H :    0.161997
   9 H :    0.161330
  10 H :    0.192298
  11 H :    0.168601
  12 H :    0.159662
  13 H :    0.160289
  14 H :    0.180162
  15 H :    0.175524
  16 H :    0.173997

  Mayer bond orders larger than 0.100000
B(  0-C ,  1-C ) :   0.9310 B(  0-C ,  7-H ) :   0.9729 B(  0-C ,  8-H ) :   0.9721
B(  0-C ,  9-H ) :   0.9759 B(  1-C ,  2-C ) :   0.9390 B(  1-C ,  3-O ) :   0.7320
B(  1-C , 10-H ) :   0.9511 B(  2-C , 11-H ) :   0.9640 B(  2-C , 12-H ) :   0.9776
B(  2-C , 13-H ) :   0.9697 B(  3-O ,  4-C ) :   1.0606 B(  4-C ,  5-O ) :   1.8406
B(  4-C ,  6-C ) :   0.9467 B(  6-C , 14-H ) :   0.9381 B(  6-C , 15-H ) :   0.9756
B(  6-C , 16-H ) :   0.9793

Dispersion correction           -0.004094004
FINAL SINGLE POINT ENERGY      -346.943334607818

DIPOLE MOMENT
-------------

Method             : SCF
Type of density    : Electron Density
Multiplicity       :   1
Irrep              :   0
Energy             :  -346.9495817731976217 Eh
Relativity type    :
Basis              : AO
                                X                 Y                 Z
Electronic contribution:     -4.642508096      -1.177055750      -1.837429969
Nuclear contribution   :      5.054565874       1.738796558       2.213074186
                        -----------------------------------------
Total Dipole Moment    :      0.412057778       0.561740807       0.375644217
                        -----------------------------------------
Magnitude (a.u.)       :      0.791487792
Magnitude (Debye)      :      2.011802087

Rotational constants in cm-1:             0.159541             0.056077             0.049144
Rotational constants in MHz :          4782.928259          1681.133132          1473.292630

                             ****ORCA TERMINATED NORMALLY****
TOTAL RUN TIME: 0 days 0 hours 0 minutes 16 seconds 134 msec
