                         Program Version 6.0.1  -  RELEASE   -
|  1> ! pbe def2-sv(p) def2/J RI DEFGRID1 loosescf d4 GCP(DFT/SV(P)) printgap
|  2> %output
|  3>     printlevel normal
|  4> end
|  5> * xyz 0 1
|  6> C -2.1842646949 -1.0030606558 -0.4815059429
|  7> C -1.2223967209 -0.1753248764 0.3799075999
|  8> H -1.7714691542 0.218188654 1.243106014
|  9> C -0.6298300166 1.0098703913 -0.3858934762
| 10> H -0.498809504 0.7493743039 -1.4499398829
| 11> C 0.7527923273 1.3234408926 0.1950875964
| 12> H 0.6787868749 1.4365403556 1.2873415212
| 13> C 1.6791065482 0.1459449141 -0.1122396477
| 14> H 1.8741718129 0.1270486518 -1.1951816318
| 15> C 0.9743882256 -1.1826636615 0.2484792475
| 16> H 1.6089366484 -1.7448490591 0.9565410519
| 17> O -0.2214599978 -1.0217792295 0.9531681848
| 18> O 0.8124739379 -1.8937958735 -0.9435523625
| 19> O 2.8721929348 0.3490017845 0.6047512021
| 20> O 1.2149957023 2.5152413289 -0.3896212877
| 21> O -1.5008415504 2.0982943383 -0.2622105092
| 22> O -2.7134278213 -2.0816556112 0.2471719857
| 23> H -1.6554268376 -1.3676123603 -1.3748177761
| 24> H -3.018508808 -0.3734653487 -0.7966027456
| 25> H 0.3300445848 -2.7120747717 -0.7682671807
| 26> H 3.5010791275 -0.3471328771 0.3860500275
| 27> H 2.1271599779 2.6427030316 -0.1045808959
| 28> H -1.0017625913 2.886794422 -0.5151543116
| 29> H -2.0286209284 -2.3734502581 0.8636059182
| 30> *
| 31>
| 32>                          ****END OF INPUT****

CARTESIAN COORDINATES (ANGSTROEM)
---------------------------------
  C     -2.184265   -1.003061   -0.481506
  C     -1.222397   -0.175325    0.379908
  H     -1.771469    0.218189    1.243106
  C     -0.629830    1.009870   -0.385893
  H     -0.498810    0.749374   -1.449940
  C      0.752792    1.323441    0.195088
  H      0.678787    1.436540    1.287342
  C      1.679107    0.145945   -0.112240
  H      1.874172    0.127049   -1.195182
  C      0.974388   -1.182664    0.248479
  H      1.608937   -1.744849    0.956541
  O     -0.221460   -1.021779    0.953168
  O      0.812474   -1.893796   -0.943552
  O      2.872193    0.349002    0.604751
  O      1.214996    2.515241   -0.389621
  O     -1.500842    2.098294   -0.262211
  O     -2.713428   -2.081656    0.247172
  H     -1.655427   -1.367612   -1.374818
  H     -3.018509   -0.373465   -0.796603
  H      0.330045   -2.712075   -0.768267
  H      3.501079   -0.347133    0.386050
  H      2.127160    2.642703   -0.104581
  H     -1.001763    2.886794   -0.515154
  H     -2.028621   -2.373450    0.863606

 Total Charge           Charge          ....    0
 Multiplicity           Mult            ....    1
 Number of Electrons    NEL             ....   96
 Basis Dimension        Dim             ....  192

ORBITAL ENERGIES
----------------

  NO   OCC          E(Eh)            E(eV)
   0   2.0000     -18.785260      -511.1729
   1   2.0000     -18.774680      -510.8850
   2   2.0000     -18.771040      -510.7860
   3   2.0000     -18.763115      -510.5703
   4   2.0000     -18.748711      -510.1784
   5   2.0000     -18.738235      -509.8933
   6   2.0000      -9.998007      -272.0596
   7   2.0000      -9.950571      -270.7688
   8   2.0000      -9.947124      -270.6750
   9   2.0000      -9.946246      -270.6511
  10   2.0000      -9.945767      -270.6381
  11   2.0000      -9.924820      -270.0681
  12   2.0000      -0.995231       -27.0816
  13   2.0000      -0.956438       -26.0260
  14   2.0000      -0.942249       -25.6399
  15   2.0000      -0.929645       -25.2969
  16   2.0000      -0.920757       -25.0551
  17   2.0000      -0.912281       -24.8244
  18   2.0000      -0.713119       -19.4050
  19   2.0000      -0.699594       -19.0369
  20   2.0000      -0.620901       -16.8956
  21   2.0000      -0.590635       -16.0720
  22   2.0000      -0.572049       -15.5662
  23   2.0000      -0.535247       -14.5648
  24   2.0000      -0.511656       -13.9229
  25   2.0000      -0.486135       -13.2284
  26   2.0000      -0.471546       -12.8314
  27   2.0000      -0.470289       -12.7972
  28   2.0000      -0.447471       -12.1763
  29   2.0000      -0.428887       -11.6706
  30   2.0000      -0.421611       -11.4726
  31   2.0000      -0.398908       -10.8548
  32   2.0000      -0.392250       -10.6737
  33   2.0000      -0.386233       -10.5099
  34   2.0000      -0.372514       -10.1366
  35   2.0000      -0.355897        -9.6844
  36   2.0000      -0.334781        -9.1098
  37   2.0000      -0.321882        -8.7589
  38   2.0000      -0.316477        -8.6118
  39   2.0000      -0.293314        -7.9815
  40   2.0000      -0.290720        -7.9109
  41   2.0000      -0.274967        -7.4822
  42   2.0000      -0.254560        -6.9269
  43   2.0000      -0.250239        -6.8093
  44   2.0000      -0.238334        -6.4854
  45   2.0000      -0.228181        -6.2091
  46   2.0000      -0.219483        -5.9724
  47   2.0000      -0.206756        -5.6261
  48   0.0000       0.009484         0.2581
  49   0.0000       0.013355         0.3634
  50   0.0000       0.039042         1.0624
  51   0.0000       0.048140         1.3100
  52   0.0000       0.057783         1.5723

MULLIKEN ATOMIC CHARGES
-----------------------
   0 C :    0.060552
   1 C :    0.027288
   2 H :    0.086501
   3 C :    0.030358
   4 H :    0.063785
   5 C :    0.049398
   6 H :    0.068501
   7 C :    0.035137
   8 H :    0.074205
   9 C :    0.182893
  10 H :    0.052269
  11 O :   -0.328829
  12 O :   -0.398396
  13 O :   -0.416689
  14 O :   -0.426681
  15 O :   -0.413929
  16 O :   -0.438395
  17 H :    0.067293
  18 H :    0.096728
  19 H :    0.306836
  20 H :    0.308746
  21 H :    0.312527
  22 H :    0.309948
  23 H :    0.289954
Sum of atomic charges:   -0.0000000

LOEWDIN ATOMIC CHARGES
----------------------
   0 C :   -0.136075
   1 C :   -0.064690
   2 H :    0.125169
   3 C :   -0.064826
   4 H :    0.104846
   5 C :   -0.073851
   6 H :    0.111369
   7 C :   -0.088846
   8 H :    0.112372
   9 C :   -0.006688
  10 H :    0.094170
  11 O :   -0.143497
  12 O :   -0.311131
  13 O :   -0.318889
  14 O :   -0.321155
  15 O :   -0.314766
  16 O :   -0.342419
  17 H :    0.092274
  18 H :    0.120451
  19 H :    0.285448
  20 H :    0.290666
  21 H :    0.292751
  22 H :    0.287298
  23 H :    0.270017

  Mayer bond orders larger than 0.100000
B(  0-C ,  1-C ) :   1.0962 B(  0-C , 16-O ) :   1.0738 B(  0-C , 17-H ) :   0.8933
B(  0-C , 18-H ) :   0.9137 B(  1-C ,  2-H ) :   0.8753 B(  1-C ,  3-C ) :   0.9900
B(  1-C , 11-O ) :   0.9461 B(  3-C ,  4-H ) :   0.8795 B(  3-C ,  5-C ) :   1.0195
B(  3-C , 15-O ) :   1.0910 B(  5-C ,  6-H ) :   0.8688 B(  5-C ,  7-C ) :   1.0376
B(  5-C , 14-O ) :   1.0732 B(  7-C ,  8-H ) :   0.8764 B(  7-C ,  9-C ) :   0.9773
B(  7-C , 13-O ) :   1.0770 B(  9-C , 10-H ) :   0.8930 B(  9-C , 11-O ) :   1.0865
B(  9-C , 12-O ) :   1.1003 B( 12-O , 19-H ) :   0.8310 B( 13-O , 20-H ) :   0.8465
B( 14-O , 21-H ) :   0.8373 B( 15-O , 22-H ) :   0.8308 B( 16-O , 23-H ) :   0.8382

Dispersion correction           -0.024519199
FINAL SINGLE POINT ENERGY      -685.694302975822

DIPOLE MOMENT
-------------

Method             : SCF
Type of density    : Electron Density
Multiplicity       :   1
Irrep              :   0
Energy             :  -685.8258248850257814 Eh
Relativity type    :
Basis              : AO
                                X                 Y                 Z
Electronic contribution:      1.340554348       0.462072267       1.358250913
Nuclear contribution   :      0.143452869      -0.805403183      -1.374033109
                        -----------------------------------------
Total Dipole Moment    :      1.484007217      -0.343330916      -0.015782196
                        -----------------------------------------
Magnitude (a.u.)       :      1.523286780
Magnitude (Debye)      :      3.871887292

Rotational constants in cm-1:             0.042603             0.026616             0.018420
Rotational constants in MHz :          1277.214799           797.924440           552.204444

                             ****ORCA TERMINATED NORMALLY****
TOTAL RUN TIME: 0 days 0 hours 20 minutes 11 seconds 250 msec
