                         Program Version 6.0.1  -  RELEASE   -
|  1> ! r2scan-3c def2/J RI DEFGRID2 scfconv6 printgap
|  2> %output
|  3>     printlevel normal
|  4> end
|  5> * xyz 0 1
|  6> C 3.7479862702 -0.2261127022 -0.0658573516
|  7> C 2.2884341339 -0.1687945882 0.3754675486
|  8> H 2.2538295152 0.0314317156 1.4527396678
|  9> C 1.5675644296 -1.483204642 0.0988294496
| 10> C 0.1190280458 -1.3964594897 0.5620997208
| 11> C -0.6785128601 -0.2826230664 -0.1308695664
| 12> H -0.7256051634 -0.4778171917 -1.2068168748
| 13> C 0.0644613796 1.0536835655 0.0448484444
| 14> H -0.0033611831 1.3600046579 1.1036855845
| 15> C 1.5422085446 0.9404768936 -0.3554664054
| 16> O -0.5413917618 2.0343266222 -0.7780266229
| 17> C -2.1210278656 -0.2768987553 0.4281282439
| 18> C -2.9318696586 0.9620423401 0.0538154097
| 19> C -2.8887576305 -1.5088444475 -0.0581854127
| 20> H 3.8139013165 -0.4224401266 -1.1339639405
| 21> H 4.2504407379 0.7161907277 0.1414525565
| 22> H 4.274024083 -1.0188239712 0.461186407
| 23> H 1.6013095849 -1.6963030112 -0.9718946854
| 24> H 2.0679909296 -2.3025545546 0.6198083601
| 25> H -0.3640167685 -2.3557794849 0.3795941693
| 26> H 0.1039423696 -1.2165332786 1.640585827
| 27> H 1.5832579891 0.7524893338 -1.4317528038
| 28> H 2.0289128882 1.903161065 -0.1664585456
| 29> H -0.0003319841 2.830833599 -0.7511346706
| 30> H -2.0543878101 -0.3196865552 1.522371662
| 31> H -3.959044625 0.8427990287 0.3944279643
| 32> H -2.9341111717 1.1033354532 -1.022904687
| 33> H -2.5246433223 1.8575126219 0.5104548577
| 34> H -3.9033654098 -1.4918558441 0.3338807059
| 35> H -2.4253075387 -2.4364820949 0.2652910225
| 36> H -2.9445702392 -1.5099956038 -1.144662836
| 37> *
| 38>
| 39>                          ****END OF INPUT****

CARTESIAN COORDINATES (ANGSTROEM)
---------------------------------
  C      3.747986   -0.226113   -0.065857
  C      2.288434   -0.168795    0.375468
  H      2.253830    0.031432    1.452740
  C      1.567564   -1.483205    0.098829
  C      0.119028   -1.396459    0.562100
  C     -0.678513   -0.282623   -0.130870
  H     -0.725605   -0.477817   -1.206817
  C      0.064461    1.053684    0.044848
  H     -0.003361    1.360005    1.103686
  C      1.542209    0.940477   -0.355466
  O     -0.541392    2.034327   -0.778027
  C     -2.121028   -0.276899    0.428128
  C     -2.931870    0.962042    0.053815
  C     -2.888758   -1.508844   -0.058185
  H      3.813901   -0.422440   -1.133964
  H      4.250441    0.716191    0.141453
  H      4.274024   -1.018824    0.461186
  H      1.601310   -1.696303   -0.971895
  H      2.067991   -2.302555    0.619808
  H     -0.364017   -2.355779    0.379594
  H      0.103942   -1.216533    1.640586
  H      1.583258    0.752489   -1.431753
  H      2.028913    1.903161   -0.166459
  H     -0.000332    2.830834   -0.751135
  H     -2.054388   -0.319687    1.522372
  H     -3.959045    0.842799    0.394428
  H     -2.934111    1.103335   -1.022905
  H     -2.524643    1.857513    0.510455
  H     -3.903365   -1.491856    0.333881
  H     -2.425308   -2.436482    0.265291
  H     -2.944570   -1.509996   -1.144663

 Total Charge           Charge          ....    0
 Multiplicity           Mult            ....    1
 Number of Electrons    NEL             ....   88
 Basis Dimension        Dim             ....  314

ORBITAL ENERGIES
----------------

  NO   OCC          E(Eh)            E(eV)
   0   2.0000     -18.942268      -515.4453
   1   2.0000     -10.077415      -274.2204
   2   2.0000     -10.033288      -273.0197
   3   2.0000     -10.028053      -272.8772
   4   2.0000     -10.026750      -272.8417
   5   2.0000     -10.023990      -272.7666
   6   2.0000     -10.022662      -272.7305
   7   2.0000     -10.021915      -272.7102
   8   2.0000     -10.017241      -272.5830
   9   2.0000     -10.008745      -272.3518
  10   2.0000      -9.997040      -272.0333
  11   2.0000      -0.984509       -26.7898
  12   2.0000      -0.805512       -21.9191
  13   2.0000      -0.765682       -20.8353
  14   2.0000      -0.711411       -19.3585
  15   2.0000      -0.697199       -18.9717
  16   2.0000      -0.643571       -17.5125
  17   2.0000      -0.637524       -17.3479
  18   2.0000      -0.579989       -15.7823
  19   2.0000      -0.560291       -15.2463
  20   2.0000      -0.526718       -14.3327
  21   2.0000      -0.520074       -14.1519
  22   2.0000      -0.472317       -12.8524
  23   2.0000      -0.444748       -12.1022
  24   2.0000      -0.429569       -11.6892
  25   2.0000      -0.409346       -11.1389
  26   2.0000      -0.405650       -11.0383
  27   2.0000      -0.400477       -10.8975
  28   2.0000      -0.377449       -10.2709
  29   2.0000      -0.360308        -9.8045
  30   2.0000      -0.358041        -9.7428
  31   2.0000      -0.353376        -9.6158
  32   2.0000      -0.350112        -9.5270
  33   2.0000      -0.335105        -9.1187
  34   2.0000      -0.331247        -9.0137
  35   2.0000      -0.313658        -8.5351
  36   2.0000      -0.307513        -8.3679
  37   2.0000      -0.305568        -8.3149
  38   2.0000      -0.293041        -7.9740
  39   2.0000      -0.286101        -7.7852
  40   2.0000      -0.282200        -7.6791
  41   2.0000      -0.271247        -7.3810
  42   2.0000      -0.255551        -6.9539
  43   2.0000      -0.227150        -6.1811
  44   0.0000       0.064867         1.7651
  45   0.0000       0.078827         2.1450
  46   0.0000       0.089822         2.4442
  47   0.0000       0.100370         2.7312
  48   0.0000       0.113069         3.0768

MULLIKEN ATOMIC CHARGES
-----------------------
   0 C :   -0.500625
   1 C :   -0.049995
   2 H :    0.161784
   3 C :   -0.333589
   4 C :   -0.360652
   5 C :   -0.117574
   6 H :    0.190283
   7 C :   -0.025450
   8 H :    0.153834
   9 C :   -0.353020
  10 O :   -0.405169
  11 C :   -0.044448
  12 C :   -0.489760
  13 C :   -0.523216
  14 H :    0.150897
  15 H :    0.146043
  16 H :    0.148151
  17 H :    0.156498
  18 H :    0.148579
  19 H :    0.142408
  20 H :    0.160555
  21 H :    0.174271
  22 H :    0.129350
  23 H :    0.283129
  24 H :    0.147448
  25 H :    0.131955
  26 H :    0.170751
  27 H :    0.162360
  28 H :    0.147761
  29 H :    0.140334
  30 H :    0.157111
Sum of atomic charges:   -0.0000000

LOEWDIN ATOMIC CHARGES
----------------------
   0 C :   -0.412214
   1 C :   -0.234639
   2 H :    0.158477
   3 C :   -0.292996
   4 C :   -0.286331
   5 C :   -0.183674
   6 H :    0.174113
   7 C :    0.072845
   8 H :    0.166703
   9 C :   -0.268009
  10 O :   -0.628973
  11 C :   -0.228857
  12 C :   -0.402857
  13 C :   -0.415516
  14 H :    0.154593
  15 H :    0.152858
  16 H :    0.153516
  17 H :    0.159424
  18 H :    0.158392
  19 H :    0.160708
  20 H :    0.160482
  21 H :    0.170129
  22 H :    0.157461
  23 H :    0.265794
  24 H :    0.157236
  25 H :    0.145610
  26 H :    0.163456
  27 H :    0.165310
  28 H :    0.153186
  29 H :    0.148656
  30 H :    0.155118

  Mayer bond orders larger than 0.100000
B(  0-C ,  1-C ) :   0.8882 B(  0-C , 14-H ) :   0.9955 B(  0-C , 15-H ) :   0.9783
B(  0-C , 16-H ) :   0.9751 B(  1-C ,  2-H ) :   0.9636 B(  1-C ,  3-C ) :   0.9144
B(  1-C ,  9-C ) :   0.8967 B(  3-C ,  4-C ) :   0.8793 B(  3-C , 17-H ) :   1.0144
B(  3-C , 18-H ) :   0.9487 B(  4-C ,  5-C ) :   0.9119 B(  4-C , 19-H ) :   0.9347
B(  4-C , 20-H ) :   1.0052 B(  5-C ,  6-H ) :   0.9908 B(  5-C ,  7-C ) :   0.9100
B(  5-C , 11-C ) :   0.8825 B(  7-C ,  8-H ) :   0.9842 B(  7-C ,  9-C ) :   0.8572
B(  7-C , 10-O ) :   0.8255 B(  9-C , 21-H ) :   1.0222 B(  9-C , 22-H ) :   0.9399
B( 10-O , 23-H ) :   0.8997 B( 11-C , 12-C ) :   0.8923 B( 11-C , 13-C ) :   0.8917
B( 11-C , 24-H ) :   0.9652 B( 12-C , 25-H ) :   0.9657 B( 12-C , 26-H ) :   0.9949
B( 12-C , 27-H ) :   0.9694 B( 13-C , 28-H ) :   0.9753 B( 13-C , 29-H ) :   0.9732
B( 13-C , 30-H ) :   0.9943

Dispersion correction           -0.010726398
FINAL SINGLE POINT ENERGY      -468.204350404561

DIPOLE MOMENT
-------------

Method             : SCF
Type of density    : Electron Density
Multiplicity       :   1
Irrep              :   0
Energy             :  -468.2089525398361047 Eh
Relativity type    :
Basis              : AO
                                X                 Y                 Z
Electronic contribution:      0.445170458       3.635965021      -0.643375992
Nuclear contribution   :      0.122244620      -3.582230654       0.922764436
                        -----------------------------------------
Total Dipole Moment    :      0.567415078       0.053734368       0.279388444
                        -----------------------------------------
Magnitude (a.u.)       :      0.634748104
Magnitude (Debye)      :      1.613401461

Rotational constants in cm-1:             0.063315             0.023337             0.018091
Rotational constants in MHz :          1898.141482           699.626163           542.349581

                             ****ORCA TERMINATED NORMALLY****
TOTAL RUN TIME: 0 days 0 hours 0 minutes 39 seconds 352 msec
