                         Program Version 6.0.1  -  RELEASE   -
|  1> ! pbe def2-sv(p) def2/J RI DEFGRID1 loosescf d4 GCP(DFT/SV(P)) printgap
|  2> %output
|  3>     printlevel normal
|  4> end
|  5> * xyz 0 1
|  6> C -3.6321907488 -0.2367888878 0.0031073167
|  7> C -2.142583704 -0.0692085254 -0.0040113587
|  8> C -1.5562034952 1.1874781652 0.0011859555
|  9> C -0.1792845307 1.3270252165 0.003841821
| 10> C 0.6536291505 0.2172818119 0.0015791605
| 11> C 0.0642934784 -1.0418855943 -0.003344254
| 12> C -1.3095231791 -1.1821083553 -0.0060001309
| 13> C 2.1537056771 0.3818771208 0.002951551
| 14> C 2.7689744367 -0.2253458821 -1.2596701954
| 15> C 2.7691047993 -0.2394112808 1.2586054934
| 16> H -4.1323776672 0.7172500159 -0.1439459083
| 17> H -3.9442869593 -0.9211903741 -0.7843027171
| 18> H -3.9598207331 -0.6541706853 0.9554137029
| 19> H -2.1814680042 2.0695257705 0.0025078691
| 20> H 0.2535294615 2.3180884851 0.0070595318
| 21> H 0.6830898463 -1.9272996182 -0.0060199041
| 22> H -1.7467542444 -2.1710299858 -0.0104562867
| 23> H 2.3783156799 1.454670413 0.0089640109
| 24> H 2.5994443108 -1.2986674802 -1.2942646288
| 25> H 3.8420416802 -0.0466563638 -1.2798515902
| 26> H 2.3264331434 0.220188945 -2.148085092
| 27> H 2.3272039809 0.1966174384 2.152052809
| 28> H 3.842268788 -0.0614226843 1.280231978
| 29> H 2.5992229125 -1.3129824746 1.2816060298
| 30> *
| 31>
| 32>                          ****END OF INPUT****

CARTESIAN COORDINATES (ANGSTROEM)
---------------------------------
  C     -3.632191   -0.236789    0.003107
  C     -2.142584   -0.069209   -0.004011
  C     -1.556203    1.187478    0.001186
  C     -0.179285    1.327025    0.003842
  C      0.653629    0.217282    0.001579
  C      0.064293   -1.041886   -0.003344
  C     -1.309523   -1.182108   -0.006000
  C      2.153706    0.381877    0.002952
  C      2.768974   -0.225346   -1.259670
  C      2.769105   -0.239411    1.258605
  H     -4.132378    0.717250   -0.143946
  H     -3.944287   -0.921190   -0.784303
  H     -3.959821   -0.654171    0.955414
  H     -2.181468    2.069526    0.002508
  H      0.253529    2.318088    0.007060
  H      0.683090   -1.927300   -0.006020
  H     -1.746754   -2.171030   -0.010456
  H      2.378316    1.454670    0.008964
  H      2.599444   -1.298667   -1.294265
  H      3.842042   -0.046656   -1.279852
  H      2.326433    0.220189   -2.148085
  H      2.327204    0.196617    2.152053
  H      3.842269   -0.061423    1.280232
  H      2.599223   -1.312982    1.281606

 Total Charge           Charge          ....    0
 Multiplicity           Mult            ....    1
 Number of Electrons    NEL             ....   74
 Basis Dimension        Dim             ....  168

ORBITAL ENERGIES
----------------

  NO   OCC          E(Eh)            E(eV)
   0   2.0000      -9.897681      -269.3296
   1   2.0000      -9.893883      -269.2262
   2   2.0000      -9.892984      -269.2018
   3   2.0000      -9.884357      -268.9670
   4   2.0000      -9.882734      -268.9229
   5   2.0000      -9.882478      -268.9159
   6   2.0000      -9.881876      -268.8995
   7   2.0000      -9.879417      -268.8326
   8   2.0000      -9.873986      -268.6848
   9   2.0000      -9.873952      -268.6839
  10   2.0000      -0.776918       -21.1410
  11   2.0000      -0.727347       -19.7921
  12   2.0000      -0.676635       -18.4122
  13   2.0000      -0.663025       -18.0418
  14   2.0000      -0.610488       -16.6122
  15   2.0000      -0.607380       -16.5276
  16   2.0000      -0.544890       -14.8272
  17   2.0000      -0.529725       -14.4146
  18   2.0000      -0.498498       -13.5648
  19   2.0000      -0.444755       -12.1024
  20   2.0000      -0.420262       -11.4359
  21   2.0000      -0.396782       -10.7970
  22   2.0000      -0.384789       -10.4707
  23   2.0000      -0.379173       -10.3178
  24   2.0000      -0.376269       -10.2388
  25   2.0000      -0.367369        -9.9966
  26   2.0000      -0.366418        -9.9707
  27   2.0000      -0.341487        -9.2923
  28   2.0000      -0.337875        -9.1940
  29   2.0000      -0.321767        -8.7557
  30   2.0000      -0.311749        -8.4831
  31   2.0000      -0.299786        -8.1576
  32   2.0000      -0.293614        -7.9896
  33   2.0000      -0.281298        -7.6545
  34   2.0000      -0.277172        -7.5422
  35   2.0000      -0.222660        -6.0589
  36   2.0000      -0.206559        -5.6208
  37   0.0000      -0.029198        -0.7945
  38   0.0000      -0.025016        -0.6807
  39   0.0000       0.040140         1.0923
  40   0.0000       0.053622         1.4591
  41   0.0000       0.059827         1.6280

MULLIKEN ATOMIC CHARGES
-----------------------
   0 C :   -0.224721
   1 C :    0.059117
   2 C :   -0.113709
   3 C :   -0.125868
   4 C :    0.141502
   5 C :   -0.134580
   6 C :   -0.109100
   7 C :   -0.138458
   8 C :   -0.242042
   9 C :   -0.242292
  10 H :    0.099952
  11 H :    0.111300
  12 H :    0.116205
  13 H :    0.031628
  14 H :    0.033091
  15 H :    0.042496
  16 H :    0.030440
  17 H :    0.061025
  18 H :    0.098434
  19 H :    0.097993
  20 H :    0.105559
  21 H :    0.105527
  22 H :    0.098015
  23 H :    0.098486
Sum of atomic charges:    0.0000000

LOEWDIN ATOMIC CHARGES
----------------------
   0 C :   -0.323299
   1 C :   -0.052434
   2 C :   -0.125373
   3 C :   -0.124514
   4 C :   -0.033277
   5 C :   -0.118985
   6 C :   -0.121132
   7 C :   -0.141935
   8 C :   -0.323523
   9 C :   -0.323556
  10 H :    0.123216
  11 H :    0.129520
  12 H :    0.132188
  13 H :    0.119422
  14 H :    0.119516
  15 H :    0.119381
  16 H :    0.119195
  17 H :    0.116474
  18 H :    0.116346
  19 H :    0.117041
  20 H :    0.121170
  21 H :    0.121143
  22 H :    0.117081
  23 H :    0.116333

  Mayer bond orders larger than 0.100000
B(  0-C ,  1-C ) :   1.0961 B(  0-C , 10-H ) :   0.9457 B(  0-C , 11-H ) :   0.9387
B(  0-C , 12-H ) :   0.9348 B(  1-C ,  2-C ) :   1.4036 B(  1-C ,  6-C ) :   1.3693
B(  2-C ,  3-C ) :   1.3439 B(  2-C , 13-H ) :   0.9594 B(  3-C ,  4-C ) :   1.4019
B(  3-C , 14-H ) :   0.9599 B(  4-C ,  5-C ) :   1.3514 B(  4-C ,  7-C ) :   1.0111
B(  5-C ,  6-C ) :   1.3835 B(  5-C , 15-H ) :   0.9587 B(  6-C , 16-H ) :   0.9667
B(  7-C ,  8-C ) :   1.1025 B(  7-C ,  9-C ) :   1.1025 B(  7-C , 17-H ) :   0.8893
B(  8-C , 18-H ) :   0.9468 B(  8-C , 19-H ) :   0.9486 B(  8-C , 20-H ) :   0.9519
B(  9-C , 21-H ) :   0.9519 B(  9-C , 22-H ) :   0.9486 B(  9-C , 23-H ) :   0.9468

Dispersion correction           -0.024659064
FINAL SINGLE POINT ENERGY      -388.586458888788

DIPOLE MOMENT
-------------

Method             : SCF
Type of density    : Electron Density
Multiplicity       :   1
Irrep              :   0
Energy             :  -388.6548152935926055 Eh
Relativity type    :
Basis              : AO
                                X                 Y                 Z
Electronic contribution:     -4.604255128       1.307614774      -0.008979509
Nuclear contribution   :      4.584672277      -1.329455854       0.019616881
                        -----------------------------------------
Total Dipole Moment    :     -0.019582851      -0.021841079       0.010637371
                        -----------------------------------------
Magnitude (a.u.)       :      0.031203757
Magnitude (Debye)      :      0.079313647

Rotational constants in cm-1:             0.109770             0.024737             0.023290
Rotational constants in MHz :          3290.835289           741.598176           698.215494

                             ****ORCA TERMINATED NORMALLY****
TOTAL RUN TIME: 0 days 0 hours 0 minutes 15 seconds 551 msec
