                         Program Version 6.0.1  -  RELEASE   -
|  1> ! pbe def2-sv(p) def2/J RI DEFGRID1 loosescf d4 GCP(DFT/SV(P)) printgap
|  2> %output
|  3>     printlevel normal
|  4> end
|  5> * xyz 0 1
|  6> C -0.7510161272 -1.1574149271 0.0875459942
|  7> N 5.2098e-06 -5.0687e-06 -0.348928377
|  8> C -0.626873369 1.2290883331 0.0875478343
|  9> C 1.3778840709 -0.0716695193 0.0875483538
| 10> H -0.2804308011 -2.0574566638 -0.3056462874
| 11> H -1.7643549183 -1.0949460807 -0.3066274405
| 12> H -0.8060864199 -1.241233772 1.1853579834
| 13> H -0.6723271177 1.3185365842 1.1853608954
| 14> H -1.6414815588 1.2717335291 -0.3060378845
| 15> H -0.0658673778 2.0754396342 -0.306297698
| 16> H 1.4780561778 -0.0772503643 1.1853573985
| 17> H 1.9220832028 0.7857896387 -0.3058437533
| 18> H 1.8304010647 -0.9805883839 -0.3064647198
| 19> *
| 20>
| 21>                          ****END OF INPUT****

CARTESIAN COORDINATES (ANGSTROEM)
---------------------------------
  C     -0.751016   -1.157415    0.087546
  N      0.000005   -0.000005   -0.348928
  C     -0.626873    1.229088    0.087548
  C      1.377884   -0.071670    0.087548
  H     -0.280431   -2.057457   -0.305646
  H     -1.764355   -1.094946   -0.306627
  H     -0.806086   -1.241234    1.185358
  H     -0.672327    1.318537    1.185361
  H     -1.641482    1.271734   -0.306038
  H     -0.065867    2.075440   -0.306298
  H      1.478056   -0.077250    1.185357
  H      1.922083    0.785790   -0.305844
  H      1.830401   -0.980588   -0.306465

 Total Charge           Charge          ....    0
 Multiplicity           Mult            ....    1
 Number of Electrons    NEL             ....   34
 Basis Dimension        Dim             ....   74

ORBITAL ENERGIES
----------------

  NO   OCC          E(Eh)            E(eV)
   0   2.0000     -13.979129      -380.3914
   1   2.0000      -9.897310      -269.3195
   2   2.0000      -9.897289      -269.3189
   3   2.0000      -9.897270      -269.3184
   4   2.0000      -0.833275       -22.6746
   5   2.0000      -0.630329       -17.1521
   6   2.0000      -0.630322       -17.1519
   7   2.0000      -0.521287       -14.1849
   8   2.0000      -0.417685       -11.3658
   9   2.0000      -0.417671       -11.3654
  10   2.0000      -0.413671       -11.2566
  11   2.0000      -0.346418        -9.4265
  12   2.0000      -0.346400        -9.4260
  13   2.0000      -0.322178        -8.7669
  14   2.0000      -0.316001        -8.5988
  15   2.0000      -0.315996        -8.5987
  16   2.0000      -0.167479        -4.5573
  17   0.0000       0.033816         0.9202
  18   0.0000       0.085671         2.3312
  19   0.0000       0.085696         2.3319
  20   0.0000       0.099918         2.7189
  21   0.0000       0.103216         2.8087

MULLIKEN ATOMIC CHARGES
-----------------------
   0 C :   -0.169660
   1 N :   -0.299550
   2 C :   -0.169954
   3 C :   -0.169850
   4 H :    0.101984
   5 H :    0.102010
   6 H :    0.065577
   7 H :    0.065630
   8 H :    0.102055
   9 H :    0.102116
  10 H :    0.065653
  11 H :    0.101958
  12 H :    0.102031
Sum of atomic charges:   -0.0000000

LOEWDIN ATOMIC CHARGES
----------------------
   0 C :   -0.258303
   1 N :   -0.159054
   2 C :   -0.258358
   3 C :   -0.258330
   4 H :    0.112645
   5 H :    0.112651
   6 H :    0.086024
   7 H :    0.086050
   8 H :    0.112658
   9 H :    0.112671
  10 H :    0.086045
  11 H :    0.112653
  12 H :    0.112649

  Mayer bond orders larger than 0.100000
B(  0-C ,  1-N ) :   1.0531 B(  0-C ,  4-H ) :   0.9576 B(  0-C ,  5-H ) :   0.9576
B(  0-C ,  6-H ) :   0.9248 B(  1-N ,  2-C ) :   1.0530 B(  1-N ,  3-C ) :   1.0531
B(  2-C ,  7-H ) :   0.9248 B(  2-C ,  8-H ) :   0.9576 B(  2-C ,  9-H ) :   0.9576
B(  3-C , 10-H ) :   0.9249 B(  3-C , 11-H ) :   0.9576 B(  3-C , 12-H ) :   0.9576

Dispersion correction           -0.007744648
FINAL SINGLE POINT ENERGY      -174.025591457522

DIPOLE MOMENT
-------------

Method             : SCF
Type of density    : Electron Density
Multiplicity       :   1
Irrep              :   0
Energy             :  -174.0748177432008958 Eh
Relativity type    :
Basis              : AO
                                X                 Y                 Z
Electronic contribution:      0.000053581       0.000068948      -1.445426863
Nuclear contribution   :     -0.000007241       0.000022602       1.610942917
                        -----------------------------------------
Total Dipole Moment    :      0.000046340       0.000091550       0.165516054
                        -----------------------------------------
Magnitude (a.u.)       :      0.165516086
Magnitude (Debye)      :      0.420708456

Rotational constants in cm-1:             0.293460             0.293448             0.166419
Rotational constants in MHz :          8797.719849          8797.335084          4989.110157

                             ****ORCA TERMINATED NORMALLY****
TOTAL RUN TIME: 0 days 0 hours 0 minutes 9 seconds 25 msec
