                         Program Version 6.0.1  -  RELEASE   -
|  1> ! r2scan-3c def2/J RI DEFGRID2 scfconv6 printgap
|  2> %output
|  3>     printlevel normal
|  4> end
|  5> * xyz 0 1
|  6> C -3.6321907488 -0.2367888878 0.0031073167
|  7> C -2.142583704 -0.0692085254 -0.0040113587
|  8> C -1.5562034952 1.1874781652 0.0011859555
|  9> C -0.1792845307 1.3270252165 0.003841821
| 10> C 0.6536291505 0.2172818119 0.0015791605
| 11> C 0.0642934784 -1.0418855943 -0.003344254
| 12> C -1.3095231791 -1.1821083553 -0.0060001309
| 13> C 2.1537056771 0.3818771208 0.002951551
| 14> C 2.7689744367 -0.2253458821 -1.2596701954
| 15> C 2.7691047993 -0.2394112808 1.2586054934
| 16> H -4.1323776672 0.7172500159 -0.1439459083
| 17> H -3.9442869593 -0.9211903741 -0.7843027171
| 18> H -3.9598207331 -0.6541706853 0.9554137029
| 19> H -2.1814680042 2.0695257705 0.0025078691
| 20> H 0.2535294615 2.3180884851 0.0070595318
| 21> H 0.6830898463 -1.9272996182 -0.0060199041
| 22> H -1.7467542444 -2.1710299858 -0.0104562867
| 23> H 2.3783156799 1.454670413 0.0089640109
| 24> H 2.5994443108 -1.2986674802 -1.2942646288
| 25> H 3.8420416802 -0.0466563638 -1.2798515902
| 26> H 2.3264331434 0.220188945 -2.148085092
| 27> H 2.3272039809 0.1966174384 2.152052809
| 28> H 3.842268788 -0.0614226843 1.280231978
| 29> H 2.5992229125 -1.3129824746 1.2816060298
| 30> *
| 31>
| 32>                          ****END OF INPUT****

CARTESIAN COORDINATES (ANGSTROEM)
---------------------------------
  C     -3.632191   -0.236789    0.003107
  C     -2.142584   -0.069209   -0.004011
  C     -1.556203    1.187478    0.001186
  C     -0.179285    1.327025    0.003842
  C      0.653629    0.217282    0.001579
  C      0.064293   -1.041886   -0.003344
  C     -1.309523   -1.182108   -0.006000
  C      2.153706    0.381877    0.002952
  C      2.768974   -0.225346   -1.259670
  C      2.769105   -0.239411    1.258605
  H     -4.132378    0.717250   -0.143946
  H     -3.944287   -0.921190   -0.784303
  H     -3.959821   -0.654171    0.955414
  H     -2.181468    2.069526    0.002508
  H      0.253529    2.318088    0.007060
  H      0.683090   -1.927300   -0.006020
  H     -1.746754   -2.171030   -0.010456
  H      2.378316    1.454670    0.008964
  H      2.599444   -1.298667   -1.294265
  H      3.842042   -0.046656   -1.279852
  H      2.326433    0.220189   -2.148085
  H      2.327204    0.196617    2.152053
  H      3.842269   -0.061423    1.280232
  H      2.599223   -1.312982    1.281606

 Total Charge           Charge          ....    0
 Multiplicity           Mult            ....    1
 Number of Electrons    NEL             ....   74
 Basis Dimension        Dim             ....  260

ORBITAL ENERGIES
----------------

  NO   OCC          E(Eh)            E(eV)
   0   2.0000     -10.038105      -273.1507
   1   2.0000     -10.036479      -273.1065
   2   2.0000     -10.031836      -272.9801
   3   2.0000     -10.026966      -272.8476
   4   2.0000     -10.026351      -272.8309
   5   2.0000     -10.025996      -272.8212
   6   2.0000     -10.025529      -272.8085
   7   2.0000     -10.024769      -272.7878
   8   2.0000     -10.016650      -272.5669
   9   2.0000     -10.016619      -272.5661
  10   2.0000      -0.828335       -22.5401
  11   2.0000      -0.774538       -21.0762
  12   2.0000      -0.721611       -19.6360
  13   2.0000      -0.710059       -19.3217
  14   2.0000      -0.650364       -17.6973
  15   2.0000      -0.648399       -17.6438
  16   2.0000      -0.578291       -15.7361
  17   2.0000      -0.563805       -15.3419
  18   2.0000      -0.527134       -14.3440
  19   2.0000      -0.464687       -12.6448
  20   2.0000      -0.439165       -11.9503
  21   2.0000      -0.418209       -11.3800
  22   2.0000      -0.401194       -10.9170
  23   2.0000      -0.395267       -10.7558
  24   2.0000      -0.391951       -10.6655
  25   2.0000      -0.382517       -10.4088
  26   2.0000      -0.381616       -10.3843
  27   2.0000      -0.355204        -9.6656
  28   2.0000      -0.352447        -9.5906
  29   2.0000      -0.335315        -9.1244
  30   2.0000      -0.324460        -8.8290
  31   2.0000      -0.311571        -8.4783
  32   2.0000      -0.304789        -8.2937
  33   2.0000      -0.291927        -7.9437
  34   2.0000      -0.287686        -7.8283
  35   2.0000      -0.231422        -6.2973
  36   2.0000      -0.212903        -5.7934
  37   0.0000      -0.027579        -0.7505
  38   0.0000      -0.020665        -0.5623
  39   0.0000       0.076644         2.0856
  40   0.0000       0.089259         2.4289
  41   0.0000       0.101276         2.7559

MULLIKEN ATOMIC CHARGES
-----------------------
   0 C :   -0.543009
   1 C :    0.216775
   2 C :   -0.232247
   3 C :   -0.235516
   4 C :    0.200971
   5 C :   -0.229160
   6 C :   -0.216888
   7 C :   -0.091155
   8 C :   -0.483912
   9 C :   -0.483715
  10 H :    0.149570
  11 H :    0.155769
  12 H :    0.163942
  13 H :    0.143583
  14 H :    0.144663
  15 H :    0.147323
  16 H :    0.143259
  17 H :    0.144472
  18 H :    0.150828
  19 H :    0.147096
  20 H :    0.154710
  21 H :    0.154761
  22 H :    0.147177
  23 H :    0.150702
Sum of atomic charges:    0.0000000

LOEWDIN ATOMIC CHARGES
----------------------
   0 C :   -0.391414
   1 C :   -0.104787
   2 C :   -0.164829
   3 C :   -0.157277
   4 C :   -0.089995
   5 C :   -0.152944
   6 C :   -0.158754
   7 C :   -0.222145
   8 C :   -0.401156
   9 C :   -0.401207
  10 H :    0.158394
  11 H :    0.162668
  12 H :    0.164290
  13 H :    0.166892
  14 H :    0.167658
  15 H :    0.167989
  16 H :    0.167883
  17 H :    0.160317
  18 H :    0.153835
  19 H :    0.151948
  20 H :    0.158436
  21 H :    0.158417
  22 H :    0.151982
  23 H :    0.153798

  Mayer bond orders larger than 0.100000
B(  0-C ,  1-C ) :   0.7866 B(  0-C , 10-H ) :   0.9958 B(  0-C , 11-H ) :   0.9818
B(  0-C , 12-H ) :   0.9738 B(  1-C ,  2-C ) :   1.4302 B(  1-C ,  6-C ) :   1.3912
B(  2-C ,  3-C ) :   1.4537 B(  2-C , 13-H ) :   0.9408 B(  3-C ,  4-C ) :   1.4220
B(  3-C , 14-H ) :   0.9475 B(  4-C ,  5-C ) :   1.3777 B(  4-C ,  7-C ) :   0.7885
B(  5-C ,  6-C ) :   1.4964 B(  5-C , 15-H ) :   0.9394 B(  6-C , 16-H ) :   0.9512
B(  7-C ,  8-C ) :   0.9377 B(  7-C ,  9-C ) :   0.9364 B(  7-C , 17-H ) :   1.0046
B(  8-C , 18-H ) :   0.9759 B(  8-C , 19-H ) :   0.9755 B(  8-C , 20-H ) :   0.9718
B(  9-C , 21-H ) :   0.9720 B(  9-C , 22-H ) :   0.9755 B(  9-C , 23-H ) :   0.9758

Dispersion correction           -0.008207368
FINAL SINGLE POINT ENERGY      -389.383136609399

DIPOLE MOMENT
-------------

Method             : SCF
Type of density    : Electron Density
Multiplicity       :   1
Irrep              :   0
Energy             :  -389.3836355419311985 Eh
Relativity type    :
Basis              : AO
                                X                 Y                 Z
Electronic contribution:     -4.599771534       1.316934897      -0.011256426
Nuclear contribution   :      4.584672277      -1.329455854       0.019616881
                        -----------------------------------------
Total Dipole Moment    :     -0.015099257      -0.012520956       0.008360455
                        -----------------------------------------
Magnitude (a.u.)       :      0.021322737
Magnitude (Debye)      :      0.054198090

Rotational constants in cm-1:             0.109770             0.024737             0.023290
Rotational constants in MHz :          3290.835289           741.598176           698.215494

                             ****ORCA TERMINATED NORMALLY****
TOTAL RUN TIME: 0 days 0 hours 0 minutes 23 seconds 564 msec
