                         Program Version 6.0.1  -  RELEASE   -
|  1> ! pbe def2-sv(p) def2/J RI DEFGRID1 loosescf d4 GCP(DFT/SV(P)) printgap
|  2> %output
|  3>     printlevel normal
|  4> end
|  5> * xyz 0 1
|  6> C -4.0822787872 0.0002820048 1.54545e-05
|  7> C -3.3974744186 -0.9358857484 -0.7547776758
|  8> C -2.0122660032 -0.9299840868 -0.7502319681
|  9> C -1.2973492086 -5.1808e-06 3.82213e-05
| 10> C -2.012100264 0.9300784431 0.7503815045
| 11> C -3.3973046288 0.9362292202 0.7549119049
| 12> Cl -1.1425057626 2.081093547 1.6962672993
| 13> C 0.181976322 -2.27428e-05 -7.9243e-06
| 14> C 0.8989423366 -0.9298940916 0.7494268627
| 15> C 2.2841197774 -0.9407530644 0.7579063431
| 16> C 2.9641046146 4.55814e-05 -4.89325e-05
| 17> C 2.2840595733 0.9408154742 -0.7579922599
| 18> C 0.8988868276 0.9298789554 -0.7494663187
| 19> Cl 0.0382734588 2.0818779564 -1.6946509107
| 20> Cl 4.6837103225 2.92739e-05 -8.70676e-05
| 21> Cl 0.038438407 -2.0820583373 1.694479819
| 22> Cl -1.1429069237 -2.0812347512 -1.6960623783
| 23> H -5.161033048 0.0004472636 -3.75162e-05
| 24> H -3.9268217047 -1.6662568525 -1.3450673621
| 25> H -3.9265293116 1.6666439476 1.3452236452
| 26> H 2.8200059444 -1.6680896976 1.3453363164
| 27> H 2.8198845734 1.6681854953 -1.3454320541
| 28> *
| 29>
| 30>                          ****END OF INPUT****

CARTESIAN COORDINATES (ANGSTROEM)
---------------------------------
  C     -4.082279    0.000282    0.000015
  C     -3.397474   -0.935886   -0.754778
  C     -2.012266   -0.929984   -0.750232
  C     -1.297349   -0.000005    0.000038
  C     -2.012100    0.930078    0.750382
  C     -3.397305    0.936229    0.754912
  Cl    -1.142506    2.081094    1.696267
  C      0.181976   -0.000023   -0.000008
  C      0.898942   -0.929894    0.749427
  C      2.284120   -0.940753    0.757906
  C      2.964105    0.000046   -0.000049
  C      2.284060    0.940815   -0.757992
  C      0.898887    0.929879   -0.749466
  Cl     0.038273    2.081878   -1.694651
  Cl     4.683710    0.000029   -0.000087
  Cl     0.038438   -2.082058    1.694480
  Cl    -1.142907   -2.081235   -1.696062
  H     -5.161033    0.000447   -0.000038
  H     -3.926822   -1.666257   -1.345067
  H     -3.926529    1.666644    1.345224
  H      2.820006   -1.668090    1.345336
  H      2.819885    1.668185   -1.345432

 Total Charge           Charge          ....    0
 Multiplicity           Mult            ....    1
 Number of Electrons    NEL             ....  162
 Basis Dimension        Dim             ....  268

ORBITAL ENERGIES
----------------

  NO   OCC          E(Eh)            E(eV)
   0   2.0000    -100.653931     -2738.9327
   1   2.0000    -100.653918     -2738.9323
   2   2.0000    -100.653832     -2738.9300
   3   2.0000    -100.649577     -2738.8142
   4   2.0000    -100.649563     -2738.8138
   5   2.0000      -9.971335      -271.3338
   6   2.0000      -9.970042      -271.2986
   7   2.0000      -9.970036      -271.2985
   8   2.0000      -9.965727      -271.1812
   9   2.0000      -9.965724      -271.1811
  10   2.0000      -9.931242      -270.2428
  11   2.0000      -9.930524      -270.2233
  12   2.0000      -9.918785      -269.9039
  13   2.0000      -9.918783      -269.9038
  14   2.0000      -9.918598      -269.8988
  15   2.0000      -9.914102      -269.7764
  16   2.0000      -9.914099      -269.7763
  17   2.0000      -9.189913      -250.0702
  18   2.0000      -9.189588      -250.0614
  19   2.0000      -9.189580      -250.0612
  20   2.0000      -9.185393      -249.9473
  21   2.0000      -9.185383      -249.9470
  22   2.0000      -7.021298      -191.0592
  23   2.0000      -7.021010      -191.0514
  24   2.0000      -7.021009      -191.0514
  25   2.0000      -7.016733      -190.9350
  26   2.0000      -7.016730      -190.9349
  27   2.0000      -7.009926      -190.7498
  28   2.0000      -7.009655      -190.7424
  29   2.0000      -7.009654      -190.7424
  30   2.0000      -7.009177      -190.7294
  31   2.0000      -7.008825      -190.7198
  32   2.0000      -7.008825      -190.7198
  33   2.0000      -7.005454      -190.6281
  34   2.0000      -7.005451      -190.6280
  35   2.0000      -7.004678      -190.6070
  36   2.0000      -7.004675      -190.6069
  37   2.0000      -0.856274       -23.3004
  38   2.0000      -0.834574       -22.7099
  39   2.0000      -0.813449       -22.1351
  40   2.0000      -0.811810       -22.0905
  41   2.0000      -0.806906       -21.9570
  42   2.0000      -0.758938       -20.6517
  43   2.0000      -0.747310       -20.3353
  44   2.0000      -0.713285       -19.4095
  45   2.0000      -0.675158       -18.3720
  46   2.0000      -0.667050       -18.1514
  47   2.0000      -0.656981       -17.8774
  48   2.0000      -0.577371       -15.7111
  49   2.0000      -0.560861       -15.2618
  50   2.0000      -0.550892       -14.9905
  51   2.0000      -0.541920       -14.7464
  52   2.0000      -0.495417       -13.4810
  53   2.0000      -0.471077       -12.8187
  54   2.0000      -0.465647       -12.6709
  55   2.0000      -0.454593       -12.3701
  56   2.0000      -0.433010       -11.7828
  57   2.0000      -0.421001       -11.4560
  58   2.0000      -0.409639       -11.1468
  59   2.0000      -0.405728       -11.0404
  60   2.0000      -0.403979       -10.9928
  61   2.0000      -0.389546       -10.6001
  62   2.0000      -0.381559       -10.3827
  63   2.0000      -0.370712       -10.0876
  64   2.0000      -0.353355        -9.6153
  65   2.0000      -0.346068        -9.4170
  66   2.0000      -0.344880        -9.3847
  67   2.0000      -0.337825        -9.1927
  68   2.0000      -0.332076        -9.0362
  69   2.0000      -0.322933        -8.7875
  70   2.0000      -0.292885        -7.9698
  71   2.0000      -0.285023        -7.7559
  72   2.0000      -0.284371        -7.7381
  73   2.0000      -0.280099        -7.6219
  74   2.0000      -0.274505        -7.4697
  75   2.0000      -0.272372        -7.4116
  76   2.0000      -0.271094        -7.3769
  77   2.0000      -0.237037        -6.4501
  78   2.0000      -0.229844        -6.2544
  79   2.0000      -0.225470        -6.1353
  80   2.0000      -0.224891        -6.1196
  81   0.0000      -0.067839        -1.8460
  82   0.0000      -0.061988        -1.6868
  83   0.0000      -0.054637        -1.4868
  84   0.0000      -0.052909        -1.4397
  85   0.0000      -0.028175        -0.7667

MULLIKEN ATOMIC CHARGES
-----------------------
   0 C :   -0.035374
   1 C :   -0.089933
   2 C :    0.077308
   3 C :    0.007441
   4 C :    0.077323
   5 C :   -0.089943
   6 Cl:   -0.055816
   7 C :    0.014904
   8 C :    0.070721
   9 C :   -0.111607
  10 C :    0.130085
  11 C :   -0.111619
  12 C :    0.070724
  13 Cl:   -0.047634
  14 Cl:   -0.065891
  15 Cl:   -0.047628
  16 Cl:   -0.055822
  17 H :    0.070086
  18 H :    0.050171
  19 H :    0.050159
  20 H :    0.046174
  21 H :    0.046173
Sum of atomic charges:    0.0000000

LOEWDIN ATOMIC CHARGES
----------------------
   0 C :   -0.107461
   1 C :   -0.141769
   2 C :   -0.117664
   3 C :   -0.083871
   4 C :   -0.117665
   5 C :   -0.141772
   6 Cl:    0.156496
   7 C :   -0.087656
   8 C :   -0.114743
   9 C :   -0.161025
  10 C :   -0.127590
  11 C :   -0.161024
  12 C :   -0.114736
  13 Cl:    0.166469
  14 Cl:    0.151177
  15 Cl:    0.166480
  16 Cl:    0.156484
  17 H :    0.133299
  18 H :    0.133981
  19 H :    0.133981
  20 H :    0.139304
  21 H :    0.139305

  Mayer bond orders larger than 0.100000
B(  0-C ,  1-C ) :   1.3348 B(  0-C ,  5-C ) :   1.3349 B(  0-C , 17-H ) :   0.9578
B(  1-C ,  2-C ) :   1.3677 B(  1-C , 18-H ) :   0.9699 B(  2-C ,  3-C ) :   1.4250
B(  2-C , 16-Cl) :   1.0420 B(  3-C ,  4-C ) :   1.4249 B(  3-C ,  7-C ) :   0.9672
B(  4-C ,  5-C ) :   1.3678 B(  4-C ,  6-Cl) :   1.0420 B(  5-C , 19-H ) :   0.9699
B(  7-C ,  8-C ) :   1.4241 B(  7-C , 12-C ) :   1.4240 B(  8-C ,  9-C ) :   1.3360
B(  8-C , 15-Cl) :   1.0411 B(  9-C , 10-C ) :   1.3229 B(  9-C , 20-H ) :   0.9732
B( 10-C , 11-C ) :   1.3229 B( 10-C , 14-Cl) :   0.9669 B( 11-C , 12-C ) :   1.3360
B( 11-C , 21-H ) :   0.9733 B( 12-C , 13-Cl) :   1.0410

Dispersion correction           -0.045725996
FINAL SINGLE POINT ENERGY     -2758.690178476530

DIPOLE MOMENT
-------------

Method             : SCF
Type of density    : Electron Density
Multiplicity       :   1
Irrep              :   0
Energy             : -2758.7166460610428658 Eh
Relativity type    :
Basis              : AO
                                X                 Y                 Z
Electronic contribution:      9.691233799      -0.001165092      -0.000068832
Nuclear contribution   :    -10.240556677       0.001264994       0.000093062
                        -----------------------------------------
Total Dipole Moment    :     -0.549322878       0.000099901       0.000024231
                        -----------------------------------------
Magnitude (a.u.)       :      0.549322888
Magnitude (Debye)      :      1.396267817

Rotational constants in cm-1:             0.014299             0.007461             0.006744
Rotational constants in MHz :           428.675384           223.681582           202.192903

                             ****ORCA TERMINATED NORMALLY****
TOTAL RUN TIME: 0 days 0 hours 0 minutes 13 seconds 713 msec
