                         Program Version 6.0.1  -  RELEASE   -
|  1> ! pbe def2-sv(p) def2/J RI DEFGRID1 loosescf d4 GCP(DFT/SV(P)) printgap
|  2> %output
|  3>     printlevel normal
|  4> end
|  5> * xyz 0 1
|  6> C -3.4637178503 -0.4646535393 -0.1372732715
|  7> O -2.2302301489 -0.0485365603 -0.7070900147
|  8> C -1.2013762617 0.0857654416 0.1409507653
|  9> O -1.2914092202 -0.111031341 1.3243691959
| 10> C 0.0631200219 0.4683672168 -0.5992965641
| 11> C 0.8055579583 -0.8368847801 -0.956985959
| 12> C 1.6970655435 -1.2604353956 0.2032847718
| 13> C 2.8441695248 -0.2590988094 0.3865816084
| 14> C 2.4182421058 1.1565723857 -0.0197503171
| 15> C 0.9392683482 1.3770235617 0.2741853336
| 16> H -3.7680973387 0.2265445872 0.6511041629
| 17> H -3.3651681509 -1.4639350753 0.2917498232
| 18> H -4.1888348498 -0.466640271 -0.9468046534
| 19> H -0.2340938171 0.9707451947 -1.523227813
| 20> H 0.080576533 -1.6192686637 -1.1910920648
| 21> H 1.4149161959 -0.6762626879 -1.8477882287
| 22> H 1.0890000909 -1.3058888628 1.107809802
| 23> H 2.0994919979 -2.2587924433 0.0239916626
| 24> H 3.1594918596 -0.2648319797 1.4309663896
| 25> H 3.7029038944 -0.5616256885 -0.2160769314
| 26> H 3.0158479751 1.8922364935 0.5206226226
| 27> H 2.5958618694 1.3125074144 -1.085783112
| 28> H 0.7429528205 1.1496439056 1.3237058391
| 29> H 0.6707661722 2.4208458705 0.1028885783
| 30> *
| 31>
| 32>                          ****END OF INPUT****

CARTESIAN COORDINATES (ANGSTROEM)
---------------------------------
  C     -3.463718   -0.464654   -0.137273
  O     -2.230230   -0.048537   -0.707090
  C     -1.201376    0.085765    0.140951
  O     -1.291409   -0.111031    1.324369
  C      0.063120    0.468367   -0.599297
  C      0.805558   -0.836885   -0.956986
  C      1.697066   -1.260435    0.203285
  C      2.844170   -0.259099    0.386582
  C      2.418242    1.156572   -0.019750
  C      0.939268    1.377024    0.274185
  H     -3.768097    0.226545    0.651104
  H     -3.365168   -1.463935    0.291750
  H     -4.188835   -0.466640   -0.946805
  H     -0.234094    0.970745   -1.523228
  H      0.080577   -1.619269   -1.191092
  H      1.414916   -0.676263   -1.847788
  H      1.089000   -1.305889    1.107810
  H      2.099492   -2.258792    0.023992
  H      3.159492   -0.264832    1.430966
  H      3.702904   -0.561626   -0.216077
  H      3.015848    1.892236    0.520623
  H      2.595862    1.312507   -1.085783
  H      0.742953    1.149644    1.323706
  H      0.670766    2.420846    0.102889

 Total Charge           Charge          ....    0
 Multiplicity           Mult            ....    1
 Number of Electrons    NEL             ....   78
 Basis Dimension        Dim             ....  168

ORBITAL ENERGIES
----------------

  NO   OCC          E(Eh)            E(eV)
   0   2.0000     -18.796693      -511.4840
   1   2.0000     -18.738736      -509.9069
   2   2.0000     -10.002578      -272.1840
   3   2.0000      -9.938971      -270.4531
   4   2.0000      -9.902016      -269.4476
   5   2.0000      -9.891024      -269.1485
   6   2.0000      -9.881435      -268.8875
   7   2.0000      -9.881378      -268.8860
   8   2.0000      -9.879930      -268.8466
   9   2.0000      -9.879339      -268.8305
  10   2.0000      -1.005586       -27.3634
  11   2.0000      -0.916185       -24.9307
  12   2.0000      -0.760803       -20.7025
  13   2.0000      -0.690778       -18.7970
  14   2.0000      -0.664181       -18.0733
  15   2.0000      -0.647921       -17.6308
  16   2.0000      -0.559401       -15.2221
  17   2.0000      -0.552441       -15.0327
  18   2.0000      -0.505186       -13.7468
  19   2.0000      -0.471832       -12.8392
  20   2.0000      -0.455490       -12.3945
  21   2.0000      -0.441231       -12.0065
  22   2.0000      -0.429586       -11.6896
  23   2.0000      -0.415283       -11.3004
  24   2.0000      -0.411651       -11.2016
  25   2.0000      -0.379148       -10.3171
  26   2.0000      -0.368827       -10.0363
  27   2.0000      -0.349318        -9.5054
  28   2.0000      -0.334254        -9.0955
  29   2.0000      -0.333245        -9.0681
  30   2.0000      -0.327358        -8.9079
  31   2.0000      -0.317560        -8.6412
  32   2.0000      -0.316025        -8.5995
  33   2.0000      -0.302912        -8.2426
  34   2.0000      -0.271467        -7.3870
  35   2.0000      -0.262910        -7.1542
  36   2.0000      -0.261081        -7.1044
  37   2.0000      -0.256492        -6.9795
  38   2.0000      -0.220156        -5.9907
  39   0.0000      -0.019582        -0.5328
  40   0.0000       0.030245         0.8230
  41   0.0000       0.051946         1.4135
  42   0.0000       0.058724         1.5979
  43   0.0000       0.078420         2.1339

MULLIKEN ATOMIC CHARGES
-----------------------
   0 C :   -0.109807
   1 O :   -0.241790
   2 C :    0.127172
   3 O :   -0.193669
   4 C :   -0.162182
   5 C :   -0.132740
   6 C :   -0.159658
   7 C :   -0.157911
   8 C :   -0.151479
   9 C :   -0.114650
  10 H :    0.117892
  11 H :    0.115327
  12 H :    0.119946
  13 H :    0.078456
  14 H :    0.093729
  15 H :    0.084965
  16 H :    0.097071
  17 H :    0.085445
  18 H :    0.083455
  19 H :    0.079243
  20 H :    0.085547
  21 H :    0.073513
  22 H :    0.096960
  23 H :    0.085166
Sum of atomic charges:   -0.0000000

LOEWDIN ATOMIC CHARGES
----------------------
   0 C :   -0.207617
   1 O :   -0.076623
   2 C :    0.046467
   3 O :   -0.152810
   4 C :   -0.163863
   5 C :   -0.206868
   6 C :   -0.233742
   7 C :   -0.228412
   8 C :   -0.228685
   9 C :   -0.219281
  10 H :    0.118464
  11 H :    0.117112
  12 H :    0.119379
  13 H :    0.127782
  14 H :    0.119617
  15 H :    0.118547
  16 H :    0.122369
  17 H :    0.118386
  18 H :    0.117959
  19 H :    0.114775
  20 H :    0.119359
  21 H :    0.112863
  22 H :    0.125123
  23 H :    0.119699

  Mayer bond orders larger than 0.100000
B(  0-C ,  1-O ) :   0.9482 B(  0-C , 10-H ) :   0.9502 B(  0-C , 11-H ) :   0.9527
B(  0-C , 12-H ) :   0.9591 B(  1-O ,  2-C ) :   1.2063 B(  2-C ,  3-O ) :   2.0481
B(  2-C ,  4-C ) :   0.9488 B(  4-C ,  5-C ) :   1.0832 B(  4-C ,  9-C ) :   1.0917
B(  4-C , 13-H ) :   0.8777 B(  5-C ,  6-C ) :   1.1796 B(  5-C , 14-H ) :   0.9148
B(  5-C , 15-H ) :   0.9044 B(  6-C ,  7-C ) :   1.1425 B(  6-C , 16-H ) :   0.8990
B(  6-C , 17-H ) :   0.9204 B(  7-C ,  8-C ) :   1.1429 B(  7-C , 18-H ) :   0.9216
B(  7-C , 19-H ) :   0.9215 B(  8-C ,  9-C ) :   1.1919 B(  8-C , 20-H ) :   0.9205
B(  8-C , 21-H ) :   0.9057 B(  9-C , 22-H ) :   0.8902 B(  9-C , 23-H ) :   0.9172

Dispersion correction           -0.023105969
FINAL SINGLE POINT ENERGY      -462.698631604977

DIPOLE MOMENT
-------------

Method             : SCF
Type of density    : Electron Density
Multiplicity       :   1
Irrep              :   0
Energy             :  -462.7868025856587337 Eh
Relativity type    :
Basis              : AO
                                X                 Y                 Z
Electronic contribution:     -6.729410219       0.567212139       0.697520324
Nuclear contribution   :      6.529606848      -0.607223007      -1.264817027
                        -----------------------------------------
Total Dipole Moment    :     -0.199803371      -0.040010868      -0.567296703
                        -----------------------------------------
Magnitude (a.u.)       :      0.602783382
Magnitude (Debye)      :      1.532153596

Rotational constants in cm-1:             0.101488             0.025858             0.024764
Rotational constants in MHz :          3042.528077           775.217178           742.404202

                             ****ORCA TERMINATED NORMALLY****
TOTAL RUN TIME: 0 days 0 hours 0 minutes 8 seconds 469 msec
