                         Program Version 6.0.1  -  RELEASE   -
|  1> ! pbe def2-sv(p) def2/J RI DEFGRID1 loosescf d4 GCP(DFT/SV(P)) printgap
|  2> %output
|  3>     printlevel normal
|  4> end
|  5> * xyz 0 1
|  6> C -2.1984356664 -1.2651640939 0.1063644287
|  7> C -0.8824936124 -0.5746498613 0.5149670338
|  8> H -0.9729589743 -0.2267348629 1.5573519749
|  9> C -0.5790115559 0.6339254735 -0.380307122
| 10> H -0.5143500344 0.3183085426 -1.4273682781
| 11> C 0.7551886054 1.2727399256 0.0297407324
| 12> H 0.6050728246 1.8014993551 0.988963371
| 13> C 1.8365806209 0.2128797667 0.2858024667
| 14> H 2.7060745307 0.4704913696 -0.3340310883
| 15> C 1.357242493 -1.1887190695 -0.1298686005
| 16> H 2.0723110991 -1.9417481187 0.2493699681
| 17> O 0.1463471041 -1.5569236094 0.4629021264
| 18> O 1.3034137047 -1.2358119429 -1.524390642
| 19> O 2.1419641853 0.250257402 1.656236554
| 20> O 1.2105157964 2.1680836297 -0.9484489993
| 21> O -1.613484239 1.5952360722 -0.3403105413
| 22> O -3.32900124 -0.4864637241 0.3742594555
| 23> H -2.3012768437 -2.1830045902 0.6890814005
| 24> H -2.140885911 -1.5308762011 -0.9594040249
| 25> H 0.9580451116 -2.096632201 -1.7920494601
| 26> H 2.8409480878 -0.3844874984 1.8495591891
| 27> H 0.4505059656 2.6653650633 -1.2771134259
| 28> H -1.6832635805 1.937486532 0.5610617338
| 29> H -3.2387950768 0.3451005037 -0.1145889959
| 30> *
| 31>
| 32>                          ****END OF INPUT****

CARTESIAN COORDINATES (ANGSTROEM)
---------------------------------
  C     -2.198436   -1.265164    0.106364
  C     -0.882494   -0.574650    0.514967
  H     -0.972959   -0.226735    1.557352
  C     -0.579012    0.633925   -0.380307
  H     -0.514350    0.318309   -1.427368
  C      0.755189    1.272740    0.029741
  H      0.605073    1.801499    0.988963
  C      1.836581    0.212880    0.285802
  H      2.706075    0.470491   -0.334031
  C      1.357242   -1.188719   -0.129869
  H      2.072311   -1.941748    0.249370
  O      0.146347   -1.556924    0.462902
  O      1.303414   -1.235812   -1.524391
  O      2.141964    0.250257    1.656237
  O      1.210516    2.168084   -0.948449
  O     -1.613484    1.595236   -0.340311
  O     -3.329001   -0.486464    0.374259
  H     -2.301277   -2.183005    0.689081
  H     -2.140886   -1.530876   -0.959404
  H      0.958045   -2.096632   -1.792049
  H      2.840948   -0.384487    1.849559
  H      0.450506    2.665365   -1.277113
  H     -1.683264    1.937487    0.561062
  H     -3.238795    0.345101   -0.114589

 Total Charge           Charge          ....    0
 Multiplicity           Mult            ....    1
 Number of Electrons    NEL             ....   96
 Basis Dimension        Dim             ....  192

ORBITAL ENERGIES
----------------

  NO   OCC          E(Eh)            E(eV)
   0   2.0000     -18.782904      -511.1088
   1   2.0000     -18.776286      -510.9287
   2   2.0000     -18.767567      -510.6915
   3   2.0000     -18.761241      -510.5193
   4   2.0000     -18.749922      -510.2113
   5   2.0000     -18.738404      -509.8979
   6   2.0000      -9.992527      -271.9105
   7   2.0000      -9.949647      -270.7437
   8   2.0000      -9.947377      -270.6819
   9   2.0000      -9.946756      -270.6650
  10   2.0000      -9.945975      -270.6437
  11   2.0000      -9.928823      -270.1770
  12   2.0000      -0.989061       -26.9137
  13   2.0000      -0.962354       -26.1870
  14   2.0000      -0.940671       -25.5970
  15   2.0000      -0.926993       -25.2248
  16   2.0000      -0.920146       -25.0384
  17   2.0000      -0.914405       -24.8822
  18   2.0000      -0.710124       -19.3234
  19   2.0000      -0.695310       -18.9203
  20   2.0000      -0.616870       -16.7859
  21   2.0000      -0.602618       -16.3981
  22   2.0000      -0.563362       -15.3299
  23   2.0000      -0.529558       -14.4100
  24   2.0000      -0.516036       -14.0420
  25   2.0000      -0.492801       -13.4098
  26   2.0000      -0.479401       -13.0452
  27   2.0000      -0.471966       -12.8429
  28   2.0000      -0.451709       -12.2916
  29   2.0000      -0.418075       -11.3764
  30   2.0000      -0.417628       -11.3642
  31   2.0000      -0.400064       -10.8863
  32   2.0000      -0.384383       -10.4596
  33   2.0000      -0.377069       -10.2606
  34   2.0000      -0.368261       -10.0209
  35   2.0000      -0.356274        -9.6947
  36   2.0000      -0.354821        -9.6552
  37   2.0000      -0.314708        -8.5636
  38   2.0000      -0.311023        -8.4634
  39   2.0000      -0.301382        -8.2010
  40   2.0000      -0.290067        -7.8931
  41   2.0000      -0.274412        -7.4671
  42   2.0000      -0.256675        -6.9845
  43   2.0000      -0.245698        -6.6858
  44   2.0000      -0.237370        -6.4592
  45   2.0000      -0.226896        -6.1742
  46   2.0000      -0.216954        -5.9036
  47   2.0000      -0.205492        -5.5917
  48   0.0000       0.008534         0.2322
  49   0.0000       0.018978         0.5164
  50   0.0000       0.022827         0.6212
  51   0.0000       0.043678         1.1885
  52   0.0000       0.056529         1.5382

MULLIKEN ATOMIC CHARGES
-----------------------
   0 C :    0.092461
   1 C :    0.005677
   2 H :    0.060259
   3 C :    0.016251
   4 H :    0.075415
   5 C :    0.081079
   6 H :    0.053471
   7 C :    0.086335
   8 H :    0.085101
   9 C :    0.119807
  10 H :    0.050880
  11 O :   -0.302063
  12 O :   -0.384230
  13 O :   -0.416296
  14 O :   -0.405104
  15 O :   -0.420635
  16 O :   -0.444407
  17 H :    0.092509
  18 H :    0.053748
  19 H :    0.302291
  20 H :    0.300678
  21 H :    0.301147
  22 H :    0.304343
  23 H :    0.291285
Sum of atomic charges:   -0.0000000

LOEWDIN ATOMIC CHARGES
----------------------
   0 C :   -0.124233
   1 C :   -0.072960
   2 H :    0.106615
   3 C :   -0.096697
   4 H :    0.122766
   5 C :   -0.062062
   6 H :    0.103392
   7 C :   -0.070867
   8 H :    0.118532
   9 C :   -0.014584
  10 H :    0.090739
  11 O :   -0.137730
  12 O :   -0.309923
  13 O :   -0.311178
  14 O :   -0.312985
  15 O :   -0.302841
  16 O :   -0.341792
  17 H :    0.115852
  18 H :    0.092237
  19 H :    0.285192
  20 H :    0.286545
  21 H :    0.283205
  22 H :    0.285465
  23 H :    0.267314

  Mayer bond orders larger than 0.100000
B(  0-C ,  1-C ) :   1.0238 B(  0-C , 16-O ) :   1.0908 B(  0-C , 17-H ) :   0.9237
B(  0-C , 18-H ) :   0.9073 B(  1-C ,  2-H ) :   0.8797 B(  1-C ,  3-C ) :   1.0188
B(  1-C , 11-O ) :   0.9610 B(  3-C ,  4-H ) :   0.8233 B(  3-C ,  5-C ) :   1.0925
B(  3-C , 15-O ) :   0.9742 B(  5-C ,  6-H ) :   0.8643 B(  5-C ,  7-C ) :   0.9778
B(  5-C , 14-O ) :   1.0981 B(  7-C ,  8-H ) :   0.8692 B(  7-C ,  9-C ) :   1.0398
B(  7-C , 13-O ) :   1.0439 B(  9-C , 10-H ) :   0.8952 B(  9-C , 11-O ) :   1.0794
B(  9-C , 12-O ) :   1.1227 B( 12-O , 19-H ) :   0.8394 B( 13-O , 20-H ) :   0.8474
B( 14-O , 21-H ) :   0.8394 B( 15-O , 22-H ) :   0.8355 B( 16-O , 23-H ) :   0.8177

Dispersion correction           -0.024704198
FINAL SINGLE POINT ENERGY      -685.692651260770

DIPOLE MOMENT
-------------

Method             : SCF
Type of density    : Electron Density
Multiplicity       :   1
Irrep              :   0
Energy             :  -685.8243001401771153 Eh
Relativity type    :
Basis              : AO
                                X                 Y                 Z
Electronic contribution:      1.605070873       0.552225942      -0.028229849
Nuclear contribution   :     -1.145306242      -0.763328668      -0.013337766
                        -----------------------------------------
Total Dipole Moment    :      0.459764631      -0.211102726      -0.041567615
                        -----------------------------------------
Magnitude (a.u.)       :      0.507617714
Magnitude (Debye)      :      1.290261689

Rotational constants in cm-1:             0.042319             0.025640             0.020739
Rotational constants in MHz :          1268.677446           768.672199           621.744335

                             ****ORCA TERMINATED NORMALLY****
TOTAL RUN TIME: 0 days 0 hours 0 minutes 8 seconds 287 msec
