                         Program Version 6.0.1  -  RELEASE   -
|  1> ! pbe def2-sv(p) def2/J RI DEFGRID1 loosescf d4 GCP(DFT/SV(P)) printgap
|  2> %output
|  3>     printlevel normal
|  4> end
|  5> * xyz 0 1
|  6> C 2.3090431354 0.1821979712 -0.4218707578
|  7> C 1.0824028439 -0.1035909718 0.4416027465
|  8> C 0.2028806069 1.1496272378 0.5952096506
|  9> C -0.8927060856 1.185549858 -0.4641627679
| 10> C -1.8811703578 0.0328081928 -0.2531152821
| 11> C -1.1788436175 -1.205159677 0.3183579389
| 12> C 0.2689805029 -1.2615957271 -0.155450322
| 13> H 2.8938054695 -0.7245427982 -0.5629687772
| 14> H 2.0096861303 0.5518746232 -1.4003705564
| 15> H 2.944900381 0.9300576973 0.0474057609
| 16> H 1.4314928776 -0.4008506959 1.4368360763
| 17> H -0.2650264984 1.159016794 1.5816074167
| 18> H 0.8253013066 2.0433004432 0.5207351683
| 19> H -1.4225861508 2.1391054927 -0.4238389377
| 20> H -0.4353192439 1.1101288401 -1.452049631
| 21> H -2.6734509251 0.3446243009 0.4302360089
| 22> H -2.3523963881 -0.2145098739 -1.2064898803
| 23> H -1.1900976843 -1.1730522205 1.4096669112
| 24> H -1.7114023271 -2.1076683191 0.01281776
| 25> H 0.7224604686 -2.2127878397 0.1301725235
| 26> H 0.2881541668 -1.204415476 -1.245578237
| 27> *
| 28>
| 29>                          ****END OF INPUT****

CARTESIAN COORDINATES (ANGSTROEM)
---------------------------------
  C      2.309043    0.182198   -0.421871
  C      1.082403   -0.103591    0.441603
  C      0.202881    1.149627    0.595210
  C     -0.892706    1.185550   -0.464163
  C     -1.881170    0.032808   -0.253115
  C     -1.178844   -1.205160    0.318358
  C      0.268981   -1.261596   -0.155450
  H      2.893805   -0.724543   -0.562969
  H      2.009686    0.551875   -1.400371
  H      2.944900    0.930058    0.047406
  H      1.431493   -0.400851    1.436836
  H     -0.265026    1.159017    1.581607
  H      0.825301    2.043300    0.520735
  H     -1.422586    2.139105   -0.423839
  H     -0.435319    1.110129   -1.452050
  H     -2.673451    0.344624    0.430236
  H     -2.352396   -0.214510   -1.206490
  H     -1.190098   -1.173052    1.409667
  H     -1.711402   -2.107668    0.012818
  H      0.722460   -2.212788    0.130173
  H      0.288154   -1.204415   -1.245578

 Total Charge           Charge          ....    0
 Multiplicity           Mult            ....    1
 Number of Electrons    NEL             ....   56
 Basis Dimension        Dim             ....  126

ORBITAL ENERGIES
----------------

  NO   OCC          E(Eh)            E(eV)
   0   2.0000      -9.886520      -269.0259
   1   2.0000      -9.876258      -268.7466
   2   2.0000      -9.876173      -268.7443
   3   2.0000      -9.875972      -268.7389
   4   2.0000      -9.874930      -268.7105
   5   2.0000      -9.874568      -268.7007
   6   2.0000      -9.869045      -268.5504
   7   2.0000      -0.753309       -20.4986
   8   2.0000      -0.680643       -18.5213
   9   2.0000      -0.657560       -17.8931
  10   2.0000      -0.598385       -16.2829
  11   2.0000      -0.547557       -14.8998
  12   2.0000      -0.516971       -14.0675
  13   2.0000      -0.457767       -12.4565
  14   2.0000      -0.437449       -11.9036
  15   2.0000      -0.424077       -11.5397
  16   2.0000      -0.389124       -10.5886
  17   2.0000      -0.366530        -9.9738
  18   2.0000      -0.352563        -9.5937
  19   2.0000      -0.342270        -9.3136
  20   2.0000      -0.325267        -8.8510
  21   2.0000      -0.315521        -8.5858
  22   2.0000      -0.308717        -8.4006
  23   2.0000      -0.303367        -8.2550
  24   2.0000      -0.292169        -7.9503
  25   2.0000      -0.254999        -6.9389
  26   2.0000      -0.253541        -6.8992
  27   2.0000      -0.252416        -6.8686
  28   0.0000       0.029262         0.7963
  29   0.0000       0.048127         1.3096
  30   0.0000       0.062534         1.7016
  31   0.0000       0.080143         2.1808
  32   0.0000       0.091855         2.4995

MULLIKEN ATOMIC CHARGES
-----------------------
   0 C :   -0.241491
   1 C :   -0.178540
   2 C :   -0.119344
   3 C :   -0.158393
   4 C :   -0.162122
   5 C :   -0.142026
   6 C :   -0.129251
   7 H :    0.097348
   8 H :    0.094654
   9 H :    0.097384
  10 H :    0.064739
  11 H :    0.073282
  12 H :    0.077182
  13 H :    0.083693
  14 H :    0.077242
  15 H :    0.079887
  16 H :    0.079867
  17 H :    0.073475
  18 H :    0.082460
  19 H :    0.081092
  20 H :    0.068861
Sum of atomic charges:   -0.0000000

LOEWDIN ATOMIC CHARGES
----------------------
   0 C :   -0.329225
   1 C :   -0.152241
   2 C :   -0.220106
   3 C :   -0.229662
   4 C :   -0.229223
   5 C :   -0.229349
   6 C :   -0.220384
   7 H :    0.116794
   8 H :    0.114645
   9 H :    0.115571
  10 H :    0.113502
  11 H :    0.114036
  12 H :    0.115220
  13 H :    0.117285
  14 H :    0.112688
  15 H :    0.114987
  16 H :    0.115266
  17 H :    0.114005
  18 H :    0.116623
  19 H :    0.116667
  20 H :    0.112902

  Mayer bond orders larger than 0.100000
B(  0-C ,  1-C ) :   1.1209 B(  0-C ,  7-H ) :   0.9493 B(  0-C ,  8-H ) :   0.9460
B(  0-C ,  9-H ) :   0.9475 B(  1-C ,  2-C ) :   1.0870 B(  1-C ,  6-C ) :   1.1006
B(  1-C , 10-H ) :   0.8976 B(  2-C ,  3-C ) :   1.1830 B(  2-C , 11-H ) :   0.9063
B(  2-C , 12-H ) :   0.9203 B(  3-C ,  4-C ) :   1.1430 B(  3-C , 13-H ) :   0.9210
B(  3-C , 14-H ) :   0.9056 B(  4-C ,  5-C ) :   1.1401 B(  4-C , 15-H ) :   0.9227
B(  4-C , 16-H ) :   0.9220 B(  5-C ,  6-C ) :   1.1865 B(  5-C , 17-H ) :   0.9070
B(  5-C , 18-H ) :   0.9222 B(  6-C , 19-H ) :   0.9161 B(  6-C , 20-H ) :   0.9042

Dispersion correction           -0.018684417
FINAL SINGLE POINT ENERGY      -274.481629733974

DIPOLE MOMENT
-------------

Method             : SCF
Type of density    : Electron Density
Multiplicity       :   1
Irrep              :   0
Energy             :  -274.5527576135710319 Eh
Relativity type    :
Basis              : AO
                                X                 Y                 Z
Electronic contribution:     -1.011839526      -0.238050910       0.706521093
Nuclear contribution   :      0.999632967       0.225422723      -0.677183338
                        -----------------------------------------
Total Dipole Moment    :     -0.012206560      -0.012628186       0.029337755
                        -----------------------------------------
Magnitude (a.u.)       :      0.034193201
Magnitude (Debye)      :      0.086912211

Rotational constants in cm-1:             0.136744             0.076231             0.058531
Rotational constants in MHz :          4099.469024          2285.354744          1754.707742

                             ****ORCA TERMINATED NORMALLY****
TOTAL RUN TIME: 0 days 0 hours 0 minutes 11 seconds 148 msec
