                         Program Version 6.0.1  -  RELEASE   -
|  1> ! pbe def2-sv(p) def2/J RI DEFGRID1 loosescf d4 GCP(DFT/SV(P)) printgap
|  2> %output
|  3>     printlevel normal
|  4> end
|  5> * xyz 0 1
|  6> C 1.221049861 0.91018137 -1.3483789684
|  7> C 2.592033151 1.023905363 -1.4769730257
|  8> C 3.4318653449 0.4398474415 -0.5401426426
|  9> C 2.8871620109 -0.2653306242 0.5309012118
| 10> C 1.5127505895 -0.383296596 0.655167271
| 11> C 0.6728323453 0.2044803952 -0.2826158806
| 12> C -0.7932545899 0.0742879433 -0.1440150841
| 13> C -1.5898787902 1.2027064478 0.0540419431
| 14> C -2.9721550588 1.0783543765 0.1824711894
| 15> C -3.5684844207 -0.1706362956 0.1121863725
| 16> C -2.7869690361 -1.2979525827 -0.0850461695
| 17> C -1.4039910957 -1.178692377 -0.2118407199
| 18> Cl -0.4465627056 -2.5797747158 -0.4873732704
| 19> Cl -3.5330908276 -2.8403362459 -0.1748696325
| 20> Cl -3.9457664107 2.4691644218 0.4302600545
| 21> Cl -0.8560233901 2.7527459736 0.1742912648
| 22> Cl 3.9123324715 -0.9947638848 1.7051474078
| 23> Cl 5.1375310482 0.5887231945 -0.7057538485
| 24> H 0.5728056112 1.3603573407 -2.0836362479
| 25> H 3.020978767 1.5664460163 -2.3042691742
| 26> H 1.1002474109 -0.9255775143 1.4911838311
| 27> H -4.637535253 -0.2650510991 0.210810867
| 28> *
| 29>
| 30>                          ****END OF INPUT****

CARTESIAN COORDINATES (ANGSTROEM)
---------------------------------
  C      1.221050    0.910181   -1.348379
  C      2.592033    1.023905   -1.476973
  C      3.431865    0.439847   -0.540143
  C      2.887162   -0.265331    0.530901
  C      1.512751   -0.383297    0.655167
  C      0.672832    0.204480   -0.282616
  C     -0.793255    0.074288   -0.144015
  C     -1.589879    1.202706    0.054042
  C     -2.972155    1.078354    0.182471
  C     -3.568484   -0.170636    0.112186
  C     -2.786969   -1.297953   -0.085046
  C     -1.403991   -1.178692   -0.211841
  Cl    -0.446563   -2.579775   -0.487373
  Cl    -3.533091   -2.840336   -0.174870
  Cl    -3.945766    2.469164    0.430260
  Cl    -0.856023    2.752746    0.174291
  Cl     3.912332   -0.994764    1.705147
  Cl     5.137531    0.588723   -0.705754
  H      0.572806    1.360357   -2.083636
  H      3.020979    1.566446   -2.304269
  H      1.100247   -0.925578    1.491184
  H     -4.637535   -0.265051    0.210811

 Total Charge           Charge          ....    0
 Multiplicity           Mult            ....    1
 Number of Electrons    NEL             ....  178
 Basis Dimension        Dim             ....  284

ORBITAL ENERGIES
----------------

  NO   OCC          E(Eh)            E(eV)
   0   2.0000    -100.662369     -2739.1623
   1   2.0000    -100.662314     -2739.1608
   2   2.0000    -100.660926     -2739.1231
   3   2.0000    -100.660875     -2739.1217
   4   2.0000    -100.650109     -2738.8287
   5   2.0000    -100.649740     -2738.8187
   6   2.0000      -9.981456      -271.6092
   7   2.0000      -9.981022      -271.5974
   8   2.0000      -9.979638      -271.5598
   9   2.0000      -9.979346      -271.5518
  10   2.0000      -9.968635      -271.2604
  11   2.0000      -9.967479      -271.2289
  12   2.0000      -9.950612      -270.7699
  13   2.0000      -9.935399      -270.3560
  14   2.0000      -9.933732      -270.3106
  15   2.0000      -9.923644      -270.0361
  16   2.0000      -9.919313      -269.9182
  17   2.0000      -9.919006      -269.9099
  18   2.0000      -9.197973      -250.2896
  19   2.0000      -9.197946      -250.2888
  20   2.0000      -9.196893      -250.2602
  21   2.0000      -9.196842      -250.2588
  22   2.0000      -9.186241      -249.9703
  23   2.0000      -9.185835      -249.9593
  24   2.0000      -7.029576      -191.2845
  25   2.0000      -7.029526      -191.2831
  26   2.0000      -7.028469      -191.2544
  27   2.0000      -7.028409      -191.2527
  28   2.0000      -7.018064      -190.9712
  29   2.0000      -7.018047      -190.9708
  30   2.0000      -7.017709      -190.9616
  31   2.0000      -7.017326      -190.9511
  32   2.0000      -7.016966      -190.9414
  33   2.0000      -7.016952      -190.9410
  34   2.0000      -7.016886      -190.9392
  35   2.0000      -7.016845      -190.9381
  36   2.0000      -7.015987      -190.9147
  37   2.0000      -7.015938      -190.9134
  38   2.0000      -7.006287      -190.6508
  39   2.0000      -7.005851      -190.6389
  40   2.0000      -7.005355      -190.6254
  41   2.0000      -7.004976      -190.6151
  42   2.0000      -0.872058       -23.7299
  43   2.0000      -0.846658       -23.0387
  44   2.0000      -0.840451       -22.8698
  45   2.0000      -0.812815       -22.1178
  46   2.0000      -0.797510       -21.7014
  47   2.0000      -0.790681       -21.5155
  48   2.0000      -0.778010       -21.1707
  49   2.0000      -0.758916       -20.6512
  50   2.0000      -0.709820       -19.3152
  51   2.0000      -0.684114       -18.6157
  52   2.0000      -0.662198       -18.0193
  53   2.0000      -0.657518       -17.8920
  54   2.0000      -0.595377       -16.2010
  55   2.0000      -0.574737       -15.6394
  56   2.0000      -0.552531       -15.0351
  57   2.0000      -0.541072       -14.7233
  58   2.0000      -0.492992       -13.4150
  59   2.0000      -0.491250       -13.3676
  60   2.0000      -0.473742       -12.8912
  61   2.0000      -0.457384       -12.4460
  62   2.0000      -0.439434       -11.9576
  63   2.0000      -0.428622       -11.6634
  64   2.0000      -0.422579       -11.4990
  65   2.0000      -0.411666       -11.2020
  66   2.0000      -0.410568       -11.1721
  67   2.0000      -0.403188       -10.9713
  68   2.0000      -0.390061       -10.6141
  69   2.0000      -0.383471       -10.4348
  70   2.0000      -0.377732       -10.2786
  71   2.0000      -0.363727        -9.8975
  72   2.0000      -0.351340        -9.5604
  73   2.0000      -0.346198        -9.4205
  74   2.0000      -0.330567        -8.9952
  75   2.0000      -0.314776        -8.5655
  76   2.0000      -0.313574        -8.5328
  77   2.0000      -0.312019        -8.4905
  78   2.0000      -0.302819        -8.2401
  79   2.0000      -0.293746        -7.9932
  80   2.0000      -0.287967        -7.8360
  81   2.0000      -0.280658        -7.6371
  82   2.0000      -0.279984        -7.6188
  83   2.0000      -0.271635        -7.3916
  84   2.0000      -0.265903        -7.2356
  85   2.0000      -0.248151        -6.7525
  86   2.0000      -0.237592        -6.4652
  87   2.0000      -0.223832        -6.0908
  88   2.0000      -0.221376        -6.0239
  89   0.0000      -0.084460        -2.2983
  90   0.0000      -0.071160        -1.9364
  91   0.0000      -0.059218        -1.6114
  92   0.0000      -0.051906        -1.4124
  93   0.0000      -0.042208        -1.1485

MULLIKEN ATOMIC CHARGES
-----------------------
   0 C :   -0.058742
   1 C :   -0.100683
   2 C :    0.080345
   3 C :    0.088730
   4 C :   -0.123710
   5 C :    0.035215
   6 C :    0.015009
   7 C :    0.029743
   8 C :    0.080752
   9 C :   -0.157273
  10 C :    0.080322
  11 C :    0.029627
  12 Cl:   -0.019296
  13 Cl:   -0.038619
  14 Cl:   -0.038991
  15 Cl:   -0.021089
  16 Cl:   -0.050157
  17 Cl:   -0.048597
  18 H :    0.057448
  19 H :    0.056602
  20 H :    0.049470
  21 H :    0.053896
Sum of atomic charges:    0.0000000

LOEWDIN ATOMIC CHARGES
----------------------
   0 C :   -0.108043
   1 C :   -0.130360
   2 C :   -0.155525
   3 C :   -0.156453
   4 C :   -0.119820
   5 C :   -0.047164
   6 C :   -0.054811
   7 C :   -0.152827
   8 C :   -0.159576
   9 C :   -0.147601
  10 C :   -0.159523
  11 C :   -0.152952
  12 Cl:    0.181449
  13 Cl:    0.164881
  14 Cl:    0.164627
  15 Cl:    0.180335
  16 Cl:    0.152613
  17 Cl:    0.154206
  18 H :    0.131358
  19 H :    0.136291
  20 H :    0.134950
  21 H :    0.143946

  Mayer bond orders larger than 0.100000
B(  0-C ,  1-C ) :   1.3402 B(  0-C ,  5-C ) :   1.3526 B(  0-C , 18-H ) :   0.9638
B(  1-C ,  2-C ) :   1.3755 B(  1-C , 19-H ) :   0.9653 B(  2-C ,  3-C ) :   1.4009
B(  2-C , 17-Cl) :   1.0441 B(  3-C ,  4-C ) :   1.3633 B(  3-C , 16-Cl) :   1.0385
B(  4-C ,  5-C ) :   1.3290 B(  4-C , 20-H ) :   0.9661 B(  5-C ,  6-C ) :   0.9536
B(  6-C ,  7-C ) :   1.4176 B(  6-C ,  9-C ) :   0.1021 B(  6-C , 11-C ) :   1.4171
B(  7-C ,  8-C ) :   1.3691 B(  7-C , 15-Cl) :   1.1098 B(  8-C ,  9-C ) :   1.3303
B(  8-C , 14-Cl) :   1.0359 B(  9-C , 10-C ) :   1.3305 B(  9-C , 21-H ) :   0.9800
B( 10-C , 11-C ) :   1.3690 B( 10-C , 13-Cl) :   1.0363 B( 11-C , 12-Cl) :   1.1106

Dispersion correction           -0.046014266
FINAL SINGLE POINT ENERGY     -3217.959792827642

DIPOLE MOMENT
-------------

Method             : SCF
Type of density    : Electron Density
Multiplicity       :   1
Irrep              :   0
Energy             : -3217.9841621463338015 Eh
Relativity type    :
Basis              : AO
                                X                 Y                 Z
Electronic contribution:     -0.226199156      -2.286804159       3.512692606
Nuclear contribution   :     -0.307271787       2.439857383      -3.783820703
                        -----------------------------------------
Total Dipole Moment    :     -0.533470943       0.153053224      -0.271128097
                        -----------------------------------------
Magnitude (a.u.)       :      0.617678704
Magnitude (Debye)      :      1.570014494

Rotational constants in cm-1:             0.012319             0.004765             0.003762
Rotational constants in MHz :           369.302972           142.848873           112.769624

                             ****ORCA TERMINATED NORMALLY****
TOTAL RUN TIME: 0 days 0 hours 0 minutes 14 seconds 26 msec
