                         Program Version 6.0.1  -  RELEASE   -
|  1> ! pbe def2-sv(p) def2/J RI DEFGRID1 loosescf d4 GCP(DFT/SV(P)) printgap
|  2> %output
|  3>     printlevel normal
|  4> end
|  5> * xyz 0 1
|  6> C -0.6110628771 0.0111860443 0.4650710593
|  7> C 0.6110935907 -0.0118184235 -0.4651550613
|  8> O 1.8232114614 0.0132478695 0.2449614842
|  9> O -1.8232398497 -0.0127193728 -0.2449751354
| 10> H -0.5500835008 0.8916874804 1.1205039963
| 11> H -0.6194584698 -0.8861712375 1.0912835833
| 12> H 0.6191703383 0.884963133 -1.0921509478
| 13> H 0.5505757148 -0.8929616603 -1.11987479
| 14> H 1.8739097363 -0.7681335288 0.8067441986
| 15> H -1.8740291919 0.7697624311 -0.8052883025
| 16> *
| 17>
| 18>                          ****END OF INPUT****

CARTESIAN COORDINATES (ANGSTROEM)
---------------------------------
  C     -0.611063    0.011186    0.465071
  C      0.611094   -0.011818   -0.465155
  O      1.823211    0.013248    0.244961
  O     -1.823240   -0.012719   -0.244975
  H     -0.550084    0.891687    1.120504
  H     -0.619458   -0.886171    1.091284
  H      0.619170    0.884963   -1.092151
  H      0.550576   -0.892962   -1.119875
  H      1.873910   -0.768134    0.806744
  H     -1.874029    0.769762   -0.805288

 Total Charge           Charge          ....    0
 Multiplicity           Mult            ....    1
 Number of Electrons    NEL             ....   34
 Basis Dimension        Dim             ....   68

ORBITAL ENERGIES
----------------

  NO   OCC          E(Eh)            E(eV)
   0   2.0000     -18.748690      -510.1778
   1   2.0000     -18.748645      -510.1766
   2   2.0000      -9.931515      -270.2503
   3   2.0000      -9.931430      -270.2479
   4   2.0000      -0.932032       -25.3619
   5   2.0000      -0.920866       -25.0580
   6   2.0000      -0.654746       -17.8165
   7   2.0000      -0.569592       -15.4994
   8   2.0000      -0.462636       -12.5890
   9   2.0000      -0.460926       -12.5424
  10   2.0000      -0.415753       -11.3132
  11   2.0000      -0.369343       -10.0503
  12   2.0000      -0.349566        -9.5122
  13   2.0000      -0.307800        -8.3757
  14   2.0000      -0.270636        -7.3644
  15   2.0000      -0.235806        -6.4166
  16   2.0000      -0.206942        -5.6312
  17   0.0000       0.018945         0.5155
  18   0.0000       0.028984         0.7887
  19   0.0000       0.077057         2.0968
  20   0.0000       0.091467         2.4889
  21   0.0000       0.099121         2.6972

MULLIKEN ATOMIC CHARGES
-----------------------
   0 C :   -0.026516
   1 C :   -0.026344
   2 O :   -0.432109
   3 O :   -0.432104
   4 H :    0.082153
   5 H :    0.079892
   6 H :    0.079869
   7 H :    0.082155
   8 H :    0.296495
   9 H :    0.296508
Sum of atomic charges:    0.0000000

LOEWDIN ATOMIC CHARGES
----------------------
   0 C :   -0.151814
   1 C :   -0.151780
   2 O :   -0.335750
   3 O :   -0.335741
   4 H :    0.096712
   5 H :    0.107067
   6 H :    0.107061
   7 H :    0.096718
   8 H :    0.283760
   9 H :    0.283766

  Mayer bond orders larger than 0.100000
B(  0-C ,  1-C ) :   1.0726 B(  0-C ,  3-O ) :   1.0578 B(  0-C ,  4-H ) :   0.9219
B(  0-C ,  5-H ) :   0.9273 B(  1-C ,  2-O ) :   1.0577 B(  1-C ,  6-H ) :   0.9273
B(  1-C ,  7-H ) :   0.9219 B(  2-O ,  8-H ) :   0.8551 B(  3-O ,  9-H ) :   0.8551

Dispersion correction           -0.004701365
FINAL SINGLE POINT ENERGY      -229.723187246509

DIPOLE MOMENT
-------------

Method             : SCF
Type of density    : Electron Density
Multiplicity       :   1
Irrep              :   0
Energy             :  -229.7739783901701855 Eh
Relativity type    :
Basis              : AO
                                X                 Y                 Z
Electronic contribution:     -0.000192778       0.001105122      -0.000278245
Nuclear contribution   :      0.000078973      -0.000792780       0.001142240
                        -----------------------------------------
Total Dipole Moment    :     -0.000113805       0.000312343       0.000863995
                        -----------------------------------------
Magnitude (a.u.)       :      0.000925741
Magnitude (Debye)      :      0.002353047

Rotational constants in cm-1:             0.983493             0.131009             0.122801
Rotational constants in MHz :         29484.386648          3927.551644          3681.493326

                             ****ORCA TERMINATED NORMALLY****
TOTAL RUN TIME: 0 days 0 hours 0 minutes 5 seconds 873 msec
