                         Program Version 6.0.1  -  RELEASE   -
|  1> ! r2scan-3c def2/J RI DEFGRID2 scfconv6 printgap
|  2> %output
|  3>     printlevel normal
|  4> end
|  5> * xyz 0 1
|  6> C 1.9520369348 7.72127e-05 -0.7614612153
|  7> C 1.1122117792 -0.0001125705 0.5145147294
|  8> C 0.2383584986 1.2536200312 0.6290347612
|  9> C -0.9169517244 1.2518565884 -0.3681883103
| 10> C -1.7706318213 0.0001025161 -0.1946420472
| 11> C -0.9171239566 -1.2517886451 -0.3681977053
| 12> C 0.2382216094 -1.2537621167 0.6289877004
| 13> H 2.5892896344 0.881615985 -0.7915652305
| 14> H 2.5882377549 -0.8821950711 -0.7924893139
| 15> H 1.3294691143 0.0009339125 -1.6510491388
| 16> H 1.81013272 -0.0001468043 1.3614755484
| 17> H -0.1733885022 1.3010424681 1.6405961742
| 18> H 0.8542494449 2.1435268396 0.480364436
| 19> H -1.5293897617 2.1435942124 -0.2153043905
| 20> H -0.5294834102 1.2906031645 -1.3876544997
| 21> H -2.2124424101 0.0001373084 0.8050013591
| 22> H -2.5865537726 0.0001586346 -0.9209560992
| 23> H -1.5297182405 -2.1434067521 -0.2151853013
| 24> H -0.5297454631 -1.2906650574 -1.3876928309
| 25> H -0.1734304309 -1.3014551718 1.6405331708
| 26> H 0.8540064111 -2.1436604417 0.4800065996
| 27> *
| 28>
| 29>                          ****END OF INPUT****

CARTESIAN COORDINATES (ANGSTROEM)
---------------------------------
  C      1.952037    0.000077   -0.761461
  C      1.112212   -0.000113    0.514515
  C      0.238358    1.253620    0.629035
  C     -0.916952    1.251857   -0.368188
  C     -1.770632    0.000103   -0.194642
  C     -0.917124   -1.251789   -0.368198
  C      0.238222   -1.253762    0.628988
  H      2.589290    0.881616   -0.791565
  H      2.588238   -0.882195   -0.792489
  H      1.329469    0.000934   -1.651049
  H      1.810133   -0.000147    1.361476
  H     -0.173389    1.301042    1.640596
  H      0.854249    2.143527    0.480364
  H     -1.529390    2.143594   -0.215304
  H     -0.529483    1.290603   -1.387654
  H     -2.212442    0.000137    0.805001
  H     -2.586554    0.000159   -0.920956
  H     -1.529718   -2.143407   -0.215185
  H     -0.529745   -1.290665   -1.387693
  H     -0.173430   -1.301455    1.640533
  H      0.854006   -2.143660    0.480007

 Total Charge           Charge          ....    0
 Multiplicity           Mult            ....    1
 Number of Electrons    NEL             ....   56
 Basis Dimension        Dim             ....  203

ORBITAL ENERGIES
----------------

  NO   OCC          E(Eh)            E(eV)
   0   2.0000     -10.027004      -272.8487
   1   2.0000     -10.018404      -272.6146
   2   2.0000     -10.018291      -272.6116
   3   2.0000     -10.018210      -272.6094
   4   2.0000     -10.017488      -272.5897
   5   2.0000     -10.017480      -272.5895
   6   2.0000     -10.011700      -272.4322
   7   2.0000      -0.799816       -21.7641
   8   2.0000      -0.724027       -19.7018
   9   2.0000      -0.703599       -19.1459
  10   2.0000      -0.641551       -17.4575
  11   2.0000      -0.569749       -15.5037
  12   2.0000      -0.558000       -15.1839
  13   2.0000      -0.494212       -13.4482
  14   2.0000      -0.450318       -12.2538
  15   2.0000      -0.414744       -11.2858
  16   2.0000      -0.412242       -11.2177
  17   2.0000      -0.393004       -10.6942
  18   2.0000      -0.368420       -10.0252
  19   2.0000      -0.366128        -9.9629
  20   2.0000      -0.341146        -9.2831
  21   2.0000      -0.324912        -8.8413
  22   2.0000      -0.322347        -8.7715
  23   2.0000      -0.304481        -8.2853
  24   2.0000      -0.301035        -8.1916
  25   2.0000      -0.276457        -7.5228
  26   2.0000      -0.259652        -7.0655
  27   2.0000      -0.259160        -7.0521
  28   0.0000       0.081004         2.2042
  29   0.0000       0.107405         2.9226
  30   0.0000       0.114350         3.1116
  31   0.0000       0.116679         3.1750
  32   0.0000       0.123372         3.3571

MULLIKEN ATOMIC CHARGES
-----------------------
   0 C :   -0.534915
   1 C :    0.028442
   2 C :   -0.327211
   3 C :   -0.316176
   4 C :   -0.267167
   5 C :   -0.316110
   6 C :   -0.327267
   7 H :    0.147372
   8 H :    0.147359
   9 H :    0.154610
  10 H :    0.148073
  11 H :    0.147283
  12 H :    0.145685
  13 H :    0.144890
  14 H :    0.151005
  15 H :    0.139388
  16 H :    0.145867
  17 H :    0.144883
  18 H :    0.151011
  19 H :    0.147298
  20 H :    0.145681
Sum of atomic charges:   -0.0000000

LOEWDIN ATOMIC CHARGES
----------------------
   0 C :   -0.416696
   1 C :   -0.238039
   2 C :   -0.299327
   3 C :   -0.305083
   4 C :   -0.303810
   5 C :   -0.305073
   6 C :   -0.299327
   7 H :    0.154259
   8 H :    0.154254
   9 H :    0.150651
  10 H :    0.156748
  11 H :    0.157223
  12 H :    0.156488
  13 H :    0.154652
  14 H :    0.153603
  15 H :    0.153800
  16 H :    0.153706
  17 H :    0.154652
  18 H :    0.153613
  19 H :    0.157223
  20 H :    0.156484

  Mayer bond orders larger than 0.100000
B(  0-C ,  1-C ) :   0.8990 B(  0-C ,  7-H ) :   0.9729 B(  0-C ,  8-H ) :   0.9730
B(  0-C ,  9-H ) :   0.9841 B(  1-C ,  2-C ) :   0.9314 B(  1-C ,  6-C ) :   0.9314
B(  1-C , 10-H ) :   0.9357 B(  2-C ,  3-C ) :   0.9054 B(  2-C , 11-H ) :   0.9774
B(  2-C , 12-H ) :   0.9539 B(  3-C ,  4-C ) :   0.9083 B(  3-C , 13-H ) :   0.9385
B(  3-C , 14-H ) :   1.0011 B(  4-C ,  5-C ) :   0.9083 B(  4-C , 15-H ) :   0.9925
B(  4-C , 16-H ) :   0.9443 B(  5-C ,  6-C ) :   0.9054 B(  5-C , 17-H ) :   0.9385
B(  5-C , 18-H ) :   1.0010 B(  6-C , 19-H ) :   0.9774 B(  6-C , 20-H ) :   0.9540

Dispersion correction           -0.006261109
FINAL SINGLE POINT ENERGY      -275.091936436860

DIPOLE MOMENT
-------------

Method             : SCF
Type of density    : Electron Density
Multiplicity       :   1
Irrep              :   0
Energy             :  -275.0948125820855239 Eh
Relativity type    :
Basis              : AO
                                X                 Y                 Z
Electronic contribution:     -0.716957285      -0.000106643       0.926762072
Nuclear contribution   :      0.714160748       0.000078080      -0.894932033
                        -----------------------------------------
Total Dipole Moment    :     -0.002796537      -0.000028563       0.031830039
                        -----------------------------------------
Magnitude (a.u.)       :      0.031952665
Magnitude (Debye)      :      0.081217221

Rotational constants in cm-1:             0.118098             0.085334             0.065003
Rotational constants in MHz :          3540.483510          2558.259094          1948.733032

                             ****ORCA TERMINATED NORMALLY****
TOTAL RUN TIME: 0 days 0 hours 0 minutes 17 seconds 302 msec
