                         Program Version 6.0.1  -  RELEASE   -
|  1> ! pbe def2-sv(p) def2/J RI DEFGRID1 loosescf d4 GCP(DFT/SV(P)) printgap
|  2> %output
|  3>     printlevel normal
|  4> end
|  5> * xyz 0 1
|  6> C -3.0317378049 0.8791551869 0.4006624799
|  7> O -1.9052414647 0.6153222981 -0.4224002548
|  8> C -1.0418847037 -0.3019158535 0.0364825837
|  9> O -1.2037348121 -0.8924268217 1.0714698146
| 10> C 0.1084185915 -0.4950371142 -0.9379785135
| 11> C 1.1014808341 -1.5531211195 -0.4343361913
| 12> C 2.3449536927 -0.9162686746 0.1906623683
| 13> C 1.9380313425 0.2999477642 1.0139133877
| 14> C 1.4032665105 1.4119337641 0.1013460254
| 15> C 0.8079243646 0.8451741691 -1.1916423443
| 16> H -3.6058072272 -0.0354363555 0.5629082069
| 17> H -3.6294220211 1.6175862944 -0.1274956614
| 18> H -2.7115459072 1.2674593031 1.3698667512
| 19> H -0.3539097398 -0.8268945378 -1.8740710642
| 20> H 0.595541591 -2.1608903472 0.3182785363
| 21> H 1.3969033833 -2.2089947175 -1.2545033983
| 22> H 2.8466516482 -1.6492459611 0.8241072765
| 23> H 3.0512531927 -0.6128541138 -0.5847734653
| 24> H 1.165177624 -0.0091882267 1.7190767043
| 25> H 2.785985932 0.6698832024 1.5926277073
| 26> H 0.6430731712 1.9844488468 0.6363711297
| 27> H 2.2076770047 2.1034576773 -0.1580155172
| 28> H 0.0991485367 1.5552762459 -1.6188558446
| 29> H 1.5975614644 0.6798545387 -1.9264175543
| 30> *
| 31>
| 32>                          ****END OF INPUT****

CARTESIAN COORDINATES (ANGSTROEM)
---------------------------------
  C     -3.031738    0.879155    0.400662
  O     -1.905241    0.615322   -0.422400
  C     -1.041885   -0.301916    0.036483
  O     -1.203735   -0.892427    1.071470
  C      0.108419   -0.495037   -0.937979
  C      1.101481   -1.553121   -0.434336
  C      2.344954   -0.916269    0.190662
  C      1.938031    0.299948    1.013913
  C      1.403267    1.411934    0.101346
  C      0.807924    0.845174   -1.191642
  H     -3.605807   -0.035436    0.562908
  H     -3.629422    1.617586   -0.127496
  H     -2.711546    1.267459    1.369867
  H     -0.353910   -0.826895   -1.874071
  H      0.595542   -2.160890    0.318279
  H      1.396903   -2.208995   -1.254503
  H      2.846652   -1.649246    0.824107
  H      3.051253   -0.612854   -0.584773
  H      1.165178   -0.009188    1.719077
  H      2.785986    0.669883    1.592628
  H      0.643073    1.984449    0.636371
  H      2.207677    2.103458   -0.158016
  H      0.099149    1.555276   -1.618856
  H      1.597561    0.679855   -1.926418

 Total Charge           Charge          ....    0
 Multiplicity           Mult            ....    1
 Number of Electrons    NEL             ....   78
 Basis Dimension        Dim             ....  168

ORBITAL ENERGIES
----------------

  NO   OCC          E(Eh)            E(eV)
   0   2.0000     -18.798204      -511.5251
   1   2.0000     -18.741020      -509.9691
   2   2.0000     -10.005257      -272.2569
   3   2.0000      -9.940567      -270.4966
   4   2.0000      -9.903692      -269.4931
   5   2.0000      -9.887671      -269.0572
   6   2.0000      -9.882242      -268.9095
   7   2.0000      -9.878724      -268.8137
   8   2.0000      -9.878573      -268.8096
   9   2.0000      -9.875748      -268.7328
  10   2.0000      -1.008035       -27.4300
  11   2.0000      -0.918188       -24.9852
  12   2.0000      -0.760016       -20.6811
  13   2.0000      -0.688871       -18.7451
  14   2.0000      -0.663613       -18.0578
  15   2.0000      -0.647200       -17.6112
  16   2.0000      -0.564515       -15.3612
  17   2.0000      -0.543470       -14.7886
  18   2.0000      -0.509161       -13.8550
  19   2.0000      -0.472563       -12.8591
  20   2.0000      -0.458915       -12.4877
  21   2.0000      -0.441657       -12.0181
  22   2.0000      -0.427300       -11.6274
  23   2.0000      -0.410983       -11.1834
  24   2.0000      -0.408879       -11.1262
  25   2.0000      -0.384711       -10.4685
  26   2.0000      -0.363814        -9.8999
  27   2.0000      -0.351623        -9.5682
  28   2.0000      -0.335840        -9.1387
  29   2.0000      -0.330616        -8.9965
  30   2.0000      -0.326919        -8.8959
  31   2.0000      -0.324263        -8.8237
  32   2.0000      -0.310312        -8.4440
  33   2.0000      -0.303330        -8.2540
  34   2.0000      -0.265791        -7.2325
  35   2.0000      -0.262760        -7.1501
  36   2.0000      -0.258796        -7.0422
  37   2.0000      -0.258294        -7.0285
  38   2.0000      -0.222822        -6.0633
  39   0.0000      -0.023361        -0.6357
  40   0.0000       0.030353         0.8259
  41   0.0000       0.046885         1.2758
  42   0.0000       0.068997         1.8775
  43   0.0000       0.075661         2.0588

MULLIKEN ATOMIC CHARGES
-----------------------
   0 C :   -0.109208
   1 O :   -0.243507
   2 C :    0.136087
   3 O :   -0.184451
   4 C :   -0.215255
   5 C :   -0.099699
   6 C :   -0.159460
   7 C :   -0.161764
   8 C :   -0.175321
   9 C :   -0.099409
  10 H :    0.117744
  11 H :    0.119991
  12 H :    0.115891
  13 H :    0.095813
  14 H :    0.100457
  15 H :    0.077070
  16 H :    0.087010
  17 H :    0.072651
  18 H :    0.095912
  19 H :    0.083122
  20 H :    0.085349
  21 H :    0.082820
  22 H :    0.097489
  23 H :    0.080669
Sum of atomic charges:   -0.0000000

LOEWDIN ATOMIC CHARGES
----------------------
   0 C :   -0.206705
   1 O :   -0.075104
   2 C :    0.045093
   3 O :   -0.147247
   4 C :   -0.168446
   5 C :   -0.221099
   6 C :   -0.224230
   7 C :   -0.236122
   8 C :   -0.231715
   9 C :   -0.215203
  10 H :    0.118112
  11 H :    0.119344
  12 H :    0.117258
  13 H :    0.139548
  14 H :    0.126716
  15 H :    0.117315
  16 H :    0.119069
  17 H :    0.110893
  18 H :    0.121270
  19 H :    0.116454
  20 H :    0.116356
  21 H :    0.118105
  22 H :    0.121689
  23 H :    0.118650

  Mayer bond orders larger than 0.100000
B(  0-C ,  1-O ) :   0.9503 B(  0-C , 10-H ) :   0.9518 B(  0-C , 11-H ) :   0.9588
B(  0-C , 12-H ) :   0.9513 B(  1-O ,  2-C ) :   1.1939 B(  2-C ,  3-O ) :   2.0550
B(  2-C ,  4-C ) :   0.9432 B(  4-C ,  5-C ) :   1.0793 B(  4-C ,  9-C ) :   1.1323
B(  4-C , 13-H ) :   0.8647 B(  5-C ,  6-C ) :   1.1584 B(  5-C , 14-H ) :   0.9006
B(  5-C , 15-H ) :   0.9106 B(  6-C ,  7-C ) :   1.1828 B(  6-C , 16-H ) :   0.9205
B(  6-C , 17-H ) :   0.9062 B(  7-C ,  8-C ) :   1.1435 B(  7-C , 18-H ) :   0.9034
B(  7-C , 19-H ) :   0.9219 B(  8-C ,  9-C ) :   1.1507 B(  8-C , 20-H ) :   0.9155
B(  8-C , 21-H ) :   0.9169 B(  9-C , 22-H ) :   0.9119 B(  9-C , 23-H ) :   0.8985

Dispersion correction           -0.023961082
FINAL SINGLE POINT ENERGY      -462.698670672893

DIPOLE MOMENT
-------------

Method             : SCF
Type of density    : Electron Density
Multiplicity       :   1
Irrep              :   0
Energy             :  -462.7867903587589353 Eh
Relativity type    :
Basis              : AO
                                X                 Y                 Z
Electronic contribution:     -5.861905078      -1.770902690       0.059411460
Nuclear contribution   :      5.665737765       2.223533684      -0.479064383
                        -----------------------------------------
Total Dipole Moment    :     -0.196167312       0.452630994      -0.419652923
                        -----------------------------------------
Magnitude (a.u.)       :      0.647661182
Magnitude (Debye)      :      1.646223898

Rotational constants in cm-1:             0.079167             0.032104             0.029574
Rotational constants in MHz :          2373.373804           962.454439           886.606727

                             ****ORCA TERMINATED NORMALLY****
TOTAL RUN TIME: 0 days 0 hours 0 minutes 8 seconds 471 msec
