                         Program Version 6.0.1  -  RELEASE   -
|  1> ! pbe def2-sv(p) def2/J RI DEFGRID1 loosescf d4 GCP(DFT/SV(P)) printgap
|  2> %output
|  3>     printlevel normal
|  4> end
|  5> * xyz 0 1
|  6> C -2.2534116722 -0.9958125608 -0.3315000017
|  7> C -1.1434290507 -0.229110639 0.4023341596
|  8> H -1.5699309521 0.1931444414 1.3249161905
|  9> C -0.5637063181 0.900294539 -0.452281458
| 10> H -0.4009625693 0.5581208569 -1.4794959487
| 11> C 0.784190678 1.3396129073 0.1429954159
| 12> H 0.6278415528 1.5928346434 1.21116033
| 13> C 1.7903849754 0.1779709378 0.0587501769
| 14> H 2.3303735487 0.2537378974 -0.8888251684
| 15> C 1.041860731 -1.1767766066 0.0768552213
| 16> H 1.6741281237 -1.9088116946 0.6037598203
| 17> O -0.1341805814 -1.1369661463 0.8485201142
| 18> O 0.803319694 -1.5668459338 -1.2386048826
| 19> O 2.763294238 0.2251555171 1.0608955488
| 20> O 1.2796509481 2.4611698263 -0.5317384263
| 21> O -1.4400010729 1.9934618143 -0.5589805305
| 22> O -2.8429174202 -1.9578074826 0.5007145313
| 23> H -1.8339510573 -1.4612637797 -1.2349632751
| 24> H -3.0415875119 -0.300753812 -0.6279203439
| 25> H 0.4538089072 -2.4666240765 -1.2537159287
| 26> H 2.3338374689 0.2540073388 1.9248048697
| 27> H 0.5245330943 2.9325152834 -0.9133260553
| 28> H -1.6799236123 2.3005553568 0.3249815269
| 29> H -2.1300256025 -2.42865257 0.9515111231
| 30> *
| 31>
| 32>                          ****END OF INPUT****

CARTESIAN COORDINATES (ANGSTROEM)
---------------------------------
  C     -2.253412   -0.995813   -0.331500
  C     -1.143429   -0.229111    0.402334
  H     -1.569931    0.193144    1.324916
  C     -0.563706    0.900295   -0.452281
  H     -0.400963    0.558121   -1.479496
  C      0.784191    1.339613    0.142995
  H      0.627842    1.592835    1.211160
  C      1.790385    0.177971    0.058750
  H      2.330374    0.253738   -0.888825
  C      1.041861   -1.176777    0.076855
  H      1.674128   -1.908812    0.603760
  O     -0.134181   -1.136966    0.848520
  O      0.803320   -1.566846   -1.238605
  O      2.763294    0.225156    1.060896
  O      1.279651    2.461170   -0.531738
  O     -1.440001    1.993462   -0.558981
  O     -2.842917   -1.957807    0.500715
  H     -1.833951   -1.461264   -1.234963
  H     -3.041588   -0.300754   -0.627920
  H      0.453809   -2.466624   -1.253716
  H      2.333837    0.254007    1.924805
  H      0.524533    2.932515   -0.913326
  H     -1.679924    2.300555    0.324982
  H     -2.130026   -2.428653    0.951511

 Total Charge           Charge          ....    0
 Multiplicity           Mult            ....    1
 Number of Electrons    NEL             ....   96
 Basis Dimension        Dim             ....  192

ORBITAL ENERGIES
----------------

  NO   OCC          E(Eh)            E(eV)
   0   2.0000     -18.787297      -511.2283
   1   2.0000     -18.779271      -511.0099
   2   2.0000     -18.777344      -510.9575
   3   2.0000     -18.753568      -510.3105
   4   2.0000     -18.747219      -510.1378
   5   2.0000     -18.747085      -510.1341
   6   2.0000      -9.994162      -271.9550
   7   2.0000      -9.955900      -270.9138
   8   2.0000      -9.954098      -270.8648
   9   2.0000      -9.948283      -270.7066
  10   2.0000      -9.944048      -270.5913
  11   2.0000      -9.934374      -270.3281
  12   2.0000      -0.996626       -27.1196
  13   2.0000      -0.962542       -26.1921
  14   2.0000      -0.938235       -25.5307
  15   2.0000      -0.934053       -25.4169
  16   2.0000      -0.920548       -25.0494
  17   2.0000      -0.918999       -25.0072
  18   2.0000      -0.713858       -19.4251
  19   2.0000      -0.696935       -18.9646
  20   2.0000      -0.624009       -16.9801
  21   2.0000      -0.600677       -16.3453
  22   2.0000      -0.572763       -15.5857
  23   2.0000      -0.541284       -14.7291
  24   2.0000      -0.513222       -13.9655
  25   2.0000      -0.495567       -13.4851
  26   2.0000      -0.484653       -13.1881
  27   2.0000      -0.456920       -12.4334
  28   2.0000      -0.453726       -12.3465
  29   2.0000      -0.440171       -11.9777
  30   2.0000      -0.416358       -11.3297
  31   2.0000      -0.404479       -11.0064
  32   2.0000      -0.390717       -10.6319
  33   2.0000      -0.388875       -10.5818
  34   2.0000      -0.366067        -9.9612
  35   2.0000      -0.363774        -9.8988
  36   2.0000      -0.349011        -9.4971
  37   2.0000      -0.316540        -8.6135
  38   2.0000      -0.309227        -8.4145
  39   2.0000      -0.296202        -8.0601
  40   2.0000      -0.288600        -7.8532
  41   2.0000      -0.283281        -7.7085
  42   2.0000      -0.268592        -7.3087
  43   2.0000      -0.251764        -6.8508
  44   2.0000      -0.243013        -6.6127
  45   2.0000      -0.229322        -6.2402
  46   2.0000      -0.217008        -5.9051
  47   2.0000      -0.208268        -5.6673
  48   0.0000       0.005003         0.1361
  49   0.0000       0.010932         0.2975
  50   0.0000       0.021589         0.5875
  51   0.0000       0.048230         1.3124
  52   0.0000       0.054698         1.4884

MULLIKEN ATOMIC CHARGES
-----------------------
   0 C :    0.093555
   1 C :    0.010179
   2 H :    0.055621
   3 C :   -0.001062
   4 H :    0.091221
   5 C :    0.053654
   6 H :    0.018349
   7 C :    0.126880
   8 H :    0.088866
   9 C :    0.115170
  10 H :    0.071075
  11 O :   -0.331426
  12 O :   -0.385588
  13 O :   -0.409981
  14 O :   -0.400989
  15 O :   -0.408499
  16 O :   -0.431267
  17 H :    0.059837
  18 H :    0.086905
  19 H :    0.307411
  20 H :    0.295628
  21 H :    0.298830
  22 H :    0.302344
  23 H :    0.293286
Sum of atomic charges:    0.0000000

LOEWDIN ATOMIC CHARGES
----------------------
   0 C :   -0.132752
   1 C :   -0.078425
   2 H :    0.108764
   3 C :   -0.091110
   4 H :    0.127051
   5 C :   -0.074811
   6 H :    0.089659
   7 C :   -0.072135
   8 H :    0.133089
   9 C :   -0.014605
  10 H :    0.100642
  11 O :   -0.156708
  12 O :   -0.302998
  13 O :   -0.302859
  14 O :   -0.315886
  15 O :   -0.300408
  16 O :   -0.337433
  17 H :    0.093969
  18 H :    0.117707
  19 H :    0.287518
  20 H :    0.281285
  21 H :    0.277934
  22 H :    0.286755
  23 H :    0.275757

  Mayer bond orders larger than 0.100000
B(  0-C ,  1-C ) :   1.0700 B(  0-C , 16-O ) :   1.0765 B(  0-C , 17-H ) :   0.8979
B(  0-C , 18-H ) :   0.9116 B(  1-C ,  2-H ) :   0.8736 B(  1-C ,  3-C ) :   0.9646
B(  1-C , 11-O ) :   0.9579 B(  3-C ,  4-H ) :   0.8634 B(  3-C ,  5-C ) :   1.0463
B(  3-C , 15-O ) :   1.0056 B(  5-C ,  6-H ) :   0.8431 B(  5-C ,  7-C ) :   1.0017
B(  5-C , 14-O ) :   1.1276 B(  7-C ,  8-H ) :   0.8617 B(  7-C ,  9-C ) :   0.9875
B(  7-C , 13-O ) :   1.0472 B(  9-C , 10-H ) :   0.8974 B(  9-C , 11-O ) :   1.0499
B(  9-C , 12-O ) :   1.0974 B( 12-O , 19-H ) :   0.8321 B( 13-O , 20-H ) :   0.8500
B( 14-O , 21-H ) :   0.8239 B( 15-O , 22-H ) :   0.8441 B( 16-O , 23-H ) :   0.8415

Dispersion correction           -0.024567429
FINAL SINGLE POINT ENERGY      -685.691051211298

DIPOLE MOMENT
-------------

Method             : SCF
Type of density    : Electron Density
Multiplicity       :   1
Irrep              :   0
Energy             :  -685.8224482723172741 Eh
Relativity type    :
Basis              : AO
                                X                 Y                 Z
Electronic contribution:      2.102994826       0.150064165       0.596246997
Nuclear contribution   :     -2.537826839      -0.451169043      -0.052384473
                        -----------------------------------------
Total Dipole Moment    :     -0.434832013      -0.301104878       0.543862524
                        -----------------------------------------
Magnitude (a.u.)       :      0.758636588
Magnitude (Debye)      :      1.928300961

Rotational constants in cm-1:             0.042370             0.025916             0.019067
Rotational constants in MHz :          1270.219465           776.951482           571.617565

                             ****ORCA TERMINATED NORMALLY****
TOTAL RUN TIME: 0 days 0 hours 0 minutes 14 seconds 430 msec
