                         Program Version 6.0.1  -  RELEASE   -
|  1> ! pbe def2-sv(p) def2/J RI DEFGRID1 loosescf d4 GCP(DFT/SV(P)) printgap
|  2> %output
|  3>     printlevel normal
|  4> end
|  5> * xyz 0 1
|  6> C 2.8468337036 0.7111515751 -0.0487449168
|  7> C 1.9328003202 -0.5021357956 0.0470775907
|  8> C 0.4574018215 -0.2103281659 0.017216567
|  9> C -0.0790872039 1.0624461133 -0.1515871014
| 10> C -1.4562541502 1.2128825924 -0.1655787076
| 11> C -2.2583204446 0.0945584714 -0.0121283138
| 12> C -1.6297185174 -1.1306881039 0.1495123946
| 13> N -0.319703576 -1.2797802938 0.164403158
| 14> H 2.7010352686 1.2368607125 -0.9899058618
| 15> H 3.8852869986 0.3917162421 0.0015464329
| 16> H 2.6648614141 1.4014033866 0.7722526198
| 17> H 2.1386276381 -1.0489114059 0.9708428195
| 18> H 2.1472561889 -1.1911292096 -0.7744545127
| 19> H 0.5584730525 1.9233697165 -0.2700830885
| 20> H -1.8958290018 2.192140005 -0.294822693
| 21> H -3.3345583382 0.169595191 -0.0172891224
| 22> H -2.2016196199 -2.0417658914 0.2743518338
| 23> *
| 24>
| 25>                          ****END OF INPUT****

CARTESIAN COORDINATES (ANGSTROEM)
---------------------------------
  C      2.846834    0.711152   -0.048745
  C      1.932800   -0.502136    0.047078
  C      0.457402   -0.210328    0.017217
  C     -0.079087    1.062446   -0.151587
  C     -1.456254    1.212883   -0.165579
  C     -2.258320    0.094558   -0.012128
  C     -1.629719   -1.130688    0.149512
  N     -0.319704   -1.279780    0.164403
  H      2.701035    1.236861   -0.989906
  H      3.885287    0.391716    0.001546
  H      2.664861    1.401403    0.772253
  H      2.138628   -1.048911    0.970843
  H      2.147256   -1.191129   -0.774455
  H      0.558473    1.923370   -0.270083
  H     -1.895829    2.192140   -0.294823
  H     -3.334558    0.169595   -0.017289
  H     -2.201620   -2.041766    0.274352

 Total Charge           Charge          ....    0
 Multiplicity           Mult            ....    1
 Number of Electrons    NEL             ....   58
 Basis Dimension        Dim             ....  130

ORBITAL ENERGIES
----------------

  NO   OCC          E(Eh)            E(eV)
   0   2.0000     -13.973514      -380.2386
   1   2.0000      -9.929614      -270.1985
   2   2.0000      -9.917854      -269.8785
   3   2.0000      -9.907700      -269.6022
   4   2.0000      -9.897958      -269.3371
   5   2.0000      -9.896854      -269.3071
   6   2.0000      -9.887999      -269.0661
   7   2.0000      -9.880537      -268.8631
   8   2.0000      -0.856557       -23.3081
   9   2.0000      -0.722519       -19.6607
  10   2.0000      -0.717190       -19.5157
  11   2.0000      -0.659368       -17.9423
  12   2.0000      -0.585871       -15.9424
  13   2.0000      -0.558637       -15.2013
  14   2.0000      -0.526901       -14.3377
  15   2.0000      -0.464421       -12.6376
  16   2.0000      -0.437356       -11.9011
  17   2.0000      -0.410892       -11.1809
  18   2.0000      -0.405155       -11.0248
  19   2.0000      -0.388920       -10.5830
  20   2.0000      -0.356638        -9.7046
  21   2.0000      -0.355948        -9.6858
  22   2.0000      -0.341955        -9.3051
  23   2.0000      -0.314585        -8.5603
  24   2.0000      -0.310141        -8.4394
  25   2.0000      -0.304879        -8.2962
  26   2.0000      -0.257722        -7.0130
  27   2.0000      -0.230626        -6.2756
  28   2.0000      -0.199616        -5.4318
  29   0.0000      -0.052886        -1.4391
  30   0.0000      -0.038804        -1.0559
  31   0.0000       0.043971         1.1965
  32   0.0000       0.053200         1.4477
  33   0.0000       0.077633         2.1125

MULLIKEN ATOMIC CHARGES
-----------------------
   0 C :   -0.284513
   1 C :   -0.109315
   2 C :   -0.055911
   3 C :   -0.109748
   4 C :   -0.002048
   5 C :   -0.071203
   6 C :   -0.058464
   7 N :   -0.075145
   8 H :    0.106998
   9 H :    0.107394
  10 H :    0.106881
  11 H :    0.101618
  12 H :    0.103326
  13 H :    0.049949
  14 H :    0.062301
  15 H :    0.061076
  16 H :    0.066805
Sum of atomic charges:   -0.0000000

LOEWDIN ATOMIC CHARGES
----------------------
   0 C :   -0.344219
   1 C :   -0.229701
   2 C :   -0.006234
   3 C :   -0.146023
   4 C :   -0.096799
   5 C :   -0.150140
   6 C :   -0.078489
   7 N :   -0.075798
   8 H :    0.119249
   9 H :    0.124324
  10 H :    0.119703
  11 H :    0.134744
  12 H :    0.135354
  13 H :    0.127205
  14 H :    0.126613
  15 H :    0.127183
  16 H :    0.113028

  Mayer bond orders larger than 0.100000
B(  0-C ,  1-C ) :   1.1878 B(  0-C ,  8-H ) :   0.9423 B(  0-C ,  9-H ) :   0.9469
B(  0-C , 10-H ) :   0.9452 B(  1-C ,  2-C ) :   1.0505 B(  1-C , 11-H ) :   0.8993
B(  1-C , 12-H ) :   0.8971 B(  2-C ,  3-C ) :   1.4224 B(  2-C ,  7-N ) :   1.4872
B(  3-C ,  4-C ) :   1.3899 B(  3-C , 13-H ) :   0.9353 B(  4-C ,  5-C ) :   1.4247
B(  4-C , 14-H ) :   0.9538 B(  5-C ,  6-C ) :   1.3616 B(  5-C , 15-H ) :   0.9494
B(  6-C ,  7-N ) :   1.5587 B(  6-C , 16-H ) :   0.9512

Dispersion correction           -0.016154874
FINAL SINGLE POINT ENERGY      -326.179130838962

DIPOLE MOMENT
-------------

Method             : SCF
Type of density    : Electron Density
Multiplicity       :   1
Irrep              :   0
Energy             :  -326.2286920375330510 Eh
Relativity type    :
Basis              : AO
                                X                 Y                 Z
Electronic contribution:     -6.355590074      -2.229723919       0.220693351
Nuclear contribution   :      6.249764598       2.838709633      -0.306406537
                        -----------------------------------------
Total Dipole Moment    :     -0.105825475       0.608985715      -0.085713186
                        -----------------------------------------
Magnitude (a.u.)       :      0.624026748
Magnitude (Debye)      :      1.586149940

Rotational constants in cm-1:             0.166361             0.051288             0.039787
Rotational constants in MHz :          4987.362595          1537.586768          1192.779388

                             ****ORCA TERMINATED NORMALLY****
TOTAL RUN TIME: 0 days 0 hours 0 minutes 5 seconds 316 msec
