                         Program Version 6.0.1  -  RELEASE   -
|  1> ! pbe def2-sv(p) def2/J RI DEFGRID1 loosescf d4 GCP(DFT/SV(P)) printgap
|  2> %output
|  3>     printlevel normal
|  4> end
|  5> * xyz 0 1
|  6> C -2.987298032 1.2318201424 0.0004257515
|  7> C -1.7550577729 0.3766681927 -9.88187e-05
|  8> C -1.8324832356 -1.0047233047 -0.0005826431
|  9> C -0.6839184121 -1.7801250641 -0.0003570146
| 10> C 0.5616498495 -1.1805442811 0.0001106165
| 11> C 0.6518849989 0.2217029707 0.0001165808
| 12> C -0.5002950958 0.9834327299 0.0002214352
| 13> O 1.9412614893 0.7131993392 -0.0001530837
| 14> C 2.1177962384 2.1061200707 -0.0003161462
| 15> O 1.6894516966 -1.9420757831 0.0005121482
| 16> H -3.8835215954 0.6175077491 -0.0039725149
| 17> H -3.0087619046 1.8699177117 0.8832677925
| 18> H -3.0048323276 1.8770731965 -0.8772495317
| 19> H -2.7972836737 -1.489139935 -0.0011863682
| 20> H -0.7369679999 -2.8568272823 -0.000580463
| 21> H -0.446144768 2.0613362951 0.0004558652
| 22> H 3.1948352911 2.2678874439 -0.0017199684
| 23> H 1.6838349753 2.5646418571 0.8938895621
| 24> H 1.6814159966 2.5648901923 -0.893290091
| 25> H 2.4480242086 -1.3429778397 0.0004088646
| 26> *
| 27>
| 28>                          ****END OF INPUT****

CARTESIAN COORDINATES (ANGSTROEM)
---------------------------------
  C     -2.987298    1.231820    0.000426
  C     -1.755058    0.376668   -0.000099
  C     -1.832483   -1.004723   -0.000583
  C     -0.683918   -1.780125   -0.000357
  C      0.561650   -1.180544    0.000111
  C      0.651885    0.221703    0.000117
  C     -0.500295    0.983433    0.000221
  O      1.941261    0.713199   -0.000153
  C      2.117796    2.106120   -0.000316
  O      1.689452   -1.942076    0.000512
  H     -3.883522    0.617508   -0.003973
  H     -3.008762    1.869918    0.883268
  H     -3.004832    1.877073   -0.877250
  H     -2.797284   -1.489140   -0.001186
  H     -0.736968   -2.856827   -0.000580
  H     -0.446145    2.061336    0.000456
  H      3.194835    2.267887   -0.001720
  H      1.683835    2.564642    0.893890
  H      1.681416    2.564890   -0.893290
  H      2.448024   -1.342978    0.000409

 Total Charge           Charge          ....    0
 Multiplicity           Mult            ....    1
 Number of Electrons    NEL             ....   74
 Basis Dimension        Dim             ....  160

ORBITAL ENERGIES
----------------

  NO   OCC          E(Eh)            E(eV)
   0   2.0000     -18.797887      -511.5165
   1   2.0000     -18.770381      -510.7680
   2   2.0000      -9.947938      -270.6971
   3   2.0000      -9.946976      -270.6710
   4   2.0000      -9.942133      -270.5392
   5   2.0000      -9.891123      -269.1511
   6   2.0000      -9.886306      -269.0201
   7   2.0000      -9.879501      -268.8349
   8   2.0000      -9.878854      -268.8173
   9   2.0000      -9.878589      -268.8101
  10   2.0000      -0.981035       -26.6953
  11   2.0000      -0.947770       -25.7901
  12   2.0000      -0.769508       -20.9394
  13   2.0000      -0.692414       -18.8415
  14   2.0000      -0.675764       -18.3885
  15   2.0000      -0.636787       -17.3279
  16   2.0000      -0.603565       -16.4238
  17   2.0000      -0.544015       -14.8034
  18   2.0000      -0.525406       -14.2970
  19   2.0000      -0.499743       -13.5987
  20   2.0000      -0.466615       -12.6972
  21   2.0000      -0.434745       -11.8300
  22   2.0000      -0.427913       -11.6441
  23   2.0000      -0.397809       -10.8249
  24   2.0000      -0.394838       -10.7441
  25   2.0000      -0.377039       -10.2598
  26   2.0000      -0.374735       -10.1970
  27   2.0000      -0.355149        -9.6641
  28   2.0000      -0.348755        -9.4901
  29   2.0000      -0.327078        -8.9002
  30   2.0000      -0.320775        -8.7287
  31   2.0000      -0.295891        -8.0516
  32   2.0000      -0.294187        -8.0052
  33   2.0000      -0.289568        -7.8796
  34   2.0000      -0.271825        -7.3967
  35   2.0000      -0.207853        -5.6560
  36   2.0000      -0.173590        -4.7236
  37   0.0000      -0.022180        -0.6035
  38   0.0000      -0.008603        -0.2341
  39   0.0000       0.036074         0.9816
  40   0.0000       0.041138         1.1194
  41   0.0000       0.063594         1.7305

MULLIKEN ATOMIC CHARGES
-----------------------
   0 C :   -0.224483
   1 C :    0.077019
   2 C :   -0.115500
   3 C :   -0.163466
   4 C :    0.173078
   5 C :    0.226703
   6 C :   -0.294777
   7 O :   -0.310321
   8 C :   -0.110623
   9 O :   -0.331388
  10 H :    0.099021
  11 H :    0.108810
  12 H :    0.108648
  13 H :    0.031541
  14 H :    0.039554
  15 H :    0.019462
  16 H :    0.124282
  17 H :    0.113084
  18 H :    0.113128
  19 H :    0.316224
Sum of atomic charges:   -0.0000000

LOEWDIN ATOMIC CHARGES
----------------------
   0 C :   -0.322053
   1 C :   -0.064147
   2 C :   -0.136373
   3 C :   -0.148695
   4 C :    0.004884
   5 C :   -0.000862
   6 C :   -0.170212
   7 O :   -0.110572
   8 C :   -0.202248
   9 O :   -0.237496
  10 H :    0.123432
  11 H :    0.127417
  12 H :    0.127334
  13 H :    0.120453
  14 H :    0.131018
  15 H :    0.123535
  16 H :    0.121570
  17 H :    0.110408
  18 H :    0.110412
  19 H :    0.292194

  Mayer bond orders larger than 0.100000
B(  0-C ,  1-C ) :   1.0945 B(  0-C , 10-H ) :   0.9462 B(  0-C , 11-H ) :   0.9378
B(  0-C , 12-H ) :   0.9379 B(  1-C ,  2-C ) :   1.4136 B(  1-C ,  6-C ) :   1.2978
B(  2-C ,  3-C ) :   1.3040 B(  2-C , 13-H ) :   0.9644 B(  3-C ,  4-C ) :   1.4003
B(  3-C , 14-H ) :   0.9705 B(  4-C ,  5-C ) :   1.2770 B(  4-C ,  9-O ) :   1.2478
B(  5-C ,  6-C ) :   1.3016 B(  5-C ,  7-O ) :   1.0811 B(  6-C , 15-H ) :   0.9693
B(  7-O ,  8-C ) :   0.9876 B(  8-C , 16-H ) :   0.9581 B(  8-C , 17-H ) :   0.9418
B(  8-C , 18-H ) :   0.9417 B(  9-O , 19-H ) :   0.8234

Dispersion correction           -0.020108113
FINAL SINGLE POINT ENERGY      -460.311135776510

DIPOLE MOMENT
-------------

Method             : SCF
Type of density    : Electron Density
Multiplicity       :   1
Irrep              :   0
Energy             :  -460.3797101209640914 Eh
Relativity type    :
Basis              : AO
                                X                 Y                 Z
Electronic contribution:      4.835595516      -6.583372809       0.000071844
Nuclear contribution   :     -4.514530137       7.613154121       0.000027036
                        -----------------------------------------
Total Dipole Moment    :      0.321065379       1.029781312       0.000098880
                        -----------------------------------------
Magnitude (a.u.)       :      1.078671654
Magnitude (Debye)      :      2.741765454

Rotational constants in cm-1:             0.063265             0.039283             0.024458
Rotational constants in MHz :          1896.635058          1177.675457           733.230714

                             ****ORCA TERMINATED NORMALLY****
TOTAL RUN TIME: 0 days 0 hours 0 minutes 6 seconds 6 msec
