                         Program Version 6.0.1  -  RELEASE   -
|  1> ! pbe def2-sv(p) def2/J RI DEFGRID1 loosescf d4 GCP(DFT/SV(P)) printgap
|  2> %output
|  3>     printlevel normal
|  4> end
|  5> * xyz 0 1
|  6> C -2.2440322615 -1.0082790329 -0.3532684513
|  7> C -1.1702797383 -0.2075510176 0.3944143363
|  8> H -1.6311313465 0.235638963 1.2875382922
|  9> C -0.5731062353 0.9104095459 -0.4753356771
| 10> H -0.3917229537 0.5303703599 -1.4881544217
| 11> C 0.7643232737 1.3267642009 0.1657828401
| 12> H 0.6035755492 1.4988271105 1.2402538866
| 13> C 1.7614482772 0.1670068967 -0.0089197113
| 14> H 2.1803269963 0.1913694506 -1.0208951017
| 15> C 1.0142549218 -1.1837958202 0.1400345816
| 16> H 1.6503835394 -1.869515675 0.7225174804
| 17> O -0.1595589479 -1.0848141383 0.9029120886
| 18> O 0.7812627594 -1.6795423915 -1.1422550951
| 19> O 2.8591177294 0.255688629 0.8524062066
| 20> O 1.2369137126 2.5490723748 -0.320374067
| 21> O -1.4575602983 1.9845894282 -0.6236686832
| 22> O -2.8239362336 -1.9809724602 0.4752134154
| 23> H -1.7984077962 -1.4715109032 -1.2455548796
| 24> H -3.0406992964 -0.3320594414 -0.6688078004
| 25> H 0.3955764975 -2.5627603138 -1.0842414592
| 26> H 2.5502009002 0.3652716529 1.7598216573
| 27> H 1.3761514707 2.4838627881 -1.2724919993
| 28> H -1.3765995288 2.5722561606 0.1376342869
| 29> H -2.1110019261 -2.3948248962 0.9789024201
| 30> *
| 31>
| 32>                          ****END OF INPUT****

CARTESIAN COORDINATES (ANGSTROEM)
---------------------------------
  C     -2.244032   -1.008279   -0.353268
  C     -1.170280   -0.207551    0.394414
  H     -1.631131    0.235639    1.287538
  C     -0.573106    0.910410   -0.475336
  H     -0.391723    0.530370   -1.488154
  C      0.764323    1.326764    0.165783
  H      0.603576    1.498827    1.240254
  C      1.761448    0.167007   -0.008920
  H      2.180327    0.191369   -1.020895
  C      1.014255   -1.183796    0.140035
  H      1.650384   -1.869516    0.722517
  O     -0.159559   -1.084814    0.902912
  O      0.781263   -1.679542   -1.142255
  O      2.859118    0.255689    0.852406
  O      1.236914    2.549072   -0.320374
  O     -1.457560    1.984589   -0.623669
  O     -2.823936   -1.980972    0.475213
  H     -1.798408   -1.471511   -1.245555
  H     -3.040699   -0.332059   -0.668808
  H      0.395576   -2.562760   -1.084241
  H      2.550201    0.365272    1.759822
  H      1.376151    2.483863   -1.272492
  H     -1.376600    2.572256    0.137634
  H     -2.111002   -2.394825    0.978902

 Total Charge           Charge          ....    0
 Multiplicity           Mult            ....    1
 Number of Electrons    NEL             ....   96
 Basis Dimension        Dim             ....  192

ORBITAL ENERGIES
----------------

  NO   OCC          E(Eh)            E(eV)
   0   2.0000     -18.785307      -511.1742
   1   2.0000     -18.777486      -510.9614
   2   2.0000     -18.759424      -510.4699
   3   2.0000     -18.758733      -510.4511
   4   2.0000     -18.758545      -510.4460
   5   2.0000     -18.742301      -510.0039
   6   2.0000      -9.995302      -271.9860
   7   2.0000      -9.953604      -270.8513
   8   2.0000      -9.949961      -270.7522
   9   2.0000      -9.948393      -270.7095
  10   2.0000      -9.947984      -270.6984
  11   2.0000      -9.927930      -270.1527
  12   2.0000      -0.995531       -27.0898
  13   2.0000      -0.954561       -25.9749
  14   2.0000      -0.940016       -25.5791
  15   2.0000      -0.931340       -25.3431
  16   2.0000      -0.924821       -25.1657
  17   2.0000      -0.915462       -24.9110
  18   2.0000      -0.711763       -19.3680
  19   2.0000      -0.697575       -18.9820
  20   2.0000      -0.623999       -16.9799
  21   2.0000      -0.593658       -16.1543
  22   2.0000      -0.578390       -15.7388
  23   2.0000      -0.542046       -14.7498
  24   2.0000      -0.511368       -13.9150
  25   2.0000      -0.502039       -13.6612
  26   2.0000      -0.472924       -12.8689
  27   2.0000      -0.458066       -12.4646
  28   2.0000      -0.447943       -12.1891
  29   2.0000      -0.436463       -11.8768
  30   2.0000      -0.422270       -11.4905
  31   2.0000      -0.403071       -10.9681
  32   2.0000      -0.390214       -10.6183
  33   2.0000      -0.385825       -10.4988
  34   2.0000      -0.364493        -9.9184
  35   2.0000      -0.358519        -9.7558
  36   2.0000      -0.339560        -9.2399
  37   2.0000      -0.327425        -8.9097
  38   2.0000      -0.302219        -8.2238
  39   2.0000      -0.297065        -8.0836
  40   2.0000      -0.288985        -7.8637
  41   2.0000      -0.281465        -7.6591
  42   2.0000      -0.266994        -7.2653
  43   2.0000      -0.249618        -6.7925
  44   2.0000      -0.242893        -6.6095
  45   2.0000      -0.225430        -6.1343
  46   2.0000      -0.216544        -5.8925
  47   2.0000      -0.205933        -5.6037
  48   0.0000       0.009465         0.2576
  49   0.0000       0.019421         0.5285
  50   0.0000       0.023933         0.6513
  51   0.0000       0.033594         0.9141
  52   0.0000       0.049190         1.3385

MULLIKEN ATOMIC CHARGES
-----------------------
   0 C :    0.082746
   1 C :    0.030439
   2 H :    0.059912
   3 C :    0.000215
   4 H :    0.073537
   5 C :    0.038025
   6 H :    0.041797
   7 C :    0.087111
   8 H :    0.072287
   9 C :    0.149089
  10 H :    0.068091
  11 O :   -0.332029
  12 O :   -0.391353
  13 O :   -0.405301
  14 O :   -0.396929
  15 O :   -0.397196
  16 O :   -0.433637
  17 H :    0.057956
  18 H :    0.092516
  19 H :    0.307622
  20 H :    0.299580
  21 H :    0.302490
  22 H :    0.302039
  23 H :    0.290993
Sum of atomic charges:   -0.0000000

LOEWDIN ATOMIC CHARGES
----------------------
   0 C :   -0.134252
   1 C :   -0.077369
   2 H :    0.112334
   3 C :   -0.088530
   4 H :    0.116251
   5 C :   -0.085548
   6 H :    0.108865
   7 C :   -0.083142
   8 H :    0.122817
   9 C :   -0.012778
  10 H :    0.099835
  11 O :   -0.155979
  12 O :   -0.305739
  13 O :   -0.303201
  14 O :   -0.303079
  15 O :   -0.303455
  16 O :   -0.339599
  17 H :    0.091623
  18 H :    0.120282
  19 H :    0.287105
  20 H :    0.284933
  21 H :    0.288659
  22 H :    0.286654
  23 H :    0.273314

  Mayer bond orders larger than 0.100000
B(  0-C ,  1-C ) :   1.0811 B(  0-C , 16-O ) :   1.0741 B(  0-C , 17-H ) :   0.8967
B(  0-C , 18-H ) :   0.9112 B(  1-C ,  2-H ) :   0.8750 B(  1-C ,  3-C ) :   0.9441
B(  1-C , 11-O ) :   0.9374 B(  3-C ,  4-H ) :   0.8756 B(  3-C ,  5-C ) :   1.0067
B(  3-C , 15-O ) :   1.0729 B(  5-C ,  6-H ) :   0.8454 B(  5-C ,  7-C ) :   1.0098
B(  5-C , 14-O ) :   1.0848 B(  7-C ,  8-H ) :   0.8704 B(  7-C ,  9-C ) :   0.9581
B(  7-C , 13-O ) :   1.0615 B(  9-C , 10-H ) :   0.8962 B(  9-C , 11-O ) :   1.0688
B(  9-C , 12-O ) :   1.0935 B( 12-O , 19-H ) :   0.8315 B( 13-O , 20-H ) :   0.8501
B( 14-O , 21-H ) :   0.8498 B( 15-O , 22-H ) :   0.8449 B( 16-O , 23-H ) :   0.8415

Dispersion correction           -0.024577809
FINAL SINGLE POINT ENERGY      -685.687457869556

DIPOLE MOMENT
-------------

Method             : SCF
Type of density    : Electron Density
Multiplicity       :   1
Irrep              :   0
Energy             :  -685.8181904909074547 Eh
Relativity type    :
Basis              : AO
                                X                 Y                 Z
Electronic contribution:      1.843997761       0.430496042       0.901166143
Nuclear contribution   :     -1.488368727      -0.705860066      -0.610936442
                        -----------------------------------------
Total Dipole Moment    :      0.355629033      -0.275364025       0.290229701
                        -----------------------------------------
Magnitude (a.u.)       :      0.535285564
Magnitude (Debye)      :      1.360587775

Rotational constants in cm-1:             0.042722             0.025882             0.018765
Rotational constants in MHz :          1280.772726           775.909040           562.554054

                             ****ORCA TERMINATED NORMALLY****
TOTAL RUN TIME: 0 days 0 hours 0 minutes 9 seconds 232 msec
