                         Program Version 6.0.1  -  RELEASE   -
|  1> ! pbe def2-sv(p) def2/J RI DEFGRID1 loosescf d4 GCP(DFT/SV(P)) printgap
|  2> %output
|  3>     printlevel normal
|  4> end
|  5> * xyz 0 1
|  6> C 3.7196422108 -0.3295202084 -0.1504958252
|  7> C 2.2778959382 -0.2040112833 0.333905168
|  8> H 2.2860641551 -0.0261563366 1.4151916863
|  9> C 1.4893971487 -1.4834057615 0.058999504
| 10> C 0.0449799201 -1.3505877612 0.5349174295
| 11> C -0.6595998065 -0.190240478 -0.1716180877
| 12> H -0.5888484668 -0.3772293335 -1.2508357759
| 13> C 0.12311672 1.104402027 0.12092936
| 14> H 0.1002814903 1.300797677 1.1989463033
| 15> C 1.5763515158 0.971035191 -0.3433531865
| 16> O -0.4871250692 2.2397029775 -0.4555225356
| 17> C -2.1593973112 -0.0009336984 0.1832587753
| 18> C -3.0067100518 0.0061411129 -1.0903442125
| 19> C -2.7308482458 -1.0315491047 1.1553259666
| 20> H 3.7466832922 -0.5086773634 -1.2235177075
| 21> H 4.2745122519 0.5821102446 0.0589312292
| 22> H 4.2187710896 -1.1578538807 0.3471958325
| 23> H 1.5045360903 -1.6923651311 -1.0137262543
| 24> H 1.9643763019 -2.3252585132 0.5675128711
| 25> H -0.4829123531 -2.2832216852 0.3345162453
| 26> H 0.0432402161 -1.182934475 1.61310881
| 27> H 1.5898462123 0.8246107577 -1.4282679614
| 28> H 2.1026979871 1.9030534389 -0.1262624489
| 29> H -0.4788640379 2.1309122521 -1.4134011313
| 30> H -2.2594736269 0.9840128943 0.6515908268
| 31> H -4.0529488256 0.1805274228 -0.8487024499
| 32> H -2.930453788 -0.9505580957 -1.6047601096
| 33> H -2.6829623454 0.7934684893 -1.7672639836
| 34> H -2.1799311869 -1.0473648496 2.0911421599
| 35> H -2.7194189512 -2.0296044101 0.7238915034
| 36> H -3.7644034984 -0.7758431404 1.3798812897
| 37> *
| 38>
| 39>                          ****END OF INPUT****

CARTESIAN COORDINATES (ANGSTROEM)
---------------------------------
  C      3.719642   -0.329520   -0.150496
  C      2.277896   -0.204011    0.333905
  H      2.286064   -0.026156    1.415192
  C      1.489397   -1.483406    0.059000
  C      0.044980   -1.350588    0.534917
  C     -0.659600   -0.190240   -0.171618
  H     -0.588848   -0.377229   -1.250836
  C      0.123117    1.104402    0.120929
  H      0.100281    1.300798    1.198946
  C      1.576352    0.971035   -0.343353
  O     -0.487125    2.239703   -0.455523
  C     -2.159397   -0.000934    0.183259
  C     -3.006710    0.006141   -1.090344
  C     -2.730848   -1.031549    1.155326
  H      3.746683   -0.508677   -1.223518
  H      4.274512    0.582110    0.058931
  H      4.218771   -1.157854    0.347196
  H      1.504536   -1.692365   -1.013726
  H      1.964376   -2.325259    0.567513
  H     -0.482912   -2.283222    0.334516
  H      0.043240   -1.182934    1.613109
  H      1.589846    0.824611   -1.428268
  H      2.102698    1.903053   -0.126262
  H     -0.478864    2.130912   -1.413401
  H     -2.259474    0.984013    0.651591
  H     -4.052949    0.180527   -0.848702
  H     -2.930454   -0.950558   -1.604760
  H     -2.682962    0.793468   -1.767264
  H     -2.179931   -1.047365    2.091142
  H     -2.719419   -2.029604    0.723892
  H     -3.764403   -0.775843    1.379881

 Total Charge           Charge          ....    0
 Multiplicity           Mult            ....    1
 Number of Electrons    NEL             ....   88
 Basis Dimension        Dim             ....  194

ORBITAL ENERGIES
----------------

  NO   OCC          E(Eh)            E(eV)
   0   2.0000     -18.738975      -509.9134
   1   2.0000      -9.931088      -270.2386
   2   2.0000      -9.894296      -269.2375
   3   2.0000      -9.887735      -269.0590
   4   2.0000      -9.885551      -268.9995
   5   2.0000      -9.882399      -268.9137
   6   2.0000      -9.881848      -268.8988
   7   2.0000      -9.880005      -268.8486
   8   2.0000      -9.873083      -268.6602
   9   2.0000      -9.868880      -268.5459
  10   2.0000      -9.867724      -268.5144
  11   2.0000      -0.920081       -25.0367
  12   2.0000      -0.759436       -20.6653
  13   2.0000      -0.720412       -19.6034
  14   2.0000      -0.670571       -18.2472
  15   2.0000      -0.655322       -17.8322
  16   2.0000      -0.606860       -16.5135
  17   2.0000      -0.602340       -16.3905
  18   2.0000      -0.550101       -14.9690
  19   2.0000      -0.536385       -14.5958
  20   2.0000      -0.504584       -13.7304
  21   2.0000      -0.491946       -13.3865
  22   2.0000      -0.445957       -12.1351
  23   2.0000      -0.420427       -11.4404
  24   2.0000      -0.405772       -11.0416
  25   2.0000      -0.402405       -10.9500
  26   2.0000      -0.396467       -10.7884
  27   2.0000      -0.372516       -10.1367
  28   2.0000      -0.365826        -9.9546
  29   2.0000      -0.363064        -9.8795
  30   2.0000      -0.353816        -9.6278
  31   2.0000      -0.340695        -9.2708
  32   2.0000      -0.332900        -9.0587
  33   2.0000      -0.323982        -8.8160
  34   2.0000      -0.319152        -8.6846
  35   2.0000      -0.305075        -8.3015
  36   2.0000      -0.299577        -8.1519
  37   2.0000      -0.289257        -7.8711
  38   2.0000      -0.284361        -7.7378
  39   2.0000      -0.279603        -7.6084
  40   2.0000      -0.271626        -7.3913
  41   2.0000      -0.262557        -7.1445
  42   2.0000      -0.248358        -6.7582
  43   2.0000      -0.207515        -5.6468
  44   0.0000       0.025112         0.6833
  45   0.0000       0.035522         0.9666
  46   0.0000       0.041734         1.1357
  47   0.0000       0.046382         1.2621
  48   0.0000       0.073010         1.9867

MULLIKEN ATOMIC CHARGES
-----------------------
   0 C :   -0.197816
   1 C :   -0.211998
   2 H :    0.065044
   3 C :   -0.090153
   4 C :   -0.100218
   5 C :   -0.175625
   6 H :    0.041273
   7 C :    0.048757
   8 H :    0.059212
   9 C :   -0.082407
  10 O :   -0.412028
  11 C :   -0.098152
  12 C :   -0.261730
  13 C :   -0.219417
  14 H :    0.089185
  15 H :    0.096812
  16 H :    0.095785
  17 H :    0.064906
  18 H :    0.076645
  19 H :    0.080763
  20 H :    0.070372
  21 H :    0.048901
  22 H :    0.084222
  23 H :    0.293885
  24 H :    0.080072
  25 H :    0.095930
  26 H :    0.093344
  27 H :    0.083864
  28 H :    0.095243
  29 H :    0.087922
  30 H :    0.097406
Sum of atomic charges:   -0.0000000

LOEWDIN ATOMIC CHARGES
----------------------
   0 C :   -0.326587
   1 C :   -0.152767
   2 H :    0.115106
   3 C :   -0.214721
   4 C :   -0.215848
   5 C :   -0.148352
   6 H :    0.108496
   7 C :   -0.051116
   8 H :    0.110503
   9 C :   -0.226754
  10 O :   -0.315753
  11 C :   -0.150790
  12 C :   -0.327254
  13 C :   -0.329669
  14 H :    0.116102
  15 H :    0.117688
  16 H :    0.117228
  17 H :    0.112885
  18 H :    0.115680
  19 H :    0.117765
  20 H :    0.115992
  21 H :    0.108252
  22 H :    0.118351
  23 H :    0.279480
  24 H :    0.121743
  25 H :    0.115905
  26 H :    0.112888
  27 H :    0.108121
  28 H :    0.115472
  29 H :    0.113899
  30 H :    0.118055

  Mayer bond orders larger than 0.100000
B(  0-C ,  1-C ) :   1.1109 B(  0-C , 14-H ) :   0.9463 B(  0-C , 15-H ) :   0.9487
B(  0-C , 16-H ) :   0.9480 B(  1-C ,  2-H ) :   0.8918 B(  1-C ,  3-C ) :   1.0957
B(  1-C ,  9-C ) :   1.0805 B(  3-C ,  4-C ) :   1.1288 B(  3-C , 17-H ) :   0.9039
B(  3-C , 18-H ) :   0.9107 B(  4-C ,  5-C ) :   1.1331 B(  4-C , 19-H ) :   0.8986
B(  4-C , 20-H ) :   0.8898 B(  5-C ,  6-H ) :   0.8766 B(  5-C ,  7-C ) :   1.0287
B(  5-C , 11-C ) :   0.9892 B(  7-C ,  8-H ) :   0.8821 B(  7-C ,  9-C ) :   1.1029
B(  7-C , 10-O ) :   1.0297 B(  9-C , 21-H ) :   0.8892 B(  9-C , 22-H ) :   0.9065
B( 10-O , 23-H ) :   0.8481 B( 11-C , 12-C ) :   1.1068 B( 11-C , 13-C ) :   1.1681
B( 11-C , 24-H ) :   0.8874 B( 12-C , 25-H ) :   0.9499 B( 12-C , 26-H ) :   0.9489
B( 12-C , 27-H ) :   0.9447 B( 13-C , 28-H ) :   0.9371 B( 13-C , 29-H ) :   0.9358
B( 13-C , 30-H ) :   0.9456

Dispersion correction           -0.031236632
FINAL SINGLE POINT ENERGY      -467.195363110956

DIPOLE MOMENT
-------------

Method             : SCF
Type of density    : Electron Density
Multiplicity       :   1
Irrep              :   0
Energy             :  -467.3079739047219618 Eh
Relativity type    :
Basis              : AO
                                X                 Y                 Z
Electronic contribution:      0.540942038       4.871865957       0.035125156
Nuclear contribution   :     -0.297315584      -5.274503261      -0.283356887
                        -----------------------------------------
Total Dipole Moment    :      0.243626455      -0.402637304      -0.248231730
                        -----------------------------------------
Magnitude (a.u.)       :      0.532061688
Magnitude (Debye)      :      1.352393334

Rotational constants in cm-1:             0.061234             0.022939             0.018622
Rotational constants in MHz :          1835.746580           687.700114           558.270049

                             ****ORCA TERMINATED NORMALLY****
TOTAL RUN TIME: 0 days 0 hours 0 minutes 11 seconds 907 msec
