                         Program Version 6.0.0  -   RELEASE  -
|  1> ! r2SCAN-3c DEF2-TZVP FREQ
|  2> * xyzfile 0 1 censo.xyz
|  3>
|  4>                          ****END OF INPUT****

CARTESIAN COORDINATES (ANGSTROEM)
---------------------------------
  C      0.255431   -0.535838    0.000647
  C      1.392249    0.152006   -0.000917
  F      2.582928   -0.393551   -0.001027
  F      1.431853    1.465836   -0.002989
  C     -1.101082    0.110638    0.000255
  F     -1.295202    0.888327    1.091841
  F     -1.281657    0.912359   -1.075889
  F     -2.059885   -0.828558   -0.015790
  F      0.279476   -1.876868    0.003814

 Total Charge           Charge          ....    0
 Multiplicity           Mult            ....    1
 Number of Electrons    NEL             ....   72
 Basis Dimension        Dim             ....  279

ORBITAL ENERGIES
----------------

  NO   OCC          E(Eh)            E(eV)
   0   2.0000     -24.570991      -668.6107
   1   2.0000     -24.570133      -668.5873
   2   2.0000     -24.543608      -667.8655
   3   2.0000     -24.543029      -667.8498
   4   2.0000     -24.536625      -667.6755
   5   2.0000     -24.536483      -667.6717
   6   2.0000     -10.314475      -280.6711
   7   2.0000     -10.245191      -278.7858
   8   2.0000     -10.165396      -276.6145
   9   2.0000      -1.296226       -35.2721
  10   2.0000      -1.290760       -35.1234
  11   2.0000      -1.239699       -33.7339
  12   2.0000      -1.229149       -33.4468
  13   2.0000      -1.207423       -32.8556
  14   2.0000      -1.201172       -32.6856
  15   2.0000      -0.812623       -22.1126
  16   2.0000      -0.709684       -19.3115
  17   2.0000      -0.640612       -17.4319
  18   2.0000      -0.600630       -16.3440
  19   2.0000      -0.595250       -16.1976
  20   2.0000      -0.574980       -15.6460
  21   2.0000      -0.567356       -15.4385
  22   2.0000      -0.545597       -14.8465
  23   2.0000      -0.530564       -14.4374
  24   2.0000      -0.459455       -12.5024
  25   2.0000      -0.458863       -12.4863
  26   2.0000      -0.450168       -12.2497
  27   2.0000      -0.444222       -12.0879
  28   2.0000      -0.443994       -12.0817
  29   2.0000      -0.435768       -11.8578
  30   2.0000      -0.428868       -11.6701
  31   2.0000      -0.407175       -11.0798
  32   2.0000      -0.406260       -11.0549
  33   2.0000      -0.387872       -10.5545
  34   2.0000      -0.374564       -10.1924
  35   2.0000      -0.264612        -7.2005
  36   0.0000      -0.055419        -1.5080
  37   0.0000      -0.013870        -0.3774
  38   0.0000       0.045066         1.2263
  39   0.0000       0.105397         2.8680
  40   0.0000       0.114446         3.1142

MULLIKEN ATOMIC CHARGES
-----------------------
   0 C :    0.049598
   1 C :    0.363724
   2 F :   -0.132154
   3 F :   -0.131311
   4 C :    0.487116
   5 F :   -0.161799
   6 F :   -0.161642
   7 F :   -0.148798
   8 F :   -0.164733
Sum of atomic charges:   -0.0000000

LOEWDIN ATOMIC CHARGES
----------------------
   0 C :   -0.286941
   1 C :   -0.431231
   2 F :    0.267369
   3 F :    0.263971
   4 C :   -0.636996
   5 F :    0.192893
   6 F :    0.193406
   7 F :    0.217606
   8 F :    0.219922

  Mayer bond orders larger than 0.100000
B(  0-C ,  1-C ) :   1.7604 B(  0-C ,  4-C ) :   0.9773 B(  0-C ,  8-F ) :   1.0456
B(  1-C ,  2-F ) :   1.1412 B(  1-C ,  3-F ) :   1.1345 B(  4-C ,  5-F ) :   1.1238
B(  4-C ,  6-F ) :   1.1236 B(  4-C ,  7-F ) :   1.1436

Dispersion correction           -0.002043690
FINAL SINGLE POINT ENERGY      -713.344248193171

DIPOLE MOMENT
-------------

Method             : SCF
Type of density    : Electron Density
Multiplicity       :   1
Irrep              :   0
Energy             :  -713.3530652588960947 Eh
Relativity type    :
Basis              : AO
                                X                 Y                 Z
Electronic contribution:      0.113759926       0.174610823      -0.000982363
Nuclear contribution   :      0.319497891      -0.158878919       0.000002296
                        -----------------------------------------
Total Dipole Moment    :      0.433257817       0.015731904      -0.000980067
                        -----------------------------------------
Magnitude (a.u.)       :      0.433544449
Magnitude (Debye)      :      1.101982414

VIBRATIONAL FREQUENCIES
-----------------------

Scaling factor for frequencies =  1.000000000  (already applied!)

     0:       0.00 cm**-1
     1:       0.00 cm**-1
     2:       0.00 cm**-1
     3:       0.00 cm**-1
     4:       0.00 cm**-1
     5:       0.00 cm**-1
     6:      -7.96 cm**-1 ***imaginary mode***
     7:     133.61 cm**-1
     8:     147.74 cm**-1
     9:     255.47 cm**-1
    10:     290.68 cm**-1
    11:     358.66 cm**-1
    12:     376.18 cm**-1
    13:     433.10 cm**-1
    14:     500.93 cm**-1
    15:     558.49 cm**-1
    16:     591.52 cm**-1
    17:     647.42 cm**-1
    18:     655.88 cm**-1
    19:     754.40 cm**-1
    20:    1027.56 cm**-1
    21:    1108.49 cm**-1
    22:    1149.49 cm**-1
    23:    1211.75 cm**-1
    24:    1322.68 cm**-1
    25:    1372.59 cm**-1
    26:    1814.17 cm**-1

IR SPECTRUM
-----------

 Mode   freq       eps      Int      T**2         TX        TY        TZ
       cm**-1   L/(mol*cm) km/mol    a.u.
----------------------------------------------------------------------------
  7:    133.61   0.000051    0.26  0.000120  (-0.000105 -0.000096 -0.010946)
  8:    147.74   0.000244    1.23  0.000515  ( 0.001429 -0.022654 -0.000058)
  9:    255.47   0.000124    0.63  0.000151  ( 0.000013  0.000058 -0.012295)
 10:    290.68   0.000435    2.20  0.000467  ( 0.020914 -0.005450  0.000153)
 11:    358.66   0.000074    0.37  0.000064  ( 0.006256  0.005029  0.000036)
 12:    376.18   0.000266    1.34  0.000221  ( 0.012778 -0.007573  0.000049)
 13:    433.10   0.000352    1.78  0.000254  (-0.000618 -0.000106  0.015915)
 14:    500.93   0.000236    1.19  0.000147  ( 0.009445  0.007619  0.000042)
 15:    558.49   0.000134    0.68  0.000075  (-0.000007 -0.000002 -0.008642)
 16:    591.52   0.000032    0.16  0.000017  ( 0.003798  0.001590  0.000095)
 17:    647.42   0.000195    0.99  0.000094  (-0.000342  0.000097  0.009697)
 18:    655.88   0.002697   13.63  0.001283  ( 0.035650 -0.003489  0.000208)
 19:    754.40   0.001396    7.06  0.000578  (-0.023573  0.004681 -0.000167)
 20:   1027.56   0.050421  254.81  0.015313  (-0.123412  0.009026  0.000923)
 21:   1108.49   0.058499  295.63  0.016469  (-0.000119 -0.000303 -0.128330)
 22:   1149.49   0.052824  266.95  0.014341  ( 0.036053  0.114197  0.000004)
 23:   1211.75   0.015330   77.47  0.003948  ( 0.004042 -0.062700  0.000559)
 24:   1322.68   0.042824  216.41  0.010104  (-0.016430 -0.099165  0.000034)
 25:   1372.59   0.047115  238.10  0.010712  ( 0.098859 -0.030637  0.000111)
 26:   1814.17   0.033587  169.74  0.005778  ( 0.074866  0.013137 -0.000004)

--------------------------
THERMOCHEMISTRY AT 298.15K
--------------------------

Temperature         ...   298.15 K
Pressure            ...     1.00 atm
Total Mass          ...   150.02 AMU
Quasi RRHO          ...     True
Cut-Off Frequency   ...     1.00 cm^-1

Throughout the following assumptions are being made:
  (1) The electronic state is orbitally nondegenerate
  (2) There are no thermally accessible electronically excited states
  (3) Hindered rotations indicated by low frequency modes are not
      treated as such but are treated as vibrations and this may
      cause some error
  (4) All equations used are the standard statistical mechanics
      equations for an ideal gas
  (5) All vibrations are strictly harmonic

freq.     133.61  E(vib)   ...       0.42
freq.     147.74  E(vib)   ...       0.41
freq.     255.47  E(vib)   ...       0.30
freq.     290.68  E(vib)   ...       0.27
freq.     358.66  E(vib)   ...       0.22
freq.     376.18  E(vib)   ...       0.21
freq.     433.10  E(vib)   ...       0.17
freq.     500.93  E(vib)   ...       0.14
freq.     558.49  E(vib)   ...       0.12
freq.     591.52  E(vib)   ...       0.10
freq.     647.42  E(vib)   ...       0.09
freq.     655.88  E(vib)   ...       0.08
freq.     754.40  E(vib)   ...       0.06
freq.    1027.56  E(vib)   ...       0.02
freq.    1108.49  E(vib)   ...       0.02
freq.    1149.49  E(vib)   ...       0.01
freq.    1211.75  E(vib)   ...       0.01
freq.    1322.68  E(vib)   ...       0.01
freq.    1372.59  E(vib)   ...       0.01
freq.    1814.17  E(vib)   ...       0.00

------------
INNER ENERGY
------------

The inner energy is: U= E(el) + E(ZPE) + E(vib) + E(rot) + E(trans)
    E(el)   - is the total energy from the electronic structure calculation
              = E(kin-el) + E(nuc-el) + E(el-el) + E(nuc-nuc)
    E(ZPE)  - the the zero temperature vibrational energy from the frequency calculation
    E(vib)  - the the finite temperature correction to E(ZPE) due to population
              of excited vibrational states
    E(rot)  - is the rotational thermal energy
    E(trans)- is the translational thermal energy

Summary of contributions to the inner energy U:
Electronic energy                ...   -713.34424819 Eh
Zero point energy                ...      0.03351366 Eh      21.03 kcal/mol
Thermal vibrational correction   ...      0.00424011 Eh       2.66 kcal/mol
Thermal rotational correction    ...      0.00141627 Eh       0.89 kcal/mol
Thermal translational correction ...      0.00141627 Eh       0.89 kcal/mol
-----------------------------------------------------------------------
Total thermal energy                   -713.30366188 Eh

Summary of corrections to the electronic energy:
(perhaps to be used in another calculation)
Total thermal correction                  0.00707265 Eh       4.44 kcal/mol
Non-thermal (ZPE) correction              0.03351366 Eh      21.03 kcal/mol
-----------------------------------------------------------------------
Total correction                          0.04058631 Eh      25.47 kcal/mol

--------
ENTHALPY
--------

The enthalpy is H = U + kB*T
                kB is Boltzmann's constant
Total thermal energy              ...   -713.30366188 Eh
Thermal Enthalpy correction       ...      0.00094421 Eh       0.59 kcal/mol
-----------------------------------------------------------------------
Total Enthalpy                    ...   -713.30271767 Eh

Note: Only C1 symmetry has been detected, increase convergence thresholds
      if your molecule has a higher symmetry. Symmetry factor of 1.0 is
      used for the rotational entropy correction.

Note: Rotational entropy computed according to Herzberg
Infrared and Raman Spectra, Chapter V,1, Van Nostrand Reinhold, 1945
Point Group:  C1, Symmetry Number:   1
Rotational constants in cm-1:     0.083027     0.042769     0.033191

Vibrational entropy computed according to the QRRHO of S. Grimme
Chem.Eur.J. 2012 18 9955 using a reference frequency of 100.0 cm-1

-------
ENTROPY
-------

The entropy contributions are T*S = T*(S(el)+S(vib)+S(rot)+S(trans))
     S(el)   - electronic entropy
     S(vib)  - vibrational entropy
     S(rot)  - rotational entropy
     S(trans)- translational entropy
The entropies will be listed as multiplied by the temperature to get
units of energy

Electronic entropy                ...      0.00000000 Eh      0.00 kcal/mol
Vibrational entropy               ...      0.00693904 Eh      4.35 kcal/mol
Rotational entropy                ...      0.01378134 Eh      8.65 kcal/mol
Translational entropy             ...      0.01944569 Eh     12.20 kcal/mol
-----------------------------------------------------------------------
Final entropy term                ...      0.04016607 Eh     25.20 kcal/mol

In case the symmetry of your molecule has not been determined correctly
or in case you have a reason to use a different symmetry number we print
out the resulting rotational entropy values for sn=1,12:

 non-linear molecules -----------------------------------
|  sn= 1 | S(rot)=       0.01378134 Eh      8.65 kcal/mol|
|  sn= 2 | S(rot)=       0.01312688 Eh      8.24 kcal/mol|
|  sn= 3 | S(rot)=       0.01274405 Eh      8.00 kcal/mol|
|  sn= 4 | S(rot)=       0.01247243 Eh      7.83 kcal/mol|
|  sn= 5 | S(rot)=       0.01226174 Eh      7.69 kcal/mol|
|  sn= 6 | S(rot)=       0.01208960 Eh      7.59 kcal/mol|
|  sn= 7 | S(rot)=       0.01194405 Eh      7.49 kcal/mol|
|  sn= 8 | S(rot)=       0.01181797 Eh      7.42 kcal/mol|
|  sn= 9 | S(rot)=       0.01170676 Eh      7.35 kcal/mol|
|  sn=10 | S(rot)=       0.01160728 Eh      7.28 kcal/mol|
|  sn=11 | S(rot)=       0.01151729 Eh      7.23 kcal/mol|
|  sn=12 | S(rot)=       0.01143514 Eh      7.18 kcal/mol|
 linear molecules ---------------------------------------
|  Dinfh | S(rot)=       0.00854120 Eh      5.36 kcal/mol|
|  Cinfv | S(rot)=       0.00919566 Eh      5.77 kcal/mol|
 --------------------------------------------------------

-------------------
GIBBS FREE ENERGY
-------------------

The Gibbs free energy is G = H - T*S

Total enthalpy                    ...   -713.30271767 Eh
Total entropy correction          ...     -0.04016607 Eh    -25.20 kcal/mol
-----------------------------------------------------------------------
Final Gibbs free energy         ...   -713.34288374 Eh

For completeness - the Gibbs free energy minus the electronic energy
G-E(el)                           ...      0.00136446 Eh      0.86 kcal/mol

                             ****ORCA TERMINATED NORMALLY****
TOTAL RUN TIME: 0 days 0 hours 4 minutes 27 seconds 869 msec
