                         Program Version 6.0.0  -   RELEASE  -
|  1> ! r2SCAN-3c DEF2-TZVP FREQ
|  2> * xyzfile 0 1 vacuum_censo.xyz
|  3>
|  4>                          ****END OF INPUT****

CARTESIAN COORDINATES (ANGSTROEM)
---------------------------------
  C      0.253590   -0.536358    0.000056
  C      1.391657    0.151962   -0.000229
  F      2.584240   -0.395367   -0.000148
  F      1.435865    1.466477   -0.000678
  C     -1.107478    0.112602    0.000048
  F     -1.285713    0.901850   -1.083188
  F     -2.062021   -0.828181   -0.003716
  F     -1.288761    0.896090    1.087009
  F      0.279716   -1.875284    0.000794

 Total Charge           Charge          ....    0
 Multiplicity           Mult            ....    1
 Number of Electrons    NEL             ....   72
 Basis Dimension        Dim             ....  279

ORBITAL ENERGIES
----------------

  NO   OCC          E(Eh)            E(eV)
   0   2.0000     -24.569582      -668.5723
   1   2.0000     -24.569352      -668.5661
   2   2.0000     -24.543922      -667.8741
   3   2.0000     -24.543628      -667.8661
   4   2.0000     -24.537533      -667.7002
   5   2.0000     -24.537502      -667.6994
   6   2.0000     -10.314914      -280.6831
   7   2.0000     -10.244291      -278.7613
   8   2.0000     -10.165173      -276.6084
   9   2.0000      -1.295512       -35.2527
  10   2.0000      -1.291169       -35.1345
  11   2.0000      -1.238475       -33.7006
  12   2.0000      -1.229398       -33.4536
  13   2.0000      -1.208924       -32.8965
  14   2.0000      -1.202881       -32.7321
  15   2.0000      -0.811059       -22.0700
  16   2.0000      -0.709146       -19.2969
  17   2.0000      -0.640241       -17.4219
  18   2.0000      -0.600114       -16.3299
  19   2.0000      -0.594881       -16.1875
  20   2.0000      -0.576169       -15.6784
  21   2.0000      -0.567623       -15.4458
  22   2.0000      -0.545873       -14.8540
  23   2.0000      -0.529232       -14.4011
  24   2.0000      -0.459178       -12.4949
  25   2.0000      -0.459047       -12.4913
  26   2.0000      -0.449567       -12.2333
  27   2.0000      -0.444606       -12.0983
  28   2.0000      -0.444154       -12.0860
  29   2.0000      -0.435883       -11.8610
  30   2.0000      -0.428503       -11.6601
  31   2.0000      -0.408574       -11.1179
  32   2.0000      -0.407192       -11.0803
  33   2.0000      -0.389013       -10.5856
  34   2.0000      -0.373584       -10.1657
  35   2.0000      -0.263666        -7.1747
  36   0.0000      -0.054415        -1.4807
  37   0.0000      -0.012472        -0.3394
  38   0.0000       0.045264         1.2317
  39   0.0000       0.103832         2.8254
  40   0.0000       0.114834         3.1248

MULLIKEN ATOMIC CHARGES
-----------------------
   0 C :    0.049482
   1 C :    0.361924
   2 F :   -0.133605
   3 F :   -0.132160
   4 C :    0.488461
   5 F :   -0.160774
   6 F :   -0.148174
   7 F :   -0.160806
   8 F :   -0.164348
Sum of atomic charges:   -0.0000000

LOEWDIN ATOMIC CHARGES
----------------------
   0 C :   -0.288241
   1 C :   -0.429323
   2 F :    0.263374
   3 F :    0.262104
   4 C :   -0.641761
   5 F :    0.195988
   6 F :    0.220034
   7 F :    0.195879
   8 F :    0.221946

  Mayer bond orders larger than 0.100000
B(  0-C ,  1-C ) :   1.7609 B(  0-C ,  4-C ) :   0.9754 B(  0-C ,  8-F ) :   1.0454
B(  1-C ,  2-F ) :   1.1391 B(  1-C ,  3-F ) :   1.1337 B(  4-C ,  5-F ) :   1.1246
B(  4-C ,  6-F ) :   1.1441 B(  4-C ,  7-F ) :   1.1246

Dispersion correction           -0.002043210
FINAL SINGLE POINT ENERGY      -713.344317631725

DIPOLE MOMENT
-------------

Method             : SCF
Type of density    : Electron Density
Multiplicity       :   1
Irrep              :   0
Energy             :  -713.3531146792078061 Eh
Relativity type    :
Basis              : AO
                                X                 Y                 Z
Electronic contribution:      0.087034803       0.175392031      -0.000160218
Nuclear contribution   :      0.314274410      -0.157819599      -0.000071444
                        -----------------------------------------
Total Dipole Moment    :      0.401309213       0.017572433      -0.000231662
                        -----------------------------------------
Magnitude (a.u.)       :      0.401693825
Magnitude (Debye)      :      1.021024560

VIBRATIONAL FREQUENCIES
-----------------------

Scaling factor for frequencies =  1.000000000  (already applied!)

     0:       0.00 cm**-1
     1:       0.00 cm**-1
     2:       0.00 cm**-1
     3:       0.00 cm**-1
     4:       0.00 cm**-1
     5:       0.00 cm**-1
     6:     -17.79 cm**-1 ***imaginary mode***
     7:     134.98 cm**-1
     8:     147.73 cm**-1
     9:     254.16 cm**-1
    10:     289.25 cm**-1
    11:     357.86 cm**-1
    12:     374.92 cm**-1
    13:     433.51 cm**-1
    14:     500.33 cm**-1
    15:     558.79 cm**-1
    16:     591.57 cm**-1
    17:     648.11 cm**-1
    18:     655.55 cm**-1
    19:     754.40 cm**-1
    20:    1026.51 cm**-1
    21:    1117.84 cm**-1
    22:    1156.52 cm**-1
    23:    1214.66 cm**-1
    24:    1315.99 cm**-1
    25:    1366.97 cm**-1
    26:    1808.07 cm**-1

IR SPECTRUM
-----------

 Mode   freq       eps      Int      T**2         TX        TY        TZ
       cm**-1   L/(mol*cm) km/mol    a.u.
----------------------------------------------------------------------------
  7:    134.98   0.000054    0.27  0.000125  ( 0.000019  0.000024  0.011191)
  8:    147.73   0.000245    1.24  0.000517  (-0.001305  0.022703  0.000008)
  9:    254.16   0.000126    0.64  0.000155  (-0.000013 -0.000025  0.012454)
 10:    289.25   0.000434    2.19  0.000469  ( 0.020963 -0.005389  0.000033)
 11:    357.86   0.000080    0.40  0.000070  ( 0.006233  0.005541  0.000006)
 12:    374.92   0.000245    1.24  0.000204  (-0.012354  0.007134 -0.000015)
 13:    433.51   0.000344    1.74  0.000247  (-0.000151 -0.000030  0.015724)
 14:    500.33   0.000244    1.23  0.000152  ( 0.009453  0.007913  0.000009)
 15:    558.79   0.000114    0.58  0.000064  ( 0.000009  0.000008  0.007977)
 16:    591.57   0.000040    0.20  0.000021  (-0.004125 -0.002017 -0.000020)
 17:    648.11   0.000211    1.07  0.000102  ( 0.000101 -0.000027 -0.010079)
 18:    655.55   0.002693   13.61  0.001282  (-0.035601  0.003813 -0.000057)
 19:    754.40   0.001647    8.33  0.000681  ( 0.025654 -0.004832  0.000036)
 20:   1026.51   0.050460  255.01  0.015340  ( 0.123604 -0.007890 -0.000182)
 21:   1117.84   0.058786  297.08  0.016411  ( 0.000037 -0.000006 -0.128105)
 22:   1156.52   0.052388  264.75  0.014136  ( 0.033564  0.114059  0.000055)
 23:   1214.66   0.012660   63.98  0.003253  ( 0.009751 -0.056191  0.000149)
 24:   1315.99   0.046928  237.15  0.011128  (-0.018015 -0.103940  0.000007)
 25:   1366.97   0.046679  235.90  0.010656  ( 0.099325 -0.028124  0.000029)
 26:   1808.07   0.032419  163.83  0.005595  ( 0.073657  0.013039  0.000006)

--------------------------
THERMOCHEMISTRY AT 298.15K
--------------------------

Temperature         ...   298.15 K
Pressure            ...     1.00 atm
Total Mass          ...   150.02 AMU
Quasi RRHO          ...     True
Cut-Off Frequency   ...     1.00 cm^-1

Throughout the following assumptions are being made:
  (1) The electronic state is orbitally nondegenerate
  (2) There are no thermally accessible electronically excited states
  (3) Hindered rotations indicated by low frequency modes are not
      treated as such but are treated as vibrations and this may
      cause some error
  (4) All equations used are the standard statistical mechanics
      equations for an ideal gas
  (5) All vibrations are strictly harmonic

freq.     134.98  E(vib)   ...       0.42
freq.     147.73  E(vib)   ...       0.41
freq.     254.16  E(vib)   ...       0.30
freq.     289.25  E(vib)   ...       0.27
freq.     357.86  E(vib)   ...       0.22
freq.     374.92  E(vib)   ...       0.21
freq.     433.51  E(vib)   ...       0.17
freq.     500.33  E(vib)   ...       0.14
freq.     558.79  E(vib)   ...       0.12
freq.     591.57  E(vib)   ...       0.10
freq.     648.11  E(vib)   ...       0.08
freq.     655.55  E(vib)   ...       0.08
freq.     754.40  E(vib)   ...       0.06
freq.    1026.51  E(vib)   ...       0.02
freq.    1117.84  E(vib)   ...       0.01
freq.    1156.52  E(vib)   ...       0.01
freq.    1214.66  E(vib)   ...       0.01
freq.    1315.99  E(vib)   ...       0.01
freq.    1366.97  E(vib)   ...       0.01
freq.    1808.07  E(vib)   ...       0.00

------------
INNER ENERGY
------------

The inner energy is: U= E(el) + E(ZPE) + E(vib) + E(rot) + E(trans)
    E(el)   - is the total energy from the electronic structure calculation
              = E(kin-el) + E(nuc-el) + E(el-el) + E(nuc-nuc)
    E(ZPE)  - the the zero temperature vibrational energy from the frequency calculation
    E(vib)  - the the finite temperature correction to E(ZPE) due to population
              of excited vibrational states
    E(rot)  - is the rotational thermal energy
    E(trans)- is the translational thermal energy

Summary of contributions to the inner energy U:
Electronic energy                ...   -713.34431763 Eh
Zero point energy                ...      0.03350664 Eh      21.03 kcal/mol
Thermal vibrational correction   ...      0.00424219 Eh       2.66 kcal/mol
Thermal rotational correction    ...      0.00141627 Eh       0.89 kcal/mol
Thermal translational correction ...      0.00141627 Eh       0.89 kcal/mol
-----------------------------------------------------------------------
Total thermal energy                   -713.30373625 Eh

Summary of corrections to the electronic energy:
(perhaps to be used in another calculation)
Total thermal correction                  0.00707474 Eh       4.44 kcal/mol
Non-thermal (ZPE) correction              0.03350664 Eh      21.03 kcal/mol
-----------------------------------------------------------------------
Total correction                          0.04058138 Eh      25.47 kcal/mol

--------
ENTHALPY
--------

The enthalpy is H = U + kB*T
                kB is Boltzmann's constant
Total thermal energy              ...   -713.30373625 Eh
Thermal Enthalpy correction       ...      0.00094421 Eh       0.59 kcal/mol
-----------------------------------------------------------------------
Total Enthalpy                    ...   -713.30279204 Eh

Note: Only C1 symmetry has been detected, increase convergence thresholds
      if your molecule has a higher symmetry. Symmetry factor of 1.0 is
      used for the rotational entropy correction.

Note: Rotational entropy computed according to Herzberg
Infrared and Raman Spectra, Chapter V,1, Van Nostrand Reinhold, 1945
Point Group:  C1, Symmetry Number:   1
Rotational constants in cm-1:     0.083049     0.042701     0.033165

Vibrational entropy computed according to the QRRHO of S. Grimme
Chem.Eur.J. 2012 18 9955 using a reference frequency of 100.0 cm-1

-------
ENTROPY
-------

The entropy contributions are T*S = T*(S(el)+S(vib)+S(rot)+S(trans))
     S(el)   - electronic entropy
     S(vib)  - vibrational entropy
     S(rot)  - rotational entropy
     S(trans)- translational entropy
The entropies will be listed as multiplied by the temperature to get
units of energy

Electronic entropy                ...      0.00000000 Eh      0.00 kcal/mol
Vibrational entropy               ...      0.00694261 Eh      4.36 kcal/mol
Rotational entropy                ...      0.01378233 Eh      8.65 kcal/mol
Translational entropy             ...      0.01944569 Eh     12.20 kcal/mol
-----------------------------------------------------------------------
Final entropy term                ...      0.04017063 Eh     25.21 kcal/mol

In case the symmetry of your molecule has not been determined correctly
or in case you have a reason to use a different symmetry number we print
out the resulting rotational entropy values for sn=1,12:

 non-linear molecules -----------------------------------
|  sn= 1 | S(rot)=       0.01378233 Eh      8.65 kcal/mol|
|  sn= 2 | S(rot)=       0.01312788 Eh      8.24 kcal/mol|
|  sn= 3 | S(rot)=       0.01274504 Eh      8.00 kcal/mol|
|  sn= 4 | S(rot)=       0.01247342 Eh      7.83 kcal/mol|
|  sn= 5 | S(rot)=       0.01226273 Eh      7.69 kcal/mol|
|  sn= 6 | S(rot)=       0.01209059 Eh      7.59 kcal/mol|
|  sn= 7 | S(rot)=       0.01194504 Eh      7.50 kcal/mol|
|  sn= 8 | S(rot)=       0.01181896 Eh      7.42 kcal/mol|
|  sn= 9 | S(rot)=       0.01170776 Eh      7.35 kcal/mol|
|  sn=10 | S(rot)=       0.01160828 Eh      7.28 kcal/mol|
|  sn=11 | S(rot)=       0.01151829 Eh      7.23 kcal/mol|
|  sn=12 | S(rot)=       0.01143613 Eh      7.18 kcal/mol|
 linear molecules ---------------------------------------
|  Dinfh | S(rot)=       0.00854192 Eh      5.36 kcal/mol|
|  Cinfv | S(rot)=       0.00919638 Eh      5.77 kcal/mol|
 --------------------------------------------------------

-------------------
GIBBS FREE ENERGY
-------------------

The Gibbs free energy is G = H - T*S

Total enthalpy                    ...   -713.30279204 Eh
Total entropy correction          ...     -0.04017063 Eh    -25.21 kcal/mol
-----------------------------------------------------------------------
Final Gibbs free energy         ...   -713.34296267 Eh

For completeness - the Gibbs free energy minus the electronic energy
G-E(el)                           ...      0.00135496 Eh      0.85 kcal/mol

                             ****ORCA TERMINATED NORMALLY****
TOTAL RUN TIME: 0 days 0 hours 4 minutes 24 seconds 774 msec
