                         Program Version 6.0.1  -  RELEASE   -
|  1> ! pbe def2-sv(p) def2/J RI DEFGRID1 loosescf d4 GCP(DFT/SV(P)) printgap
|  2> %output
|  3>     printlevel normal
|  4> end
|  5> * xyz 0 1
|  6> C 2.0635703851 0.0322485242 -0.1210986217
|  7> C 0.7584290639 0.7023084058 0.290838052
|  8> C -0.4602632807 0.003305523 -0.3272668755
|  9> H -0.3327164324 -0.0549370221 -1.4136926247
| 10> C -1.7485713149 0.7626763775 -0.0041878961
| 11> O -0.5475719013 -1.3434229521 0.0872774368
| 12> H 2.2200952056 0.1349542652 -1.1923400872
| 13> H 2.0298615752 -1.0281055206 0.1175263319
| 14> H 2.9067298781 0.4821951739 0.3977223649
| 15> H 0.7613556539 1.747783992 -0.0215935988
| 16> H 0.662000207 0.6780963876 1.3806143825
| 17> H -2.6046698792 0.2268808017 -0.4069725746
| 18> H -1.8724056551 0.8559909878 1.0741363352
| 19> H -1.7214861943 1.7580706274 -0.4384357571
| 20> H -0.663608267 -1.3571462964 1.0447321649
| 21> *
| 22>
| 23>                          ****END OF INPUT****

CARTESIAN COORDINATES (ANGSTROEM)
---------------------------------
  C      2.063570    0.032249   -0.121099
  C      0.758429    0.702308    0.290838
  C     -0.460263    0.003306   -0.327267
  H     -0.332716   -0.054937   -1.413693
  C     -1.748571    0.762676   -0.004188
  O     -0.547572   -1.343423    0.087277
  H      2.220095    0.134954   -1.192340
  H      2.029862   -1.028106    0.117526
  H      2.906730    0.482195    0.397722
  H      0.761356    1.747784   -0.021594
  H      0.662000    0.678096    1.380614
  H     -2.604670    0.226881   -0.406973
  H     -1.872406    0.855991    1.074136
  H     -1.721486    1.758071   -0.438436
  H     -0.663608   -1.357146    1.044732

 Total Charge           Charge          ....    0
 Multiplicity           Mult            ....    1
 Number of Electrons    NEL             ....   42
 Basis Dimension        Dim             ....   90

ORBITAL ENERGIES
----------------

  NO   OCC          E(Eh)            E(eV)
   0   2.0000     -18.739196      -509.9195
   1   2.0000      -9.934550      -270.3329
   2   2.0000      -9.884120      -268.9606
   3   2.0000      -9.873943      -268.6837
   4   2.0000      -9.869594      -268.5653
   5   2.0000      -0.920056       -25.0360
   6   2.0000      -0.704063       -19.1585
   7   2.0000      -0.650195       -17.6927
   8   2.0000      -0.563496       -15.3335
   9   2.0000      -0.533584       -14.5196
  10   2.0000      -0.431179       -11.7330
  11   2.0000      -0.415266       -11.3000
  12   2.0000      -0.392258       -10.6739
  13   2.0000      -0.375054       -10.2057
  14   2.0000      -0.358829        -9.7642
  15   2.0000      -0.324739        -8.8366
  16   2.0000      -0.320470        -8.7204
  17   2.0000      -0.299680        -8.1547
  18   2.0000      -0.296462        -8.0671
  19   2.0000      -0.264829        -7.2064
  20   2.0000      -0.212586        -5.7848
  21   0.0000       0.025747         0.7006
  22   0.0000       0.057183         1.5560
  23   0.0000       0.069709         1.8969
  24   0.0000       0.083063         2.2602
  25   0.0000       0.097907         2.6642

MULLIKEN ATOMIC CHARGES
-----------------------
   0 C :   -0.249689
   1 C :   -0.188223
   2 C :    0.005201
   3 H :    0.069795
   4 C :   -0.235353
   5 O :   -0.424706
   6 H :    0.095199
   7 H :    0.100695
   8 H :    0.100249
   9 H :    0.082894
  10 H :    0.067167
  11 H :    0.109667
  12 H :    0.082423
  13 H :    0.096000
  14 H :    0.288681
Sum of atomic charges:    0.0000000

LOEWDIN ATOMIC CHARGES
----------------------
   0 C :   -0.343480
   1 C :   -0.247515
   2 C :   -0.061756
   3 H :    0.111688
   4 C :   -0.352404
   5 O :   -0.324311
   6 H :    0.117749
   7 H :    0.118827
   8 H :    0.117404
   9 H :    0.118039
  10 H :    0.108984
  11 H :    0.122461
  12 H :    0.113079
  13 H :    0.122341
  14 H :    0.278895

  Mayer bond orders larger than 0.100000
B(  0-C ,  1-C ) :   1.1548 B(  0-C ,  6-H ) :   0.9549 B(  0-C ,  7-H ) :   0.9447
B(  0-C ,  8-H ) :   0.9533 B(  1-C ,  2-C ) :   1.0668 B(  1-C ,  9-H ) :   0.9185
B(  1-C , 10-H ) :   0.9141 B(  2-C ,  3-H ) :   0.9048 B(  2-C ,  4-C ) :   1.1150
B(  2-C ,  5-O ) :   1.0294 B(  4-C , 11-H ) :   0.9468 B(  4-C , 12-H ) :   0.9421
B(  4-C , 13-H ) :   0.9396 B(  5-O , 14-H ) :   0.8550

Dispersion correction           -0.009510438
FINAL SINGLE POINT ENERGY      -233.093385329873

DIPOLE MOMENT
-------------

Method             : SCF
Type of density    : Electron Density
Multiplicity       :   1
Irrep              :   0
Energy             :  -233.1532491397758236 Eh
Relativity type    :
Basis              : AO
                                X                 Y                 Z
Electronic contribution:     -1.340332244      -2.780757005      -0.125176315
Nuclear contribution   :      1.291377248       3.210896305       0.509495622
                        -----------------------------------------
Total Dipole Moment    :     -0.048954995       0.430139300       0.384319307
                        -----------------------------------------
Magnitude (a.u.)       :      0.578893547
Magnitude (Debye)      :      1.471430459

Rotational constants in cm-1:             0.266769             0.115886             0.090088
Rotational constants in MHz :          7997.532363          3474.173198          2700.759724

                             ****ORCA TERMINATED NORMALLY****
TOTAL RUN TIME: 0 days 0 hours 0 minutes 3 seconds 811 msec
