                         Program Version 6.0.1  -  RELEASE   -
|  1> ! pbe def2-sv(p) def2/J RI DEFGRID1 loosescf d4 GCP(DFT/SV(P)) printgap
|  2> %output
|  3>     printlevel normal
|  4> end
|  5> * xyz 0 1
|  6> C -1.8077067519 -0.8032116325 0.6816152749
|  7> C -0.9475661233 -0.2004467795 -0.4265553724
|  8> H -0.9404707419 -0.8726447945 -1.301776261
|  9> C 0.5282180882 -0.0602461113 0.0169649582
| 10> F 0.9690826906 1.192337838 -0.0121405593
| 11> F 0.7456111269 -0.5137059116 1.2615242171
| 12> F 1.3400598325 -0.7785167287 -0.7782421774
| 13> O -1.3684423142 1.0842641338 -0.7996789574
| 14> H -1.4204642969 -1.7734704434 0.9792726834
| 15> H -2.8267351897 -0.9283258936 0.3217450897
| 16> H -1.8148757013 -0.1446657822 1.5471771976
| 17> H -2.3158594031 1.0686783734 -0.9747760781
| 18> *
| 19>
| 20>                          ****END OF INPUT****

CARTESIAN COORDINATES (ANGSTROEM)
---------------------------------
  C     -1.807707   -0.803212    0.681615
  C     -0.947566   -0.200447   -0.426555
  H     -0.940471   -0.872645   -1.301776
  C      0.528218   -0.060246    0.016965
  F      0.969083    1.192338   -0.012141
  F      0.745611   -0.513706    1.261524
  F      1.340060   -0.778517   -0.778242
  O     -1.368442    1.084264   -0.799679
  H     -1.420464   -1.773470    0.979273
  H     -2.826735   -0.928326    0.321745
  H     -1.814876   -0.144666    1.547177
  H     -2.315859    1.068678   -0.974776

 Total Charge           Charge          ....    0
 Multiplicity           Mult            ....    1
 Number of Electrons    NEL             ....   58
 Basis Dimension        Dim             ....  108

ORBITAL ENERGIES
----------------

  NO   OCC          E(Eh)            E(eV)
   0   2.0000     -24.282642      -660.7643
   1   2.0000     -24.279129      -660.6687
   2   2.0000     -24.277407      -660.6218
   3   2.0000     -18.766873      -510.6726
   4   2.0000     -10.117118      -275.3008
   5   2.0000      -9.967011      -271.2162
   6   2.0000      -9.898020      -269.3388
   7   2.0000      -1.187996       -32.3270
   8   2.0000      -1.094416       -29.7806
   9   2.0000      -1.090828       -29.6829
  10   2.0000      -0.948381       -25.8068
  11   2.0000      -0.711229       -19.3535
  12   2.0000      -0.632137       -17.2013
  13   2.0000      -0.575398       -15.6574
  14   2.0000      -0.524675       -14.2771
  15   2.0000      -0.520582       -14.1658
  16   2.0000      -0.488124       -13.2825
  17   2.0000      -0.471219       -12.8225
  18   2.0000      -0.411095       -11.1865
  19   2.0000      -0.395159       -10.7528
  20   2.0000      -0.391575       -10.6553
  21   2.0000      -0.381273       -10.3750
  22   2.0000      -0.356955        -9.7132
  23   2.0000      -0.350896        -9.5484
  24   2.0000      -0.342502        -9.3199
  25   2.0000      -0.330376        -8.9900
  26   2.0000      -0.324774        -8.8375
  27   2.0000      -0.296043        -8.0557
  28   2.0000      -0.237315        -6.4577
  29   0.0000       0.011000         0.2993
  30   0.0000       0.052417         1.4263
  31   0.0000       0.072739         1.9793
  32   0.0000       0.087080         2.3696
  33   0.0000       0.098979         2.6934

MULLIKEN ATOMIC CHARGES
-----------------------
   0 C :   -0.273916
   1 C :   -0.077974
   2 H :    0.090475
   3 C :    0.424895
   4 F :   -0.115353
   5 F :   -0.139237
   6 F :   -0.146947
   7 O :   -0.411901
   8 H :    0.119372
   9 H :    0.104150
  10 H :    0.121556
  11 H :    0.304881
Sum of atomic charges:    0.0000000

LOEWDIN ATOMIC CHARGES
----------------------
   0 C :   -0.355481
   1 C :   -0.098471
   2 H :    0.111793
   3 C :    0.106955
   4 F :   -0.022962
   5 F :   -0.046340
   6 F :   -0.053382
   7 O :   -0.315472
   8 H :    0.132596
   9 H :    0.120899
  10 H :    0.130034
  11 H :    0.289831

  Mayer bond orders larger than 0.100000
B(  0-C ,  1-C ) :   1.1131 B(  0-C ,  8-H ) :   0.9333 B(  0-C ,  9-H ) :   0.9405
B(  0-C , 10-H ) :   0.9389 B(  1-C ,  2-H ) :   0.8958 B(  1-C ,  3-C ) :   0.9501
B(  1-C ,  7-O ) :   1.0915 B(  3-C ,  4-F ) :   1.2168 B(  3-C ,  5-F ) :   1.1682
B(  3-C ,  6-F ) :   1.1575 B(  7-O , 11-H ) :   0.8471

Dispersion correction           -0.008110516
FINAL SINGLE POINT ENERGY      -491.107121763607

DIPOLE MOMENT
-------------

Method             : SCF
Type of density    : Electron Density
Multiplicity       :   1
Irrep              :   0
Energy             :  -491.1776387947937224 Eh
Relativity type    :
Basis              : AO
                                X                 Y                 Z
Electronic contribution:     10.413474608       1.953442357      -0.208390209
Nuclear contribution   :    -11.592851737      -2.377976277       0.087943265
                        -----------------------------------------
Total Dipole Moment    :     -1.179377129      -0.424533920      -0.120446944
                        -----------------------------------------
Magnitude (a.u.)       :      1.259232674
Magnitude (Debye)      :      3.200715093

Rotational constants in cm-1:             0.118864             0.078712             0.064804
Rotational constants in MHz :          3563.446911          2359.712431          1942.762917

                             ****ORCA TERMINATED NORMALLY****
TOTAL RUN TIME: 0 days 0 hours 0 minutes 7 seconds 291 msec
