                         Program Version 6.0.1  -  RELEASE   -
|  1> ! pbe def2-sv(p) def2/J RI DEFGRID1 loosescf d4 GCP(DFT/SV(P)) printgap
|  2> %output
|  3>     printlevel normal
|  4> end
|  5> * xyz 0 1
|  6> C -1.7222040056 -1.2630738669 -0.139401223
|  7> C -1.0953322743 -1.2631e-05 0.4160308556
|  8> C -1.722349194 1.2630073251 -0.1394031771
|  9> Br 0.8392375344 1.43087e-05 -0.018661601
| 10> H -1.2317648059 -2.1494072621 0.2578548981
| 11> H -2.7756331633 -1.2972137473 0.1352782297
| 12> H -1.6457837162 -1.2829967603 -1.2250465105
| 13> H -1.1248912045 -6.70758e-05 1.5078535805
| 14> H -1.2319094785 2.1493490299 0.2578614419
| 15> H -2.7757005575 1.2971288949 0.1354116434
| 16> H -1.6459784696 1.2830160467 -1.2250723841
| 17> *
| 18>
| 19>                          ****END OF INPUT****

CARTESIAN COORDINATES (ANGSTROEM)
---------------------------------
  C     -1.722204   -1.263074   -0.139401
  C     -1.095332   -0.000013    0.416031
  C     -1.722349    1.263007   -0.139403
  Br     0.839238    0.000014   -0.018662
  H     -1.231765   -2.149407    0.257855
  H     -2.775633   -1.297214    0.135278
  H     -1.645784   -1.282997   -1.225047
  H     -1.124891   -0.000067    1.507854
  H     -1.231909    2.149349    0.257861
  H     -2.775701    1.297129    0.135412
  H     -1.645978    1.283016   -1.225072

 Total Charge           Charge          ....    0
 Multiplicity           Mult            ....    1
 Number of Electrons    NEL             ....   60
 Basis Dimension        Dim             ....   88

ORBITAL ENERGIES
----------------

  NO   OCC          E(Eh)            E(eV)
   0   2.0000    -480.914882    -13086.3592
   1   2.0000     -61.757267     -1680.5007
   2   2.0000     -55.687775     -1515.3414
   3   2.0000     -55.684871     -1515.2624
   4   2.0000     -55.684728     -1515.2585
   5   2.0000      -9.952500      -270.8213
   6   2.0000      -9.890239      -269.1271
   7   2.0000      -9.890225      -269.1267
   8   2.0000      -8.382453      -228.0981
   9   2.0000      -6.264016      -170.4525
  10   2.0000      -6.250229      -170.0774
  11   2.0000      -6.250177      -170.0760
  12   2.0000      -2.465207       -67.0817
  13   2.0000      -2.461862       -66.9907
  14   2.0000      -2.461821       -66.9896
  15   2.0000      -2.451454       -66.7074
  16   2.0000      -2.451447       -66.7073
  17   2.0000      -0.754206       -20.5230
  18   2.0000      -0.663617       -18.0579
  19   2.0000      -0.629116       -17.1191
  20   2.0000      -0.522120       -14.2076
  21   2.0000      -0.427081       -11.6215
  22   2.0000      -0.406625       -11.0648
  23   2.0000      -0.382314       -10.4033
  24   2.0000      -0.355753        -9.6805
  25   2.0000      -0.323488        -8.8026
  26   2.0000      -0.320252        -8.7145
  27   2.0000      -0.303428        -8.2567
  28   2.0000      -0.231457        -6.2983
  29   2.0000      -0.231109        -6.2888
  30   0.0000      -0.027473        -0.7476
  31   0.0000       0.035614         0.9691
  32   0.0000       0.074900         2.0381
  33   0.0000       0.084989         2.3127
  34   0.0000       0.097754         2.6600

MULLIKEN ATOMIC CHARGES
-----------------------
   0 C :   -0.224320
   1 C :   -0.256311
   2 C :   -0.224319
   3 Br:   -0.117900
   4 H :    0.121325
   5 H :    0.109876
   6 H :    0.114173
   7 H :    0.132093
   8 H :    0.121321
   9 H :    0.109879
  10 H :    0.114183
Sum of atomic charges:   -0.0000000

LOEWDIN ATOMIC CHARGES
----------------------
   0 C :   -0.346346
   1 C :   -0.192393
   2 C :   -0.346343
   3 Br:    0.001249
   4 H :    0.126438
   5 H :    0.126050
   6 H :    0.125587
   7 H :    0.127671
   8 H :    0.126439
   9 H :    0.126056
  10 H :    0.125591

  Mayer bond orders larger than 0.100000
B(  0-C ,  1-C ) :   1.0952 B(  0-C ,  4-H ) :   0.9477 B(  0-C ,  5-H ) :   0.9347
B(  0-C ,  6-H ) :   0.9479 B(  1-C ,  2-C ) :   1.0952 B(  1-C ,  3-Br) :   1.0204
B(  1-C ,  7-H ) :   0.9118 B(  2-C ,  8-H ) :   0.9477 B(  2-C ,  9-H ) :   0.9347
B(  2-C , 10-H ) :   0.9479

Dispersion correction           -0.007743949
FINAL SINGLE POINT ENERGY     -2691.678747867153

DIPOLE MOMENT
-------------

Method             : SCF
Type of density    : Electron Density
Multiplicity       :   1
Irrep              :   0
Energy             : -2691.7204014456533514 Eh
Relativity type    :
Basis              : AO
                                X                 Y                 Z
Electronic contribution:     18.666867188       0.000316947       0.106616980
Nuclear contribution   :    -19.455517385      -0.000311932       0.027051020
                        -----------------------------------------
Total Dipole Moment    :     -0.788650197       0.000005015       0.133667999
                        -----------------------------------------
Magnitude (a.u.)       :      0.799897661
Magnitude (Debye)      :      2.033178274

Rotational constants in cm-1:             0.270121             0.096148             0.076068
Rotational constants in MHz :          8098.014016          2882.448618          2280.449141

                             ****ORCA TERMINATED NORMALLY****
TOTAL RUN TIME: 0 days 0 hours 0 minutes 15 seconds 760 msec
