                         Program Version 6.0.1  -  RELEASE   -
|  1> ! r2scan-3c def2/J RI DEFGRID2 scfconv6 printgap
|  2> %output
|  3>     printlevel normal
|  4> end
|  5> * xyz 0 1
|  6> C -1.5913220181 0.938705964 0.0929005044
|  7> C -1.3089779511 -0.5573255596 -0.0027079476
|  8> C 0.0762648177 -0.9954813768 -0.3912674206
|  9> C 1.2671989061 -0.4402797934 -0.2181177331
| 10> C 1.6485577529 0.8482502735 0.4382203688
| 11> H -1.2187510505 1.4567873523 -0.7878058909
| 12> H -1.1445264201 1.3741478384 0.9822315585
| 13> H -2.6667592072 1.0989029777 0.1511824741
| 14> H -1.5507246223 -1.0260449817 0.9583237077
| 15> H -1.9962683024 -0.9852635144 -0.7385568434
| 16> H 0.0677192515 -1.9691958724 -0.869637066
| 17> H 2.1221921978 -1.00531771 -0.5727940272
| 18> H 2.5247832375 1.2670021584 -0.0541098695
| 19> H 1.9144999369 0.6613265681 1.4801457679
| 20> H 0.8548029067 1.5840827475 0.4159546386
| 21> *
| 22>
| 23>                          ****END OF INPUT****

CARTESIAN COORDINATES (ANGSTROEM)
---------------------------------
  C     -1.591322    0.938706    0.092901
  C     -1.308978   -0.557326   -0.002708
  C      0.076265   -0.995481   -0.391267
  C      1.267199   -0.440280   -0.218118
  C      1.648558    0.848250    0.438220
  H     -1.218751    1.456787   -0.787806
  H     -1.144526    1.374148    0.982232
  H     -2.666759    1.098903    0.151182
  H     -1.550725   -1.026045    0.958324
  H     -1.996268   -0.985264   -0.738557
  H      0.067719   -1.969196   -0.869637
  H      2.122192   -1.005318   -0.572794
  H      2.524783    1.267002   -0.054110
  H      1.914500    0.661327    1.480146
  H      0.854803    1.584083    0.415955

 Total Charge           Charge          ....    0
 Multiplicity           Mult            ....    1
 Number of Electrons    NEL             ....   40
 Basis Dimension        Dim             ....  145

ORBITAL ENERGIES
----------------

  NO   OCC          E(Eh)            E(eV)
   0   2.0000     -10.030725      -272.9499
   1   2.0000     -10.023051      -272.7411
   2   2.0000     -10.020694      -272.6770
   3   2.0000     -10.019690      -272.6496
   4   2.0000     -10.018169      -272.6082
   5   2.0000      -0.768898       -20.9228
   6   2.0000      -0.715749       -19.4765
   7   2.0000      -0.654734       -17.8162
   8   2.0000      -0.585248       -15.9254
   9   2.0000      -0.486350       -13.2343
  10   2.0000      -0.442185       -12.0325
  11   2.0000      -0.414073       -11.2675
  12   2.0000      -0.387415       -10.5421
  13   2.0000      -0.378560       -10.3011
  14   2.0000      -0.357999        -9.7416
  15   2.0000      -0.350691        -9.5428
  16   2.0000      -0.327052        -8.8995
  17   2.0000      -0.301367        -8.2006
  18   2.0000      -0.284783        -7.7494
  19   2.0000      -0.217119        -5.9081
  20   0.0000       0.000761         0.0207
  21   0.0000       0.084446         2.2979
  22   0.0000       0.118847         3.2340
  23   0.0000       0.129295         3.5183
  24   0.0000       0.138077         3.7573

MULLIKEN ATOMIC CHARGES
-----------------------
   0 C :   -0.505374
   1 C :   -0.201850
   2 C :   -0.183349
   3 C :   -0.115652
   4 C :   -0.479007
   5 H :    0.160372
   6 H :    0.144171
   7 H :    0.144223
   8 H :    0.148547
   9 H :    0.136345
  10 H :    0.145766
  11 H :    0.146211
  12 H :    0.143177
  13 H :    0.157405
  14 H :    0.159015
Sum of atomic charges:   -0.0000000

LOEWDIN ATOMIC CHARGES
----------------------
   0 C :   -0.425475
   1 C :   -0.305268
   2 C :   -0.214091
   3 C :   -0.215187
   4 C :   -0.414173
   5 H :    0.153657
   6 H :    0.148742
   7 H :    0.150804
   8 H :    0.164456
   9 H :    0.157147
  10 H :    0.162281
  11 H :    0.159962
  12 H :    0.155603
  13 H :    0.162053
  14 H :    0.159490

  Mayer bond orders larger than 0.100000
B(  0-C ,  1-C ) :   0.8903 B(  0-C ,  5-H ) :   0.9852 B(  0-C ,  6-H ) :   0.9701
B(  0-C ,  7-H ) :   0.9714 B(  1-C ,  2-C ) :   0.9416 B(  1-C ,  8-H ) :   0.9585
B(  1-C ,  9-H ) :   0.9843 B(  2-C ,  3-C ) :   1.9312 B(  2-C , 10-H ) :   0.9439
B(  3-C ,  4-C ) :   0.9086 B(  3-C , 11-H ) :   0.9434 B(  4-C , 12-H ) :   0.9724
B(  4-C , 13-H ) :   0.9654 B(  4-C , 14-H ) :   0.9829

Dispersion correction           -0.003383291
FINAL SINGLE POINT ENERGY      -196.453729431260

DIPOLE MOMENT
-------------

Method             : SCF
Type of density    : Electron Density
Multiplicity       :   1
Irrep              :   0
Energy             :  -196.4567664475809750 Eh
Relativity type    :
Basis              : AO
                                X                 Y                 Z
Electronic contribution:      0.942737349      -2.239762534      -0.806304545
Nuclear contribution   :     -1.025442291       2.304529550       0.905265836
                        -----------------------------------------
Total Dipole Moment    :     -0.082704942       0.064767016       0.098961292
                        -----------------------------------------
Magnitude (a.u.)       :      0.144319822
Magnitude (Debye)      :      0.366831835

Rotational constants in cm-1:             0.258504             0.119288             0.086934
Rotational constants in MHz :          7749.742718          3576.152970          2606.212672

                             ****ORCA TERMINATED NORMALLY****
TOTAL RUN TIME: 0 days 0 hours 0 minutes 9 seconds 705 msec
