                         Program Version 6.0.1  -  RELEASE   -
|  1> ! pbe def2-sv(p) def2/J RI DEFGRID1 loosescf d4 GCP(DFT/SV(P)) printgap
|  2> %output
|  3>     printlevel normal
|  4> end
|  5> * xyz 0 1
|  6> C -3.3665470428 0.6066039224 0.0012847763
|  7> O -1.9576151659 0.772239032 0.0001511914
|  8> C -1.2371393224 -0.3615040273 -0.0006293633
|  9> O -1.7411744631 -1.4583931249 -0.0008348083
| 10> C 0.2235176263 -0.1103151569 -0.0006211433
| 11> C 0.7501432253 1.1786589357 -0.0009376258
| 12> C 2.1206373965 1.3601485667 -0.0003299645
| 13> C 2.9696899802 0.264401263 0.0006616605
| 14> C 2.4488963479 -1.0200951955 0.0008377694
| 15> C 1.0802619556 -1.208856398 0.0001608229
| 16> H -3.683143835 0.0531835857 0.888003246
| 17> H -3.6848856142 0.0555469783 -0.8862403725
| 18> H -3.7909770488 1.607299648 0.003044777
| 19> H 0.0827549337 2.02602383 -0.0017255288
| 20> H 2.5304706397 2.3594115447 -0.0005457025
| 21> H 4.0396638604 0.4125408978 0.0013106275
| 22> H 3.1117827204 -1.8724964866 0.0015455142
| 23> H 0.6502215632 -2.1990539891 0.0003714799
| 24> *
| 25>
| 26>                          ****END OF INPUT****

CARTESIAN COORDINATES (ANGSTROEM)
---------------------------------
  C     -3.366547    0.606604    0.001285
  O     -1.957615    0.772239    0.000151
  C     -1.237139   -0.361504   -0.000629
  O     -1.741174   -1.458393   -0.000835
  C      0.223518   -0.110315   -0.000621
  C      0.750143    1.178659   -0.000938
  C      2.120637    1.360149   -0.000330
  C      2.969690    0.264401    0.000662
  C      2.448896   -1.020095    0.000838
  C      1.080262   -1.208856    0.000161
  H     -3.683144    0.053184    0.888003
  H     -3.684886    0.055547   -0.886240
  H     -3.790977    1.607300    0.003045
  H      0.082755    2.026024   -0.001726
  H      2.530471    2.359412   -0.000546
  H      4.039664    0.412541    0.001311
  H      3.111783   -1.872496    0.001546
  H      0.650222   -2.199054    0.000371

 Total Charge           Charge          ....    0
 Multiplicity           Mult            ....    1
 Number of Electrons    NEL             ....   72
 Basis Dimension        Dim             ....  156

ORBITAL ENERGIES
----------------

  NO   OCC          E(Eh)            E(eV)
   0   2.0000     -18.801416      -511.6125
   1   2.0000     -18.737699      -509.8787
   2   2.0000     -10.007471      -272.3171
   3   2.0000      -9.940609      -270.4977
   4   2.0000      -9.909634      -269.6549
   5   2.0000      -9.904313      -269.5101
   6   2.0000      -9.902513      -269.4611
   7   2.0000      -9.901310      -269.4283
   8   2.0000      -9.901097      -269.4226
   9   2.0000      -9.900752      -269.4132
  10   2.0000      -1.007697       -27.4208
  11   2.0000      -0.916058       -24.9272
  12   2.0000      -0.786746       -21.4085
  13   2.0000      -0.702088       -19.1048
  14   2.0000      -0.679338       -18.4857
  15   2.0000      -0.653256       -17.7760
  16   2.0000      -0.566532       -15.4161
  17   2.0000      -0.549379       -14.9494
  18   2.0000      -0.510525       -13.8921
  19   2.0000      -0.489037       -13.3074
  20   2.0000      -0.437736       -11.9114
  21   2.0000      -0.435388       -11.8475
  22   2.0000      -0.424418       -11.5490
  23   2.0000      -0.404818       -11.0157
  24   2.0000      -0.390101       -10.6152
  25   2.0000      -0.383218       -10.4279
  26   2.0000      -0.372642       -10.1401
  27   2.0000      -0.365257        -9.9392
  28   2.0000      -0.331067        -9.0088
  29   2.0000      -0.321083        -8.7371
  30   2.0000      -0.313247        -8.5239
  31   2.0000      -0.301239        -8.1971
  32   2.0000      -0.261087        -7.1045
  33   2.0000      -0.239114        -6.5066
  34   2.0000      -0.237951        -6.4750
  35   2.0000      -0.226123        -6.1531
  36   0.0000      -0.075291        -2.0488
  37   0.0000      -0.042146        -1.1469
  38   0.0000       0.020247         0.5510
  39   0.0000       0.041270         1.1230
  40   0.0000       0.058003         1.5783

MULLIKEN ATOMIC CHARGES
-----------------------
   0 C :   -0.106706
   1 O :   -0.248338
   2 C :    0.155523
   3 O :   -0.184422
   4 C :    0.023918
   5 C :   -0.080281
   6 C :   -0.044752
   7 C :   -0.040805
   8 C :   -0.042586
   9 C :   -0.089879
  10 H :    0.118317
  11 H :    0.118301
  12 H :    0.119763
  13 H :    0.059197
  14 H :    0.057685
  15 H :    0.060743
  16 H :    0.059525
  17 H :    0.064798
Sum of atomic charges:   -0.0000000

LOEWDIN ATOMIC CHARGES
----------------------
   0 C :   -0.205409
   1 O :   -0.075222
   2 C :    0.045750
   3 O :   -0.152157
   4 C :   -0.077255
   5 C :   -0.099229
   6 C :   -0.121298
   7 C :   -0.108404
   8 C :   -0.119971
   9 C :   -0.089109
  10 H :    0.118925
  11 H :    0.118919
  12 H :    0.119263
  13 H :    0.130916
  14 H :    0.125943
  15 H :    0.126188
  16 H :    0.126976
  17 H :    0.135174

  Mayer bond orders larger than 0.100000
B(  0-C ,  1-O ) :   0.9474 B(  0-C , 10-H ) :   0.9508 B(  0-C , 11-H ) :   0.9509
B(  0-C , 12-H ) :   0.9587 B(  1-O ,  2-C ) :   1.2228 B(  2-C ,  3-O ) :   2.0733
B(  2-C ,  4-C ) :   0.9433 B(  4-C ,  5-C ) :   1.3652 B(  4-C ,  9-C ) :   1.3892
B(  5-C ,  6-C ) :   1.3600 B(  5-C , 13-H ) :   0.9592 B(  6-C ,  7-C ) :   1.3761
B(  6-C , 14-H ) :   0.9644 B(  7-C ,  8-C ) :   1.3673 B(  7-C , 15-H ) :   0.9641
B(  8-C ,  9-C ) :   1.3587 B(  8-C , 16-H ) :   0.9667 B(  9-C , 17-H ) :   0.9575

Dispersion correction           -0.018315012
FINAL SINGLE POINT ENERGY      -459.163192559342

DIPOLE MOMENT
-------------

Method             : SCF
Type of density    : Electron Density
Multiplicity       :   1
Irrep              :   0
Energy             :  -459.2196207102591075 Eh
Relativity type    :
Basis              : AO
                                X                 Y                 Z
Electronic contribution:      0.921865539      -1.610204660      -0.004523471
Nuclear contribution   :     -0.752889326       2.281278181       0.005397530
                        -----------------------------------------
Total Dipole Moment    :      0.168976212       0.671073521       0.000874059
                        -----------------------------------------
Magnitude (a.u.)       :      0.692021239
Magnitude (Debye)      :      1.758978201

Rotational constants in cm-1:             0.118693             0.028370             0.022996
Rotational constants in MHz :          3558.312270           850.511878           689.410023

                             ****ORCA TERMINATED NORMALLY****
TOTAL RUN TIME: 0 days 0 hours 0 minutes 7 seconds 318 msec
