                         Program Version 6.0.0  -   RELEASE  -
|  1> ! r2SCAN-3c DEF2-TZVP FREQ
|  2> * xyzfile 0 1 censo.xyz
|  3>
|  4>                          ****END OF INPUT****

CARTESIAN COORDINATES (ANGSTROEM)
---------------------------------
  C      0.000036   -2.573275    0.000022
  C      1.207021   -1.886368    0.000017
  C      1.201787   -0.497182    0.000005
  C     -0.000000    0.219898   -0.000001
  C     -1.201769   -0.497213    0.000005
  C     -1.206967   -1.886398    0.000016
  Cl    -2.728491    0.348734   -0.000005
  Cl    -0.000025    1.954362   -0.000017
  Cl     2.728489    0.348802    0.000000
  H      0.000049   -3.657400    0.000033
  H      2.149985   -2.420080    0.000023
  H     -2.149918   -2.420135    0.000020

 Total Charge           Charge          ....    0
 Multiplicity           Mult            ....    1
 Number of Electrons    NEL             ....   90
 Basis Dimension        Dim             ....  315

ORBITAL ENERGIES
----------------

  NO   OCC          E(Eh)            E(eV)
   0   2.0000    -101.207919     -2754.0075
   1   2.0000    -101.206346     -2753.9647
   2   2.0000    -101.206344     -2753.9646
   3   2.0000     -10.128831      -275.6195
   4   2.0000     -10.126680      -275.5610
   5   2.0000     -10.126631      -275.5596
   6   2.0000     -10.069150      -273.9955
   7   2.0000     -10.069030      -273.9922
   8   2.0000     -10.068251      -273.9710
   9   2.0000      -9.383636      -255.3417
  10   2.0000      -9.382146      -255.3012
  11   2.0000      -9.382144      -255.3011
  12   2.0000      -7.129015      -193.9904
  13   2.0000      -7.127289      -193.9434
  14   2.0000      -7.127288      -193.9434
  15   2.0000      -7.118654      -193.7084
  16   2.0000      -7.117594      -193.6796
  17   2.0000      -7.117148      -193.6674
  18   2.0000      -7.117147      -193.6674
  19   2.0000      -7.116384      -193.6466
  20   2.0000      -7.116384      -193.6466
  21   2.0000      -0.902667       -24.5628
  22   2.0000      -0.851005       -23.1570
  23   2.0000      -0.828166       -22.5355
  24   2.0000      -0.804274       -21.8854
  25   2.0000      -0.717903       -19.5351
  26   2.0000      -0.717539       -19.5252
  27   2.0000      -0.595253       -16.1976
  28   2.0000      -0.594835       -16.1863
  29   2.0000      -0.506190       -13.7741
  30   2.0000      -0.481107       -13.0916
  31   2.0000      -0.455990       -12.4081
  32   2.0000      -0.428897       -11.6709
  33   2.0000      -0.426662       -11.6101
  34   2.0000      -0.415334       -11.3018
  35   2.0000      -0.370746       -10.0885
  36   2.0000      -0.368231       -10.0201
  37   2.0000      -0.352139        -9.5822
  38   2.0000      -0.331376        -9.0172
  39   2.0000      -0.313279        -8.5248
  40   2.0000      -0.310112        -8.4386
  41   2.0000      -0.303069        -8.2469
  42   2.0000      -0.281540        -7.6611
  43   2.0000      -0.244498        -6.6531
  44   2.0000      -0.243714        -6.6318
  45   0.0000      -0.066240        -1.8025
  46   0.0000      -0.065723        -1.7884
  47   0.0000      -0.049949        -1.3592
  48   0.0000       0.013811         0.3758
  49   0.0000       0.030039         0.8174

MULLIKEN ATOMIC CHARGES
-----------------------
   0 C :   -0.091419
   1 C :   -0.183360
   2 C :    0.112618
   3 C :    0.050264
   4 C :    0.112610
   5 C :   -0.183351
   6 Cl:   -0.077681
   7 Cl:   -0.051205
   8 Cl:   -0.077681
   9 H :    0.123612
  10 H :    0.132799
  11 H :    0.132794
Sum of atomic charges:    0.0000000

LOEWDIN ATOMIC CHARGES
----------------------
   0 C :   -0.129074
   1 C :   -0.140854
   2 C :   -0.426358
   3 C :   -0.446343
   4 C :   -0.426359
   5 C :   -0.140854
   6 Cl:    0.410576
   7 Cl:    0.431997
   8 Cl:    0.410575
   9 H :    0.151083
  10 H :    0.152805
  11 H :    0.152805

  Mayer bond orders larger than 0.100000
B(  0-C ,  1-C ) :   1.3861 B(  0-C ,  5-C ) :   1.3861 B(  0-C ,  9-H ) :   0.9679
B(  1-C ,  2-C ) :   1.3711 B(  1-C , 10-H ) :   0.9629 B(  2-C ,  3-C ) :   1.2687
B(  2-C ,  8-Cl) :   1.0697 B(  3-C ,  4-C ) :   1.2687 B(  3-C ,  7-Cl) :   1.1686
B(  4-C ,  5-C ) :   1.3711 B(  4-C ,  6-Cl) :   1.0697 B(  5-C , 11-H ) :   0.9629

Dispersion correction           -0.005601304
FINAL SINGLE POINT ENERGY     -1610.951284286111

DIPOLE MOMENT
-------------

Method             : SCF
Type of density    : Electron Density
Multiplicity       :   1
Irrep              :   0
Energy             : -1610.9518112611690412 Eh
Relativity type    :
Basis              : AO
                                X                 Y                 Z
Electronic contribution:     -0.000136623      10.540843555      -0.000092543
Nuclear contribution   :      0.000148979     -11.532143836       0.000101564
                        -----------------------------------------
Total Dipole Moment    :      0.000012356      -0.991300281       0.000009021
                        -----------------------------------------
Magnitude (a.u.)       :      0.991300281
Magnitude (Debye)      :      2.519685072

VIBRATIONAL FREQUENCIES
-----------------------

Scaling factor for frequencies =  1.000000000  (already applied!)

     0:       0.00 cm**-1
     1:       0.00 cm**-1
     2:       0.00 cm**-1
     3:       0.00 cm**-1
     4:       0.00 cm**-1
     5:       0.00 cm**-1
     6:      91.13 cm**-1
     7:     205.96 cm**-1
     8:     211.27 cm**-1
     9:     216.74 cm**-1
    10:     254.84 cm**-1
    11:     342.78 cm**-1
    12:     401.04 cm**-1
    13:     486.78 cm**-1
    14:     499.29 cm**-1
    15:     516.78 cm**-1
    16:     537.37 cm**-1
    17:     713.09 cm**-1
    18:     737.85 cm**-1
    19:     774.34 cm**-1
    20:     780.21 cm**-1
    21:     896.23 cm**-1
    22:     957.61 cm**-1
    23:    1045.55 cm**-1
    24:    1095.14 cm**-1
    25:    1153.12 cm**-1
    26:    1174.55 cm**-1
    27:    1214.42 cm**-1
    28:    1322.62 cm**-1
    29:    1430.21 cm**-1
    30:    1455.70 cm**-1
    31:    1588.88 cm**-1
    32:    1595.43 cm**-1
    33:    3181.29 cm**-1
    34:    3197.40 cm**-1
    35:    3203.16 cm**-1

IR SPECTRUM
-----------

 Mode   freq       eps      Int      T**2         TX        TY        TZ
       cm**-1   L/(mol*cm) km/mol    a.u.
----------------------------------------------------------------------------
  6:     91.13   0.000030    0.15  0.000104  ( 0.000000 -0.000000  0.010209)
  7:    205.96   0.000000    0.00  0.000000  ( 0.000000 -0.000000  0.000000)
  8:    211.27   0.000001    0.00  0.000001  (-0.000000 -0.000880 -0.000000)
  9:    216.74   0.000013    0.07  0.000019  (-0.004340 -0.000000 -0.000000)
 10:    254.84   0.000390    1.97  0.000477  ( 0.000000 -0.000001  0.021844)
 11:    342.78   0.000025    0.13  0.000023  ( 0.000000 -0.004818  0.000000)
 12:    401.04   0.000718    3.63  0.000559  ( 0.023639  0.000000 -0.000000)
 13:    486.78   0.000521    2.63  0.000334  (-0.018267  0.000000  0.000000)
 14:    499.29   0.002310   11.67  0.001444  (-0.000000  0.037999 -0.000000)
 15:    516.78   0.000001    0.00  0.000001  (-0.000000  0.000000  0.000726)
 16:    537.37   0.000000    0.00  0.000000  ( 0.000001 -0.000000 -0.000000)
 17:    713.09   0.002201   11.12  0.000963  (-0.000000 -0.000002  0.031037)
 18:    737.85   0.001526    7.71  0.000646  ( 0.000000 -0.025407  0.000000)
 19:    774.34   0.016975   85.78  0.006841  ( 0.082710  0.000001 -0.000000)
 20:    780.21   0.007990   40.38  0.003196  ( 0.000001 -0.000000  0.056533)
 21:    896.23   0.000000    0.00  0.000000  ( 0.000000 -0.000000  0.000000)
 22:    957.61   0.000095    0.48  0.000031  ( 0.000000  0.000001  0.005569)
 23:   1045.55   0.001273    6.43  0.000380  ( 0.000000 -0.019491  0.000000)
 24:   1095.14   0.002956   14.94  0.000842  ( 0.000000 -0.029021  0.000000)
 25:   1153.12   0.006875   34.74  0.001860  (-0.000000  0.043133 -0.000000)
 26:   1174.55   0.002292   11.59  0.000609  (-0.024679 -0.000000 -0.000000)
 27:   1214.42   0.003845   19.43  0.000988  (-0.031434 -0.000000 -0.000000)
 28:   1322.62   0.000581    2.94  0.000137  ( 0.011710  0.000000  0.000000)
 29:   1430.21   0.008975   45.35  0.001958  (-0.000000  0.044252 -0.000000)
 30:   1455.70   0.013216   66.79  0.002833  (-0.053227 -0.000000 -0.000000)
 31:   1588.88   0.007133   36.05  0.001401  ( 0.037430  0.000000  0.000000)
 32:   1595.43   0.000254    1.29  0.000050  (-0.000001 -0.007053  0.000000)
 33:   3181.29   0.000574    2.90  0.000056  (-0.000000  0.007503 -0.000000)
 34:   3197.40   0.000008    0.04  0.000001  ( 0.000879 -0.000000 -0.000000)
 35:   3203.16   0.000217    1.09  0.000021  (-0.000000  0.004594 -0.000000)

--------------------------
THERMOCHEMISTRY AT 298.15K
--------------------------

Temperature         ...   298.15 K
Pressure            ...     1.00 atm
Total Mass          ...   181.45 AMU
Quasi RRHO          ...     True
Cut-Off Frequency   ...     1.00 cm^-1

Throughout the following assumptions are being made:
  (1) The electronic state is orbitally nondegenerate
  (2) There are no thermally accessible electronically excited states
  (3) Hindered rotations indicated by low frequency modes are not
      treated as such but are treated as vibrations and this may
      cause some error
  (4) All equations used are the standard statistical mechanics
      equations for an ideal gas
  (5) All vibrations are strictly harmonic

freq.      91.13  E(vib)   ...       0.47
freq.     205.96  E(vib)   ...       0.35
freq.     211.27  E(vib)   ...       0.34
freq.     216.74  E(vib)   ...       0.34
freq.     254.84  E(vib)   ...       0.30
freq.     342.78  E(vib)   ...       0.23
freq.     401.04  E(vib)   ...       0.19
freq.     486.78  E(vib)   ...       0.15
freq.     499.29  E(vib)   ...       0.14
freq.     516.78  E(vib)   ...       0.13
freq.     537.37  E(vib)   ...       0.12
freq.     713.09  E(vib)   ...       0.07
freq.     737.85  E(vib)   ...       0.06
freq.     774.34  E(vib)   ...       0.05
freq.     780.21  E(vib)   ...       0.05
freq.     896.23  E(vib)   ...       0.03
freq.     957.61  E(vib)   ...       0.03
freq.    1045.55  E(vib)   ...       0.02
freq.    1095.14  E(vib)   ...       0.02
freq.    1153.12  E(vib)   ...       0.01
freq.    1174.55  E(vib)   ...       0.01
freq.    1214.42  E(vib)   ...       0.01
freq.    1322.62  E(vib)   ...       0.01
freq.    1430.21  E(vib)   ...       0.00
freq.    1455.70  E(vib)   ...       0.00
freq.    1588.88  E(vib)   ...       0.00
freq.    1595.43  E(vib)   ...       0.00
freq.    3181.29  E(vib)   ...       0.00
freq.    3197.40  E(vib)   ...       0.00
freq.    3203.16  E(vib)   ...       0.00

------------
INNER ENERGY
------------

The inner energy is: U= E(el) + E(ZPE) + E(vib) + E(rot) + E(trans)
    E(el)   - is the total energy from the electronic structure calculation
              = E(kin-el) + E(nuc-el) + E(el-el) + E(nuc-nuc)
    E(ZPE)  - the the zero temperature vibrational energy from the frequency calculation
    E(vib)  - the the finite temperature correction to E(ZPE) due to population
              of excited vibrational states
    E(rot)  - is the rotational thermal energy
    E(trans)- is the translational thermal energy

Summary of contributions to the inner energy U:
Electronic energy                ...  -1610.95128429 Eh
Zero point energy                ...      0.07126289 Eh      44.72 kcal/mol
Thermal vibrational correction   ...      0.00502234 Eh       3.15 kcal/mol
Thermal rotational correction    ...      0.00141627 Eh       0.89 kcal/mol
Thermal translational correction ...      0.00141627 Eh       0.89 kcal/mol
-----------------------------------------------------------------------
Total thermal energy                  -1610.87216651 Eh

Summary of corrections to the electronic energy:
(perhaps to be used in another calculation)
Total thermal correction                  0.00785488 Eh       4.93 kcal/mol
Non-thermal (ZPE) correction              0.07126289 Eh      44.72 kcal/mol
-----------------------------------------------------------------------
Total correction                          0.07911777 Eh      49.65 kcal/mol

--------
ENTHALPY
--------

The enthalpy is H = U + kB*T
                kB is Boltzmann's constant
Total thermal energy              ...  -1610.87216651 Eh
Thermal Enthalpy correction       ...      0.00094421 Eh       0.59 kcal/mol
-----------------------------------------------------------------------
Total Enthalpy                    ...  -1610.87122230 Eh

Note: Rotational entropy computed according to Herzberg
Infrared and Raman Spectra, Chapter V,1, Van Nostrand Reinhold, 1945
Point Group:  C2v, Symmetry Number:   2
Rotational constants in cm-1:     0.049456     0.027778     0.017787

Vibrational entropy computed according to the QRRHO of S. Grimme
Chem.Eur.J. 2012 18 9955 using a reference frequency of 100.0 cm-1

-------
ENTROPY
-------

The entropy contributions are T*S = T*(S(el)+S(vib)+S(rot)+S(trans))
     S(el)   - electronic entropy
     S(vib)  - vibrational entropy
     S(rot)  - rotational entropy
     S(trans)- translational entropy
The entropies will be listed as multiplied by the temperature to get
units of energy

Electronic entropy                ...      0.00000000 Eh      0.00 kcal/mol
Vibrational entropy               ...      0.00824661 Eh      5.17 kcal/mol
Rotational entropy                ...      0.01386971 Eh      8.70 kcal/mol
Translational entropy             ...      0.01971506 Eh     12.37 kcal/mol
-----------------------------------------------------------------------
Final entropy term                ...      0.04183138 Eh     26.25 kcal/mol

In case the symmetry of your molecule has not been determined correctly
or in case you have a reason to use a different symmetry number we print
out the resulting rotational entropy values for sn=1,12:

 non-linear molecules -----------------------------------
|  sn= 1 | S(rot)=       0.01452417 Eh      9.11 kcal/mol|
|  sn= 2 | S(rot)=       0.01386971 Eh      8.70 kcal/mol|
|  sn= 3 | S(rot)=       0.01348688 Eh      8.46 kcal/mol|
|  sn= 4 | S(rot)=       0.01321525 Eh      8.29 kcal/mol|
|  sn= 5 | S(rot)=       0.01300457 Eh      8.16 kcal/mol|
|  sn= 6 | S(rot)=       0.01283242 Eh      8.05 kcal/mol|
|  sn= 7 | S(rot)=       0.01268688 Eh      7.96 kcal/mol|
|  sn= 8 | S(rot)=       0.01256080 Eh      7.88 kcal/mol|
|  sn= 9 | S(rot)=       0.01244959 Eh      7.81 kcal/mol|
|  sn=10 | S(rot)=       0.01235011 Eh      7.75 kcal/mol|
|  sn=11 | S(rot)=       0.01226012 Eh      7.69 kcal/mol|
|  sn=12 | S(rot)=       0.01217797 Eh      7.64 kcal/mol|
 linear molecules ---------------------------------------
|  Dinfh | S(rot)=       0.00913018 Eh      5.73 kcal/mol|
|  Cinfv | S(rot)=       0.00978463 Eh      6.14 kcal/mol|
 --------------------------------------------------------

-------------------
GIBBS FREE ENERGY
-------------------

The Gibbs free energy is G = H - T*S

Total enthalpy                    ...  -1610.87122230 Eh
Total entropy correction          ...     -0.04183138 Eh    -26.25 kcal/mol
-----------------------------------------------------------------------
Final Gibbs free energy         ...  -1610.91305369 Eh

For completeness - the Gibbs free energy minus the electronic energy
G-E(el)                           ...      0.03823060 Eh     23.99 kcal/mol

                             ****ORCA TERMINATED NORMALLY****
TOTAL RUN TIME: 0 days 0 hours 9 minutes 6 seconds 462 msec
