                         Program Version 6.0.0  -   RELEASE  -
|  1> ! r2SCAN-3c DEF2-TZVP FREQ
|  2> * xyzfile 0 1 vacuum_censo.xyz
|  3>
|  4>                          ****END OF INPUT****

CARTESIAN COORDINATES (ANGSTROEM)
---------------------------------
  C      0.000064   -2.571492    0.000090
  C      1.205481   -1.882963    0.000058
  C      1.203107   -0.492729    0.000012
  C     -0.000007    0.224753    0.000001
  C     -1.203081   -0.492789    0.000038
  C     -1.205385   -1.883022    0.000079
  Cl    -2.727368    0.345992    0.000036
  Cl    -0.000055    1.953596   -0.000055
  Cl     2.727356    0.346124   -0.000030
  H      0.000095   -3.655769    0.000125
  H      2.151909   -2.409713    0.000069
  H     -2.151784   -2.409823    0.000109

 Total Charge           Charge          ....    0
 Multiplicity           Mult            ....    1
 Number of Electrons    NEL             ....   90
 Basis Dimension        Dim             ....  315

ORBITAL ENERGIES
----------------

  NO   OCC          E(Eh)            E(eV)
   0   2.0000    -101.207888     -2754.0067
   1   2.0000    -101.206559     -2753.9705
   2   2.0000    -101.206557     -2753.9704
   3   2.0000     -10.128296      -275.6049
   4   2.0000     -10.126060      -275.5441
   5   2.0000     -10.126013      -275.5428
   6   2.0000     -10.068622      -273.9811
   7   2.0000     -10.068468      -273.9770
   8   2.0000     -10.067841      -273.9599
   9   2.0000      -9.383703      -255.3435
  10   2.0000      -9.382438      -255.3091
  11   2.0000      -9.382436      -255.3091
  12   2.0000      -7.129037      -193.9910
  13   2.0000      -7.127554      -193.9506
  14   2.0000      -7.127554      -193.9506
  15   2.0000      -7.118735      -193.7106
  16   2.0000      -7.117667      -193.6816
  17   2.0000      -7.117443      -193.6755
  18   2.0000      -7.117443      -193.6755
  19   2.0000      -7.116675      -193.6546
  20   2.0000      -7.116675      -193.6546
  21   2.0000      -0.903153       -24.5760
  22   2.0000      -0.852299       -23.1922
  23   2.0000      -0.829014       -22.5586
  24   2.0000      -0.804734       -21.8979
  25   2.0000      -0.717197       -19.5159
  26   2.0000      -0.716843       -19.5063
  27   2.0000      -0.595041       -16.1919
  28   2.0000      -0.594403       -16.1745
  29   2.0000      -0.506005       -13.7691
  30   2.0000      -0.480897       -13.0859
  31   2.0000      -0.456593       -12.4245
  32   2.0000      -0.429056       -11.6752
  33   2.0000      -0.426619       -11.6089
  34   2.0000      -0.415423       -11.3042
  35   2.0000      -0.370646       -10.0858
  36   2.0000      -0.368492       -10.0272
  37   2.0000      -0.352836        -9.6012
  38   2.0000      -0.331733        -9.0269
  39   2.0000      -0.312934        -8.5154
  40   2.0000      -0.310399        -8.4464
  41   2.0000      -0.303213        -8.2509
  42   2.0000      -0.282004        -7.6737
  43   2.0000      -0.243794        -6.6340
  44   2.0000      -0.243077        -6.6145
  45   0.0000      -0.066009        -1.7962
  46   0.0000      -0.065429        -1.7804
  47   0.0000      -0.047647        -1.2965
  48   0.0000       0.015561         0.4234
  49   0.0000       0.031694         0.8624

MULLIKEN ATOMIC CHARGES
-----------------------
   0 C :   -0.099161
   1 C :   -0.176960
   2 C :    0.107025
   3 C :    0.053006
   4 C :    0.107022
   5 C :   -0.176959
   6 Cl:   -0.075535
   7 Cl:   -0.050395
   8 Cl:   -0.075536
   9 H :    0.123269
  10 H :    0.132111
  11 H :    0.132111
Sum of atomic charges:    0.0000000

LOEWDIN ATOMIC CHARGES
----------------------
   0 C :   -0.129736
   1 C :   -0.141248
   2 C :   -0.431341
   3 C :   -0.451074
   4 C :   -0.431345
   5 C :   -0.141247
   6 Cl:    0.416378
   7 Cl:    0.437272
   8 Cl:    0.416375
   9 H :    0.151162
  10 H :    0.152402
  11 H :    0.152402

  Mayer bond orders larger than 0.100000
B(  0-C ,  1-C ) :   1.3857 B(  0-C ,  5-C ) :   1.3857 B(  0-C ,  9-H ) :   0.9689
B(  1-C ,  2-C ) :   1.3704 B(  1-C , 10-H ) :   0.9629 B(  2-C ,  3-C ) :   1.2679
B(  2-C ,  8-Cl) :   1.0734 B(  3-C ,  4-C ) :   1.2679 B(  3-C ,  7-Cl) :   1.1711
B(  4-C ,  5-C ) :   1.3704 B(  4-C ,  6-Cl) :   1.0734 B(  5-C , 11-H ) :   0.9629

Dispersion correction           -0.005604767
FINAL SINGLE POINT ENERGY     -1610.951528862763

DIPOLE MOMENT
-------------

Method             : SCF
Type of density    : Electron Density
Multiplicity       :   1
Irrep              :   0
Energy             : -1610.9520849162095146 Eh
Relativity type    :
Basis              : AO
                                X                 Y                 Z
Electronic contribution:     -0.000271781      10.528367004      -0.000329958
Nuclear contribution   :      0.000295188     -11.502436420       0.000362225
                        -----------------------------------------
Total Dipole Moment    :      0.000023407      -0.974069416       0.000032267
                        -----------------------------------------
Magnitude (a.u.)       :      0.974069417
Magnitude (Debye)      :      2.475887697

VIBRATIONAL FREQUENCIES
-----------------------

Scaling factor for frequencies =  1.000000000  (already applied!)

     0:       0.00 cm**-1
     1:       0.00 cm**-1
     2:       0.00 cm**-1
     3:       0.00 cm**-1
     4:       0.00 cm**-1
     5:       0.00 cm**-1
     6:      89.47 cm**-1
     7:     204.27 cm**-1
     8:     210.79 cm**-1
     9:     215.67 cm**-1
    10:     252.33 cm**-1
    11:     344.94 cm**-1
    12:     403.35 cm**-1
    13:     488.45 cm**-1
    14:     503.67 cm**-1
    15:     516.65 cm**-1
    16:     536.96 cm**-1
    17:     713.04 cm**-1
    18:     741.70 cm**-1
    19:     780.56 cm**-1
    20:     780.87 cm**-1
    21:     895.46 cm**-1
    22:     957.21 cm**-1
    23:    1050.06 cm**-1
    24:    1098.28 cm**-1
    25:    1156.20 cm**-1
    26:    1174.04 cm**-1
    27:    1215.31 cm**-1
    28:    1318.55 cm**-1
    29:    1430.15 cm**-1
    30:    1455.06 cm**-1
    31:    1588.64 cm**-1
    32:    1594.06 cm**-1
    33:    3180.99 cm**-1
    34:    3200.50 cm**-1
    35:    3205.30 cm**-1

IR SPECTRUM
-----------

 Mode   freq       eps      Int      T**2         TX        TY        TZ
       cm**-1   L/(mol*cm) km/mol    a.u.
----------------------------------------------------------------------------
  6:     89.47   0.000029    0.15  0.000101  ( 0.000000  0.000001 -0.010056)
  7:    204.27   0.000000    0.00  0.000000  ( 0.000003  0.000001 -0.000000)
  8:    210.79   0.000001    0.00  0.000001  (-0.000001 -0.000929 -0.000000)
  9:    215.67   0.000013    0.06  0.000018  (-0.004279 -0.000000 -0.000000)
 10:    252.33   0.000405    2.05  0.000501  (-0.000001 -0.000004  0.022386)
 11:    344.94   0.000025    0.12  0.000022  ( 0.000000  0.004728 -0.000000)
 12:    403.35   0.000644    3.25  0.000498  (-0.022318 -0.000001  0.000000)
 13:    488.45   0.000474    2.40  0.000303  (-0.017411 -0.000000  0.000000)
 14:    503.67   0.002184   11.04  0.001353  (-0.000001  0.036783 -0.000001)
 15:    516.65   0.000001    0.00  0.000000  (-0.000001  0.000006  0.000682)
 16:    536.96   0.000000    0.00  0.000000  ( 0.000004  0.000001 -0.000000)
 17:    713.04   0.002285   11.55  0.001000  ( 0.000001 -0.000001  0.031627)
 18:    741.70   0.001484    7.50  0.000624  (-0.000001  0.024986 -0.000001)
 19:    780.56   0.016692   84.36  0.006673  (-0.081691 -0.000002 -0.000051)
 20:    780.87   0.007862   39.73  0.003142  ( 0.000077  0.000003 -0.056053)
 21:    895.46   0.000000    0.00  0.000000  ( 0.000001  0.000000  0.000000)
 22:    957.21   0.000086    0.43  0.000028  (-0.000000  0.000001  0.005290)
 23:   1050.06   0.001553    7.85  0.000461  (-0.000000  0.021481 -0.000001)
 24:   1098.28   0.002636   13.32  0.000749  (-0.000000  0.027368 -0.000001)
 25:   1156.20   0.006990   35.33  0.001887  ( 0.000001  0.043437 -0.000001)
 26:   1174.04   0.002222   11.23  0.000591  ( 0.024302 -0.000001 -0.000000)
 27:   1215.31   0.004164   21.04  0.001069  (-0.032700 -0.000000  0.000000)
 28:   1318.55   0.000669    3.38  0.000158  ( 0.012588  0.000001 -0.000000)
 29:   1430.15   0.009193   46.46  0.002006  (-0.000001 -0.044787  0.000001)
 30:   1455.06   0.013132   66.36  0.002816  (-0.053070  0.000000  0.000001)
 31:   1588.64   0.007153   36.15  0.001405  (-0.037484  0.000001  0.000001)
 32:   1594.06   0.000268    1.35  0.000052  (-0.000006 -0.007243  0.000000)
 33:   3180.99   0.000593    3.00  0.000058  (-0.000000  0.007629 -0.000000)
 34:   3200.50   0.000014    0.07  0.000001  (-0.001181  0.000003 -0.000000)
 35:   3205.30   0.000182    0.92  0.000018  (-0.000001 -0.004206  0.000000)

--------------------------
THERMOCHEMISTRY AT 298.15K
--------------------------

Temperature         ...   298.15 K
Pressure            ...     1.00 atm
Total Mass          ...   181.45 AMU
Quasi RRHO          ...     True
Cut-Off Frequency   ...     1.00 cm^-1

Throughout the following assumptions are being made:
  (1) The electronic state is orbitally nondegenerate
  (2) There are no thermally accessible electronically excited states
  (3) Hindered rotations indicated by low frequency modes are not
      treated as such but are treated as vibrations and this may
      cause some error
  (4) All equations used are the standard statistical mechanics
      equations for an ideal gas
  (5) All vibrations are strictly harmonic

freq.      89.47  E(vib)   ...       0.47
freq.     204.27  E(vib)   ...       0.35
freq.     210.79  E(vib)   ...       0.34
freq.     215.67  E(vib)   ...       0.34
freq.     252.33  E(vib)   ...       0.30
freq.     344.94  E(vib)   ...       0.23
freq.     403.35  E(vib)   ...       0.19
freq.     488.45  E(vib)   ...       0.15
freq.     503.67  E(vib)   ...       0.14
freq.     516.65  E(vib)   ...       0.13
freq.     536.96  E(vib)   ...       0.12
freq.     713.04  E(vib)   ...       0.07
freq.     741.70  E(vib)   ...       0.06
freq.     780.56  E(vib)   ...       0.05
freq.     780.87  E(vib)   ...       0.05
freq.     895.46  E(vib)   ...       0.03
freq.     957.21  E(vib)   ...       0.03
freq.    1050.06  E(vib)   ...       0.02
freq.    1098.28  E(vib)   ...       0.02
freq.    1156.20  E(vib)   ...       0.01
freq.    1174.04  E(vib)   ...       0.01
freq.    1215.31  E(vib)   ...       0.01
freq.    1318.55  E(vib)   ...       0.01
freq.    1430.15  E(vib)   ...       0.00
freq.    1455.06  E(vib)   ...       0.00
freq.    1588.64  E(vib)   ...       0.00
freq.    1594.06  E(vib)   ...       0.00
freq.    3180.99  E(vib)   ...       0.00
freq.    3200.50  E(vib)   ...       0.00
freq.    3205.30  E(vib)   ...       0.00

------------
INNER ENERGY
------------

The inner energy is: U= E(el) + E(ZPE) + E(vib) + E(rot) + E(trans)
    E(el)   - is the total energy from the electronic structure calculation
              = E(kin-el) + E(nuc-el) + E(el-el) + E(nuc-nuc)
    E(ZPE)  - the the zero temperature vibrational energy from the frequency calculation
    E(vib)  - the the finite temperature correction to E(ZPE) due to population
              of excited vibrational states
    E(rot)  - is the rotational thermal energy
    E(trans)- is the translational thermal energy

Summary of contributions to the inner energy U:
Electronic energy                ...  -1610.95152886 Eh
Zero point energy                ...      0.07131242 Eh      44.75 kcal/mol
Thermal vibrational correction   ...      0.00502111 Eh       3.15 kcal/mol
Thermal rotational correction    ...      0.00141627 Eh       0.89 kcal/mol
Thermal translational correction ...      0.00141627 Eh       0.89 kcal/mol
-----------------------------------------------------------------------
Total thermal energy                  -1610.87236279 Eh

Summary of corrections to the electronic energy:
(perhaps to be used in another calculation)
Total thermal correction                  0.00785365 Eh       4.93 kcal/mol
Non-thermal (ZPE) correction              0.07131242 Eh      44.75 kcal/mol
-----------------------------------------------------------------------
Total correction                          0.07916607 Eh      49.68 kcal/mol

--------
ENTHALPY
--------

The enthalpy is H = U + kB*T
                kB is Boltzmann's constant
Total thermal energy              ...  -1610.87236279 Eh
Thermal Enthalpy correction       ...      0.00094421 Eh       0.59 kcal/mol
-----------------------------------------------------------------------
Total Enthalpy                    ...  -1610.87141858 Eh

Note: Rotational entropy computed according to Herzberg
Infrared and Raman Spectra, Chapter V,1, Van Nostrand Reinhold, 1945
Point Group:  C2v, Symmetry Number:   2
Rotational constants in cm-1:     0.049579     0.027797     0.017811

Vibrational entropy computed according to the QRRHO of S. Grimme
Chem.Eur.J. 2012 18 9955 using a reference frequency of 100.0 cm-1

-------
ENTROPY
-------

The entropy contributions are T*S = T*(S(el)+S(vib)+S(rot)+S(trans))
     S(el)   - electronic entropy
     S(vib)  - vibrational entropy
     S(rot)  - rotational entropy
     S(trans)- translational entropy
The entropies will be listed as multiplied by the temperature to get
units of energy

Electronic entropy                ...      0.00000000 Eh      0.00 kcal/mol
Vibrational entropy               ...      0.00825327 Eh      5.18 kcal/mol
Rotational entropy                ...      0.01386756 Eh      8.70 kcal/mol
Translational entropy             ...      0.01971506 Eh     12.37 kcal/mol
-----------------------------------------------------------------------
Final entropy term                ...      0.04183589 Eh     26.25 kcal/mol

In case the symmetry of your molecule has not been determined correctly
or in case you have a reason to use a different symmetry number we print
out the resulting rotational entropy values for sn=1,12:

 non-linear molecules -----------------------------------
|  sn= 1 | S(rot)=       0.01452201 Eh      9.11 kcal/mol|
|  sn= 2 | S(rot)=       0.01386756 Eh      8.70 kcal/mol|
|  sn= 3 | S(rot)=       0.01348472 Eh      8.46 kcal/mol|
|  sn= 4 | S(rot)=       0.01321310 Eh      8.29 kcal/mol|
|  sn= 5 | S(rot)=       0.01300241 Eh      8.16 kcal/mol|
|  sn= 6 | S(rot)=       0.01283027 Eh      8.05 kcal/mol|
|  sn= 7 | S(rot)=       0.01268472 Eh      7.96 kcal/mol|
|  sn= 8 | S(rot)=       0.01255864 Eh      7.88 kcal/mol|
|  sn= 9 | S(rot)=       0.01244743 Eh      7.81 kcal/mol|
|  sn=10 | S(rot)=       0.01234796 Eh      7.75 kcal/mol|
|  sn=11 | S(rot)=       0.01225797 Eh      7.69 kcal/mol|
|  sn=12 | S(rot)=       0.01217581 Eh      7.64 kcal/mol|
 linear molecules ---------------------------------------
|  Dinfh | S(rot)=       0.00912890 Eh      5.73 kcal/mol|
|  Cinfv | S(rot)=       0.00978335 Eh      6.14 kcal/mol|
 --------------------------------------------------------

-------------------
GIBBS FREE ENERGY
-------------------

The Gibbs free energy is G = H - T*S

Total enthalpy                    ...  -1610.87141858 Eh
Total entropy correction          ...     -0.04183589 Eh    -26.25 kcal/mol
-----------------------------------------------------------------------
Final Gibbs free energy         ...  -1610.91325447 Eh

For completeness - the Gibbs free energy minus the electronic energy
G-E(el)                           ...      0.03827439 Eh     24.02 kcal/mol

                             ****ORCA TERMINATED NORMALLY****
TOTAL RUN TIME: 0 days 0 hours 8 minutes 58 seconds 32 msec
