                         Program Version 6.0.0  -   RELEASE  -
|  1> ! r2SCAN-3c DEF2-TZVP FREQ
|  2> * xyzfile 0 1 censo.xyz
|  3>
|  4>                          ****END OF INPUT****

CARTESIAN COORDINATES (ANGSTROEM)
---------------------------------
  C     -3.659107    0.236412   -0.001357
  C     -2.165589    0.069229    0.001299
  C     -1.571389   -1.193349    0.000015
  C     -0.183440   -1.335462   -0.000980
  C      0.657315   -0.222195   -0.000524
  C      0.060523    1.045503    0.001142
  C     -1.321748    1.187363    0.002144
  C      2.163995   -0.378674   -0.001068
  C      2.790676    0.228116    1.259955
  C      2.790260    0.232136   -1.260350
  H     -4.165923   -0.731250    0.033977
  H     -3.991478    0.828374    0.858362
  H     -3.994892    0.763702   -0.901293
  H     -2.200773   -2.079648    0.000032
  H      0.252058   -2.331700   -0.001705
  H      0.684991    1.934881    0.002121
  H     -1.758626    2.183145    0.003707
  H      2.377877   -1.454832   -0.002798
  H      2.626295    1.310716    1.295489
  H      3.871686    0.052071    1.272600
  H      2.361699   -0.211054    2.166424
  H      2.625568    1.314791   -1.292579
  H      2.361264   -0.204412   -2.168076
  H      3.871322    0.056467   -1.273713

 Total Charge           Charge          ....    0
 Multiplicity           Mult            ....    1
 Number of Electrons    NEL             ....   74
 Basis Dimension        Dim             ....  394

ORBITAL ENERGIES
----------------

  NO   OCC          E(Eh)            E(eV)
   0   2.0000     -10.040455      -273.2147
   1   2.0000     -10.039103      -273.1779
   2   2.0000     -10.035733      -273.0862
   3   2.0000     -10.030865      -272.9537
   4   2.0000     -10.029874      -272.9268
   5   2.0000     -10.029739      -272.9231
   6   2.0000     -10.028995      -272.9028
   7   2.0000     -10.028180      -272.8807
   8   2.0000     -10.020727      -272.6778
   9   2.0000     -10.020722      -272.6777
  10   2.0000      -0.823332       -22.4040
  11   2.0000      -0.772154       -21.0114
  12   2.0000      -0.719757       -19.5856
  13   2.0000      -0.706977       -19.2378
  14   2.0000      -0.649574       -17.6758
  15   2.0000      -0.647570       -17.6213
  16   2.0000      -0.576623       -15.6907
  17   2.0000      -0.563505       -15.3338
  18   2.0000      -0.525747       -14.3063
  19   2.0000      -0.462390       -12.5823
  20   2.0000      -0.437826       -11.9138
  21   2.0000      -0.418850       -11.3975
  22   2.0000      -0.400615       -10.9013
  23   2.0000      -0.394963       -10.7475
  24   2.0000      -0.390320       -10.6211
  25   2.0000      -0.380902       -10.3649
  26   2.0000      -0.380870       -10.3640
  27   2.0000      -0.354385        -9.6433
  28   2.0000      -0.352393        -9.5891
  29   2.0000      -0.336934        -9.1684
  30   2.0000      -0.324437        -8.8284
  31   2.0000      -0.311811        -8.4848
  32   2.0000      -0.306521        -8.3409
  33   2.0000      -0.292106        -7.9486
  34   2.0000      -0.290307        -7.8997
  35   2.0000      -0.231236        -6.2923
  36   2.0000      -0.213903        -5.8206
  37   0.0000      -0.031255        -0.8505
  38   0.0000      -0.024801        -0.6749
  39   0.0000       0.045792         1.2461
  40   0.0000       0.062980         1.7138
  41   0.0000       0.068815         1.8726

MULLIKEN ATOMIC CHARGES
-----------------------
   0 C :   -0.350572
   1 C :    0.166595
   2 C :   -0.169762
   3 C :   -0.194426
   4 C :    0.220008
   5 C :   -0.214213
   6 C :   -0.190210
   7 C :   -0.006912
   8 C :   -0.332816
   9 C :   -0.332859
  10 H :    0.107388
  11 H :    0.116146
  12 H :    0.116837
  13 H :    0.094096
  14 H :    0.094875
  15 H :    0.100579
  16 H :    0.097101
  17 H :    0.047565
  18 H :    0.097369
  19 H :    0.104536
  20 H :    0.113382
  21 H :    0.097372
  22 H :    0.113363
  23 H :    0.104557
Sum of atomic charges:   -0.0000000

LOEWDIN ATOMIC CHARGES
----------------------
   0 C :   -0.255958
   1 C :   -0.176255
   2 C :   -0.120180
   3 C :   -0.114260
   4 C :   -0.127515
   5 C :   -0.108868
   6 C :   -0.115752
   7 C :   -0.268326
   8 C :   -0.273464
   9 C :   -0.273470
  10 H :    0.125049
  11 H :    0.128817
  12 H :    0.129140
  13 H :    0.142926
  14 H :    0.144030
  15 H :    0.144362
  16 H :    0.144201
  17 H :    0.151569
  18 H :    0.119725
  19 H :    0.119355
  20 H :    0.122899
  21 H :    0.119722
  22 H :    0.122892
  23 H :    0.119361

  Mayer bond orders larger than 0.100000
B(  0-C ,  1-C ) :   0.9085 B(  0-C , 10-H ) :   0.9899 B(  0-C , 11-H ) :   0.9682
B(  0-C , 12-H ) :   0.9653 B(  1-C ,  2-C ) :   1.3674 B(  1-C ,  6-C ) :   1.3005
B(  2-C ,  3-C ) :   1.4055 B(  2-C , 13-H ) :   0.9780 B(  3-C ,  4-C ) :   1.3446
B(  3-C , 14-H ) :   0.9779 B(  4-C ,  5-C ) :   1.2754 B(  4-C ,  7-C ) :   0.8919
B(  5-C ,  6-C ) :   1.4577 B(  5-C , 15-H ) :   0.9777 B(  6-C , 16-H ) :   0.9849
B(  7-C ,  8-C ) :   0.9714 B(  7-C ,  9-C ) :   0.9713 B(  7-C , 17-H ) :   0.9623
B(  8-C , 18-H ) :   0.9673 B(  8-C , 19-H ) :   0.9727 B(  8-C , 20-H ) :   0.9759
B(  9-C , 21-H ) :   0.9673 B(  9-C , 22-H ) :   0.9759 B(  9-C , 23-H ) :   0.9727

Dispersion correction           -0.008147945
FINAL SINGLE POINT ENERGY      -389.414927373305

DIPOLE MOMENT
-------------

Method             : SCF
Type of density    : Electron Density
Multiplicity       :   1
Irrep              :   0
Energy             :  -389.4153606575250706 Eh
Relativity type    :
Basis              : AO
                                X                 Y                 Z
Electronic contribution:     -4.663382446      -1.348372087       0.004718472
Nuclear contribution   :      4.646817459       1.355467781      -0.006579986
                        -----------------------------------------
Total Dipole Moment    :     -0.016564987       0.007095693      -0.001861515
                        -----------------------------------------
Magnitude (a.u.)       :      0.018116647
Magnitude (Debye)      :      0.046048857

VIBRATIONAL FREQUENCIES
-----------------------

Scaling factor for frequencies =  1.000000000  (already applied!)

     0:       0.00 cm**-1
     1:       0.00 cm**-1
     2:       0.00 cm**-1
     3:       0.00 cm**-1
     4:       0.00 cm**-1
     5:       0.00 cm**-1
     6:      50.82 cm**-1
     7:      68.48 cm**-1
     8:      98.17 cm**-1
     9:     198.05 cm**-1
    10:     215.01 cm**-1
    11:     251.85 cm**-1
    12:     280.75 cm**-1
    13:     294.34 cm**-1
    14:     361.38 cm**-1
    15:     388.74 cm**-1
    16:     414.34 cm**-1
    17:     449.57 cm**-1
    18:     539.74 cm**-1
    19:     546.40 cm**-1
    20:     660.00 cm**-1
    21:     701.56 cm**-1
    22:     743.18 cm**-1
    23:     823.97 cm**-1
    24:     825.69 cm**-1
    25:     840.61 cm**-1
    26:     901.79 cm**-1
    27:     929.81 cm**-1
    28:     939.40 cm**-1
    29:     947.04 cm**-1
    30:     963.18 cm**-1
    31:    1001.82 cm**-1
    32:    1040.88 cm**-1
    33:    1055.20 cm**-1
    34:    1074.17 cm**-1
    35:    1117.08 cm**-1
    36:    1131.39 cm**-1
    37:    1172.47 cm**-1
    38:    1203.35 cm**-1
    39:    1229.02 cm**-1
    40:    1236.25 cm**-1
    41:    1307.03 cm**-1
    42:    1333.23 cm**-1
    43:    1334.04 cm**-1
    44:    1370.20 cm**-1
    45:    1385.00 cm**-1
    46:    1400.70 cm**-1
    47:    1407.96 cm**-1
    48:    1438.54 cm**-1
    49:    1476.43 cm**-1
    50:    1476.73 cm**-1
    51:    1481.11 cm**-1
    52:    1488.89 cm**-1
    53:    1494.78 cm**-1
    54:    1500.26 cm**-1
    55:    1538.30 cm**-1
    56:    1603.10 cm**-1
    57:    1641.69 cm**-1
    58:    2999.39 cm**-1
    59:    3002.19 cm**-1
    60:    3005.20 cm**-1
    61:    3013.27 cm**-1
    62:    3065.96 cm**-1
    63:    3075.57 cm**-1
    64:    3081.02 cm**-1
    65:    3083.39 cm**-1
    66:    3086.19 cm**-1
    67:    3098.88 cm**-1
    68:    3139.47 cm**-1
    69:    3139.79 cm**-1
    70:    3156.05 cm**-1
    71:    3159.88 cm**-1

IR SPECTRUM
-----------

 Mode   freq       eps      Int      T**2         TX        TY        TZ
       cm**-1   L/(mol*cm) km/mol    a.u.
----------------------------------------------------------------------------
  6:     50.82   0.000019    0.09  0.000114  ( 0.000082  0.000295 -0.010655)
  7:     68.48   0.000050    0.25  0.000229  (-0.000536 -0.001703 -0.015037)
  8:     98.17   0.000137    0.69  0.000437  (-0.000465 -0.000424  0.020889)
  9:    198.05   0.000056    0.29  0.000089  (-0.004452 -0.008312  0.000063)
 10:    215.01   0.000074    0.37  0.000108  ( 0.000215  0.000101 -0.010366)
 11:    251.85   0.000018    0.09  0.000023  ( 0.000048  0.000018 -0.004756)
 12:    280.75   0.000021    0.10  0.000023  ( 0.004434  0.001849 -0.000005)
 13:    294.34   0.000021    0.11  0.000023  (-0.002513  0.004040 -0.000011)
 14:    361.38   0.000056    0.29  0.000049  ( 0.004868 -0.005008  0.000047)
 15:    388.74   0.000247    1.25  0.000198  (-0.000018 -0.000056 -0.014073)
 16:    414.34   0.000014    0.07  0.000010  ( 0.000016  0.000155 -0.003198)
 17:    449.57   0.000021    0.10  0.000014  ( 0.003718 -0.000689 -0.000051)
 18:    539.74   0.000010    0.05  0.000006  ( 0.001470 -0.001732 -0.000887)
 19:    546.40   0.004278   21.62  0.002443  (-0.000245  0.000034 -0.049430)
 20:    660.00   0.000009    0.05  0.000004  ( 0.000881 -0.001873  0.000031)
 21:    701.56   0.000076    0.39  0.000034  ( 0.005122 -0.002766 -0.000310)
 22:    743.18   0.000863    4.36  0.000362  ( 0.000088 -0.000026 -0.019031)
 23:    823.97   0.000154    0.78  0.000058  ( 0.001173  0.000726  0.007502)
 24:    825.69   0.005705   28.83  0.002156  (-0.000200  0.000057  0.046435)
 25:    840.61   0.000070    0.35  0.000026  ( 0.000047  0.000005 -0.005094)
 26:    901.79   0.000091    0.46  0.000031  (-0.003891 -0.004025 -0.000031)
 27:    929.81   0.000086    0.43  0.000029  ( 0.000039  0.000029 -0.005358)
 28:    939.40   0.000053    0.27  0.000018  (-0.000118 -0.000093 -0.004205)
 29:    947.04   0.000032    0.16  0.000011  ( 0.000294 -0.000092  0.003233)
 30:    963.18   0.000003    0.02  0.000001  ( 0.000059 -0.000029  0.000986)
 31:   1001.82   0.000266    1.34  0.000083  (-0.009097  0.000075 -0.000067)
 32:   1040.88   0.000555    2.80  0.000166  (-0.012855 -0.000979  0.000324)
 33:   1055.20   0.000648    3.27  0.000192  (-0.002344  0.000227 -0.013639)
 34:   1074.17   0.003765   19.03  0.001094  (-0.032544  0.005892  0.000005)
 35:   1117.08   0.000219    1.11  0.000061  (-0.000067 -0.000054  0.007819)
 36:   1131.39   0.001496    7.56  0.000413  ( 0.005030  0.019684  0.000012)
 37:   1172.47   0.000200    1.01  0.000053  ( 0.005560 -0.004728 -0.000010)
 38:   1203.35   0.000225    1.14  0.000058  (-0.007646  0.000061 -0.000050)
 39:   1229.02   0.000647    3.27  0.000164  (-0.012467  0.002954 -0.000184)
 40:   1236.25   0.000163    0.82  0.000041  ( 0.006413 -0.000097  0.000177)
 41:   1307.03   0.000738    3.73  0.000176  ( 0.012956 -0.002871 -0.000017)
 42:   1333.23   0.000387    1.96  0.000091  (-0.000040  0.000021 -0.009522)
 43:   1334.04   0.000303    1.53  0.000071  (-0.008352 -0.001042  0.000012)
 44:   1370.20   0.000593    3.00  0.000135  (-0.010483 -0.005022 -0.000001)
 45:   1385.00   0.001147    5.80  0.000258  ( 0.000009  0.000031 -0.016078)
 46:   1400.70   0.000126    0.63  0.000028  ( 0.004509 -0.002758  0.000157)
 47:   1407.96   0.000735    3.71  0.000163  (-0.004293 -0.012021 -0.000041)
 48:   1438.54   0.000336    1.70  0.000073  (-0.003466 -0.007803  0.000093)
 49:   1476.43   0.001327    6.71  0.000280  (-0.000159  0.000613  0.016735)
 50:   1476.73   0.000123    0.62  0.000026  ( 0.000094 -0.000333 -0.005096)
 51:   1481.11   0.000594    3.00  0.000125  (-0.000009  0.000023 -0.011187)
 52:   1488.89   0.003360   16.98  0.000704  (-0.003844 -0.026251  0.000483)
 53:   1494.78   0.000808    4.08  0.000169  (-0.003670 -0.012460 -0.000103)
 54:   1500.26   0.001460    7.38  0.000304  (-0.007095  0.015918  0.000063)
 55:   1538.30   0.005833   29.48  0.001183  ( 0.034009 -0.005163  0.000099)
 56:   1603.10   0.000185    0.93  0.000036  (-0.004720 -0.003700 -0.000004)
 57:   1641.69   0.000066    0.34  0.000013  (-0.002882  0.002079 -0.000050)
 58:   2999.39   0.006286   31.76  0.000654  ( 0.000069 -0.000022  0.025573)
 59:   3002.19   0.007349   37.14  0.000764  ( 0.026175  0.008873 -0.000012)
 60:   3005.20   0.006645   33.58  0.000690  ( 0.025584 -0.005930  0.000515)
 61:   3013.27   0.002910   14.71  0.000301  (-0.001021  0.017330  0.000035)
 62:   3065.96   0.003054   15.43  0.000311  ( 0.000787 -0.000220 -0.017611)
 63:   3075.57   0.000003    0.02  0.000000  ( 0.000019 -0.000010  0.000560)
 64:   3081.02   0.016303   82.39  0.001651  (-0.037353  0.016000  0.000024)
 65:   3083.39   0.003904   19.73  0.000395  (-0.000015 -0.000073  0.019879)
 66:   3086.19   0.006816   34.44  0.000689  (-0.007912 -0.025032 -0.000080)
 67:   3098.88   0.003337   16.87  0.000336  (-0.006709 -0.017061  0.000052)
 68:   3139.47   0.004387   22.17  0.000436  (-0.020090  0.005693  0.000014)
 69:   3139.79   0.000740    3.74  0.000074  ( 0.006157 -0.005972 -0.000009)
 70:   3156.05   0.007353   37.16  0.000727  ( 0.006465  0.026178  0.000015)
 71:   3159.88   0.000720    3.64  0.000071  ( 0.001852  0.008228  0.000020)

--------------------------
THERMOCHEMISTRY AT 298.15K
--------------------------

Temperature         ...   298.15 K
Pressure            ...     1.00 atm
Total Mass          ...   134.22 AMU
Quasi RRHO          ...     True
Cut-Off Frequency   ...     1.00 cm^-1

Throughout the following assumptions are being made:
  (1) The electronic state is orbitally nondegenerate
  (2) There are no thermally accessible electronically excited states
  (3) Hindered rotations indicated by low frequency modes are not
      treated as such but are treated as vibrations and this may
      cause some error
  (4) All equations used are the standard statistical mechanics
      equations for an ideal gas
  (5) All vibrations are strictly harmonic

freq.      50.82  E(vib)   ...       0.52
freq.      68.48  E(vib)   ...       0.50
freq.      98.17  E(vib)   ...       0.46
freq.     198.05  E(vib)   ...       0.35
freq.     215.01  E(vib)   ...       0.34
freq.     251.85  E(vib)   ...       0.30
freq.     280.75  E(vib)   ...       0.28
freq.     294.34  E(vib)   ...       0.27
freq.     361.38  E(vib)   ...       0.22
freq.     388.74  E(vib)   ...       0.20
freq.     414.34  E(vib)   ...       0.19
freq.     449.57  E(vib)   ...       0.17
freq.     539.74  E(vib)   ...       0.12
freq.     546.40  E(vib)   ...       0.12
freq.     660.00  E(vib)   ...       0.08
freq.     701.56  E(vib)   ...       0.07
freq.     743.18  E(vib)   ...       0.06
freq.     823.97  E(vib)   ...       0.05
freq.     825.69  E(vib)   ...       0.04
freq.     840.61  E(vib)   ...       0.04
freq.     901.79  E(vib)   ...       0.03
freq.     929.81  E(vib)   ...       0.03
freq.     939.40  E(vib)   ...       0.03
freq.     947.04  E(vib)   ...       0.03
freq.     963.18  E(vib)   ...       0.03
freq.    1001.82  E(vib)   ...       0.02
freq.    1040.88  E(vib)   ...       0.02
freq.    1055.20  E(vib)   ...       0.02
freq.    1074.17  E(vib)   ...       0.02
freq.    1117.08  E(vib)   ...       0.01
freq.    1131.39  E(vib)   ...       0.01
freq.    1172.47  E(vib)   ...       0.01
freq.    1203.35  E(vib)   ...       0.01
freq.    1229.02  E(vib)   ...       0.01
freq.    1236.25  E(vib)   ...       0.01
freq.    1307.03  E(vib)   ...       0.01
freq.    1333.23  E(vib)   ...       0.01
freq.    1334.04  E(vib)   ...       0.01
freq.    1370.20  E(vib)   ...       0.01
freq.    1385.00  E(vib)   ...       0.00
freq.    1400.70  E(vib)   ...       0.00
freq.    1407.96  E(vib)   ...       0.00
freq.    1438.54  E(vib)   ...       0.00
freq.    1476.43  E(vib)   ...       0.00
freq.    1476.73  E(vib)   ...       0.00
freq.    1481.11  E(vib)   ...       0.00
freq.    1488.89  E(vib)   ...       0.00
freq.    1494.78  E(vib)   ...       0.00
freq.    1500.26  E(vib)   ...       0.00
freq.    1538.30  E(vib)   ...       0.00
freq.    1603.10  E(vib)   ...       0.00
freq.    1641.69  E(vib)   ...       0.00
freq.    2999.39  E(vib)   ...       0.00
freq.    3002.19  E(vib)   ...       0.00
freq.    3005.20  E(vib)   ...       0.00
freq.    3013.27  E(vib)   ...       0.00
freq.    3065.96  E(vib)   ...       0.00
freq.    3075.57  E(vib)   ...       0.00
freq.    3081.02  E(vib)   ...       0.00
freq.    3083.39  E(vib)   ...       0.00
freq.    3086.19  E(vib)   ...       0.00
freq.    3098.88  E(vib)   ...       0.00
freq.    3139.47  E(vib)   ...       0.00
freq.    3139.79  E(vib)   ...       0.00
freq.    3156.05  E(vib)   ...       0.00
freq.    3159.88  E(vib)   ...       0.00

------------
INNER ENERGY
------------

The inner energy is: U= E(el) + E(ZPE) + E(vib) + E(rot) + E(trans)
    E(el)   - is the total energy from the electronic structure calculation
              = E(kin-el) + E(nuc-el) + E(el-el) + E(nuc-nuc)
    E(ZPE)  - the the zero temperature vibrational energy from the frequency calculation
    E(vib)  - the the finite temperature correction to E(ZPE) due to population
              of excited vibrational states
    E(rot)  - is the rotational thermal energy
    E(trans)- is the translational thermal energy

Summary of contributions to the inner energy U:
Electronic energy                ...   -389.41492737 Eh
Zero point energy                ...      0.21068432 Eh     132.21 kcal/mol
Thermal vibrational correction   ...      0.00757242 Eh       4.75 kcal/mol
Thermal rotational correction    ...      0.00141627 Eh       0.89 kcal/mol
Thermal translational correction ...      0.00141627 Eh       0.89 kcal/mol
-----------------------------------------------------------------------
Total thermal energy                   -389.19383809 Eh

Summary of corrections to the electronic energy:
(perhaps to be used in another calculation)
Total thermal correction                  0.01040496 Eh       6.53 kcal/mol
Non-thermal (ZPE) correction              0.21068432 Eh     132.21 kcal/mol
-----------------------------------------------------------------------
Total correction                          0.22108928 Eh     138.74 kcal/mol

--------
ENTHALPY
--------

The enthalpy is H = U + kB*T
                kB is Boltzmann's constant
Total thermal energy              ...   -389.19383809 Eh
Thermal Enthalpy correction       ...      0.00094421 Eh       0.59 kcal/mol
-----------------------------------------------------------------------
Total Enthalpy                    ...   -389.19289388 Eh

Note: Only C1 symmetry has been detected, increase convergence thresholds
      if your molecule has a higher symmetry. Symmetry factor of 1.0 is
      used for the rotational entropy correction.

Note: Rotational entropy computed according to Herzberg
Infrared and Raman Spectra, Chapter V,1, Van Nostrand Reinhold, 1945
Point Group:  C1, Symmetry Number:   1
Rotational constants in cm-1:     0.108995     0.024368     0.022942

Vibrational entropy computed according to the QRRHO of S. Grimme
Chem.Eur.J. 2012 18 9955 using a reference frequency of 100.0 cm-1

-------
ENTROPY
-------

The entropy contributions are T*S = T*(S(el)+S(vib)+S(rot)+S(trans))
     S(el)   - electronic entropy
     S(vib)  - vibrational entropy
     S(rot)  - rotational entropy
     S(trans)- translational entropy
The entropies will be listed as multiplied by the temperature to get
units of energy

Electronic entropy                ...      0.00000000 Eh      0.00 kcal/mol
Vibrational entropy               ...      0.01279948 Eh      8.03 kcal/mol
Rotational entropy                ...      0.01409278 Eh      8.84 kcal/mol
Translational entropy             ...      0.01928809 Eh     12.10 kcal/mol
-----------------------------------------------------------------------
Final entropy term                ...      0.04618035 Eh     28.98 kcal/mol

                             ****ORCA TERMINATED NORMALLY****
TOTAL RUN TIME: 0 days 0 hours 25 minutes 22 seconds 426 msec
