                         Program Version 6.0.0  -   RELEASE  -
|  1> ! r2SCAN-3c DEF2-TZVP FREQ
|  2> * xyzfile 0 1 vacuum_censo.xyz
|  3>
|  4>                          ****END OF INPUT****

CARTESIAN COORDINATES (ANGSTROEM)
---------------------------------
  C     -3.659006   -0.235161    0.005742
  C     -2.163897   -0.069670   -0.005214
  C     -1.569117    1.190583   -0.000690
  C     -0.183049    1.330817    0.003196
  C      0.656128    0.218216    0.002014
  C      0.058087   -1.046673   -0.003781
  C     -1.322645   -1.187023   -0.007968
  C      2.163008    0.374544    0.003460
  C      2.791696   -0.220788   -1.263151
  C      2.791581   -0.235142    1.263230
  H     -4.165699    0.721772   -0.141107
  H     -3.987133   -0.919054   -0.783695
  H     -4.001002   -0.652914    0.959459
  H     -2.196766    2.077823   -0.000990
  H      0.253006    2.326593    0.005333
  H      0.679908   -1.937618   -0.007207
  H     -1.759687   -2.182479   -0.013999
  H      2.376023    1.451665    0.009587
  H      2.630625   -1.303087   -1.308099
  H      3.872173   -0.042879   -1.278133
  H      2.354847    0.221086   -2.163450
  H      2.354932    0.196560    2.168542
  H      3.872061   -0.057435    1.280060
  H      2.630689   -1.317901    1.296016

 Total Charge           Charge          ....    0
 Multiplicity           Mult            ....    1
 Number of Electrons    NEL             ....   74
 Basis Dimension        Dim             ....  394

ORBITAL ENERGIES
----------------

  NO   OCC          E(Eh)            E(eV)
   0   2.0000     -10.040558      -273.2175
   1   2.0000     -10.038726      -273.1676
   2   2.0000     -10.035371      -273.0763
   3   2.0000     -10.030347      -272.9396
   4   2.0000     -10.029434      -272.9148
   5   2.0000     -10.029226      -272.9091
   6   2.0000     -10.028501      -272.8894
   7   2.0000     -10.028113      -272.8788
   8   2.0000     -10.020602      -272.6744
   9   2.0000     -10.020584      -272.6740
  10   2.0000      -0.824048       -22.4235
  11   2.0000      -0.771988       -21.0069
  12   2.0000      -0.719739       -19.5851
  13   2.0000      -0.707434       -19.2502
  14   2.0000      -0.649831       -17.6828
  15   2.0000      -0.647750       -17.6262
  16   2.0000      -0.576693       -15.6926
  17   2.0000      -0.563641       -15.3375
  18   2.0000      -0.526075       -14.3152
  19   2.0000      -0.462462       -12.5842
  20   2.0000      -0.437822       -11.9137
  21   2.0000      -0.418567       -11.3898
  22   2.0000      -0.400278       -10.8921
  23   2.0000      -0.395159       -10.7528
  24   2.0000      -0.390611       -10.6291
  25   2.0000      -0.381275       -10.3750
  26   2.0000      -0.381000       -10.3675
  27   2.0000      -0.354208        -9.6385
  28   2.0000      -0.352111        -9.5814
  29   2.0000      -0.337046        -9.1715
  30   2.0000      -0.325025        -8.8444
  31   2.0000      -0.311329        -8.4717
  32   2.0000      -0.306719        -8.3463
  33   2.0000      -0.292074        -7.9477
  34   2.0000      -0.290126        -7.8947
  35   2.0000      -0.231496        -6.2993
  36   2.0000      -0.214292        -5.8312
  37   0.0000      -0.030896        -0.8407
  38   0.0000      -0.024574        -0.6687
  39   0.0000       0.045772         1.2455
  40   0.0000       0.063073         1.7163
  41   0.0000       0.069107         1.8805

MULLIKEN ATOMIC CHARGES
-----------------------
   0 C :   -0.351263
   1 C :    0.165364
   2 C :   -0.169712
   3 C :   -0.191811
   4 C :    0.219115
   5 C :   -0.215103
   6 C :   -0.188163
   7 C :   -0.007264
   8 C :   -0.333105
   9 C :   -0.333290
  10 H :    0.107823
  11 H :    0.115127
  12 H :    0.117925
  13 H :    0.094153
  14 H :    0.094620
  15 H :    0.100566
  16 H :    0.096903
  17 H :    0.046759
  18 H :    0.097304
  19 H :    0.104796
  20 H :    0.113571
  21 H :    0.113499
  22 H :    0.104886
  23 H :    0.097300
Sum of atomic charges:   -0.0000000

LOEWDIN ATOMIC CHARGES
----------------------
   0 C :   -0.255476
   1 C :   -0.176177
   2 C :   -0.120188
   3 C :   -0.114229
   4 C :   -0.128050
   5 C :   -0.108916
   6 C :   -0.116171
   7 C :   -0.267487
   8 C :   -0.273487
   9 C :   -0.273531
  10 H :    0.124939
  11 H :    0.128117
  12 H :    0.129405
  13 H :    0.143199
  14 H :    0.144231
  15 H :    0.144626
  16 H :    0.144355
  17 H :    0.151753
  18 H :    0.119476
  19 H :    0.119200
  20 H :    0.122876
  21 H :    0.122847
  22 H :    0.119234
  23 H :    0.119455

  Mayer bond orders larger than 0.100000
B(  0-C ,  1-C ) :   0.9088 B(  0-C , 10-H ) :   0.9896 B(  0-C , 11-H ) :   0.9727
B(  0-C , 12-H ) :   0.9613 B(  1-C ,  2-C ) :   1.3647 B(  1-C ,  6-C ) :   1.3036
B(  2-C ,  3-C ) :   1.4076 B(  2-C , 13-H ) :   0.9789 B(  3-C ,  4-C ) :   1.3429
B(  3-C , 14-H ) :   0.9781 B(  4-C ,  5-C ) :   1.2781 B(  4-C ,  7-C ) :   0.8921
B(  5-C ,  6-C ) :   1.4572 B(  5-C , 15-H ) :   0.9779 B(  6-C , 16-H ) :   0.9844
B(  7-C ,  8-C ) :   0.9718 B(  7-C ,  9-C ) :   0.9715 B(  7-C , 17-H ) :   0.9619
B(  8-C , 18-H ) :   0.9677 B(  8-C , 19-H ) :   0.9725 B(  8-C , 20-H ) :   0.9760
B(  9-C , 21-H ) :   0.9760 B(  9-C , 22-H ) :   0.9725 B(  9-C , 23-H ) :   0.9677

Dispersion correction           -0.008149062
FINAL SINGLE POINT ENERGY      -389.414990100149

DIPOLE MOMENT
-------------

Method             : SCF
Type of density    : Electron Density
Multiplicity       :   1
Irrep              :   0
Energy             :  -389.4154218369780551 Eh
Relativity type    :
Basis              : AO
                                X                 Y                 Z
Electronic contribution:     -4.658195630       1.325444855      -0.015522412
Nuclear contribution   :      4.639348301      -1.331046973       0.022453659
                        -----------------------------------------
Total Dipole Moment    :     -0.018847329      -0.005602118       0.006931247
                        -----------------------------------------
Magnitude (a.u.)       :      0.020848206
Magnitude (Debye)      :      0.052991929

VIBRATIONAL FREQUENCIES
-----------------------

Scaling factor for frequencies =  1.000000000  (already applied!)

     0:       0.00 cm**-1
     1:       0.00 cm**-1
     2:       0.00 cm**-1
     3:       0.00 cm**-1
     4:       0.00 cm**-1
     5:       0.00 cm**-1
     6:      44.03 cm**-1
     7:      58.69 cm**-1
     8:      96.98 cm**-1
     9:     196.30 cm**-1
    10:     213.24 cm**-1
    11:     244.46 cm**-1
    12:     271.16 cm**-1
    13:     292.88 cm**-1
    14:     359.80 cm**-1
    15:     387.35 cm**-1
    16:     411.42 cm**-1
    17:     448.20 cm**-1
    18:     538.13 cm**-1
    19:     545.08 cm**-1
    20:     660.56 cm**-1
    21:     700.71 cm**-1
    22:     742.38 cm**-1
    23:     823.96 cm**-1
    24:     826.17 cm**-1
    25:     840.48 cm**-1
    26:     900.26 cm**-1
    27:     927.11 cm**-1
    28:     940.01 cm**-1
    29:     947.49 cm**-1
    30:     961.38 cm**-1
    31:    1001.60 cm**-1
    32:    1042.46 cm**-1
    33:    1055.32 cm**-1
    34:    1074.46 cm**-1
    35:    1117.25 cm**-1
    36:    1133.38 cm**-1
    37:    1171.60 cm**-1
    38:    1205.09 cm**-1
    39:    1230.37 cm**-1
    40:    1236.46 cm**-1
    41:    1309.98 cm**-1
    42:    1335.19 cm**-1
    43:    1338.99 cm**-1
    44:    1373.85 cm**-1
    45:    1383.56 cm**-1
    46:    1400.08 cm**-1
    47:    1406.41 cm**-1
    48:    1441.34 cm**-1
    49:    1476.65 cm**-1
    50:    1478.30 cm**-1
    51:    1480.24 cm**-1
    52:    1488.43 cm**-1
    53:    1494.04 cm**-1
    54:    1499.57 cm**-1
    55:    1541.33 cm**-1
    56:    1609.55 cm**-1
    57:    1647.92 cm**-1
    58:    3003.59 cm**-1
    59:    3004.97 cm**-1
    60:    3006.61 cm**-1
    61:    3007.50 cm**-1
    62:    3068.88 cm**-1
    63:    3078.35 cm**-1
    64:    3083.77 cm**-1
    65:    3090.28 cm**-1
    66:    3092.41 cm**-1
    67:    3100.38 cm**-1
    68:    3141.10 cm**-1
    69:    3141.49 cm**-1
    70:    3157.85 cm**-1
    71:    3161.67 cm**-1

IR SPECTRUM
-----------

 Mode   freq       eps      Int      T**2         TX        TY        TZ
       cm**-1   L/(mol*cm) km/mol    a.u.
----------------------------------------------------------------------------
  6:     44.03   0.000013    0.06  0.000090  ( 0.000145 -0.000863 -0.009463)
  7:     58.69   0.000054    0.27  0.000287  ( 0.000291 -0.006642 -0.015578)
  8:     96.98   0.000140    0.71  0.000450  (-0.000393  0.001170 -0.021170)
  9:    196.30   0.000053    0.27  0.000084  ( 0.004333 -0.008102  0.000113)
 10:    213.24   0.000066    0.34  0.000097  (-0.000228  0.000197 -0.009857)
 11:    244.46   0.000020    0.10  0.000026  ( 0.000127 -0.000056  0.005108)
 12:    271.16   0.000023    0.11  0.000026  (-0.004748  0.001870  0.000024)
 13:    292.88   0.000020    0.10  0.000021  ( 0.002154  0.004078  0.000009)
 14:    359.80   0.000049    0.25  0.000043  (-0.004310 -0.004894  0.000072)
 15:    387.35   0.000243    1.23  0.000196  (-0.000115 -0.000035  0.014006)
 16:    411.42   0.000013    0.06  0.000010  (-0.000337 -0.000320  0.003082)
 17:    448.20   0.000021    0.10  0.000014  (-0.003710 -0.000728 -0.000221)
 18:    538.13   0.000030    0.15  0.000017  ( 0.001310  0.001855  0.003464)
 19:    545.08   0.004234   21.39  0.002424  ( 0.000699  0.000419 -0.049225)
 20:    660.56   0.000009    0.04  0.000004  (-0.000765 -0.001873  0.000116)
 21:    700.71   0.000082    0.41  0.000036  ( 0.005198  0.002816  0.001189)
 22:    742.38   0.000859    4.34  0.000361  ( 0.000564  0.000013  0.018991)
 23:    823.96   0.002166   10.95  0.000820  ( 0.000463 -0.000480 -0.028632)
 24:    826.17   0.003718   18.79  0.001404  ( 0.001259 -0.000297  0.037452)
 25:    840.48   0.000063    0.32  0.000023  (-0.000211  0.000757 -0.004755)
 26:    900.26   0.000093    0.47  0.000032  ( 0.003945 -0.004101 -0.000100)
 27:    927.11   0.000093    0.47  0.000031  (-0.000278 -0.000002 -0.005575)
 28:    940.01   0.000047    0.24  0.000016  (-0.001013  0.000055  0.003822)
 29:    947.49   0.000031    0.16  0.000010  ( 0.000829  0.000111 -0.003090)
 30:    961.38   0.000003    0.01  0.000001  ( 0.000166  0.000048 -0.000895)
 31:   1001.60   0.000195    0.99  0.000061  (-0.007801  0.000089  0.000113)
 32:   1042.46   0.000544    2.75  0.000163  ( 0.012647 -0.000918  0.001483)
 33:   1055.32   0.000940    4.75  0.000278  ( 0.009689  0.000838 -0.013546)
 34:   1074.46   0.003617   18.28  0.001050  (-0.031864 -0.005931 -0.000001)
 35:   1117.25   0.000231    1.17  0.000064  ( 0.000275 -0.000127  0.008022)
 36:   1133.38   0.001489    7.52  0.000410  (-0.005672  0.019437  0.000043)
 37:   1171.60   0.000229    1.16  0.000061  (-0.005928 -0.005090 -0.000027)
 38:   1205.09   0.000243    1.23  0.000063  ( 0.007926 -0.000024 -0.000222)
 39:   1230.37   0.000689    3.48  0.000175  ( 0.012905  0.002775 -0.000806)
 40:   1236.46   0.000089    0.45  0.000023  (-0.004707  0.000213  0.000619)
 41:   1309.98   0.000842    4.26  0.000201  ( 0.013909  0.002689  0.000031)
 42:   1335.19   0.000409    2.07  0.000096  (-0.000035 -0.000069  0.009778)
 43:   1338.99   0.000131    0.66  0.000031  ( 0.005434 -0.001005 -0.000022)
 44:   1373.85   0.000626    3.16  0.000142  (-0.010669  0.005317  0.000003)
 45:   1383.56   0.001161    5.87  0.000262  (-0.000043  0.000102 -0.016180)
 46:   1400.08   0.000117    0.59  0.000026  (-0.004258 -0.002762  0.000534)
 47:   1406.41   0.000720    3.64  0.000160  ( 0.004203 -0.011915 -0.000152)
 48:   1441.34   0.000244    1.23  0.000053  ( 0.002835 -0.006678  0.000402)
 49:   1476.65   0.000007    0.04  0.000001  ( 0.000033 -0.000224 -0.001190)
 50:   1478.30   0.001429    7.22  0.000302  (-0.000215  0.003530  0.017004)
 51:   1480.24   0.000615    3.11  0.000130  (-0.000026 -0.000184  0.011388)
 52:   1488.43   0.003468   17.52  0.000727  (-0.003782  0.026610 -0.002147)
 53:   1494.04   0.001149    5.81  0.000240  ( 0.001843 -0.015376 -0.000467)
 54:   1499.57   0.001101    5.56  0.000229  (-0.008249 -0.012689 -0.000158)
 55:   1541.33   0.005744   29.03  0.001163  ( 0.033789  0.004601 -0.000385)
 56:   1609.55   0.000151    0.76  0.000029  ( 0.004138 -0.003493 -0.000039)
 57:   1647.92   0.000068    0.35  0.000013  (-0.002918 -0.002092  0.000203)
 58:   3003.59   0.006083   30.74  0.000632  ( 0.000391  0.000157 -0.025135)
 59:   3004.97   0.005377   27.17  0.000558  ( 0.022498  0.007225  0.000085)
 60:   3006.61   0.006443   32.56  0.000669  (-0.025695 -0.002035  0.002077)
 61:   3007.50   0.005787   29.24  0.000600  ( 0.014398 -0.019827  0.000200)
 62:   3068.88   0.003128   15.81  0.000318  ( 0.003210  0.000943  0.017518)
 63:   3078.35   0.000024    0.12  0.000002  ( 0.000008  0.000013  0.001574)
 64:   3083.77   0.015733   79.51  0.001592  (-0.033528 -0.021632 -0.000090)
 65:   3090.28   0.003973   20.08  0.000401  ( 0.000229 -0.000337  0.020027)
 66:   3092.41   0.006539   33.05  0.000660  ( 0.016135 -0.019985 -0.000388)
 67:   3100.38   0.003367   17.01  0.000339  ( 0.006576 -0.017191  0.000321)
 68:   3141.10   0.004162   21.03  0.000413  (-0.019575 -0.005502 -0.000043)
 69:   3141.49   0.000955    4.82  0.000095  (-0.007563 -0.006134 -0.000031)
 70:   3157.85   0.007448   37.64  0.000736  (-0.006601  0.026315  0.000050)
 71:   3161.67   0.000700    3.54  0.000069  (-0.001746  0.008125  0.000073)

--------------------------
THERMOCHEMISTRY AT 298.15K
--------------------------

Temperature         ...   298.15 K
Pressure            ...     1.00 atm
Total Mass          ...   134.22 AMU
Quasi RRHO          ...     True
Cut-Off Frequency   ...     1.00 cm^-1

Throughout the following assumptions are being made:
  (1) The electronic state is orbitally nondegenerate
  (2) There are no thermally accessible electronically excited states
  (3) Hindered rotations indicated by low frequency modes are not
      treated as such but are treated as vibrations and this may
      cause some error
  (4) All equations used are the standard statistical mechanics
      equations for an ideal gas
  (5) All vibrations are strictly harmonic

freq.      44.03  E(vib)   ...       0.53
freq.      58.69  E(vib)   ...       0.51
freq.      96.98  E(vib)   ...       0.46
freq.     196.30  E(vib)   ...       0.36
freq.     213.24  E(vib)   ...       0.34
freq.     244.46  E(vib)   ...       0.31
freq.     271.16  E(vib)   ...       0.29
freq.     292.88  E(vib)   ...       0.27
freq.     359.80  E(vib)   ...       0.22
freq.     387.35  E(vib)   ...       0.20
freq.     411.42  E(vib)   ...       0.19
freq.     448.20  E(vib)   ...       0.17
freq.     538.13  E(vib)   ...       0.12
freq.     545.08  E(vib)   ...       0.12
freq.     660.56  E(vib)   ...       0.08
freq.     700.71  E(vib)   ...       0.07
freq.     742.38  E(vib)   ...       0.06
freq.     823.96  E(vib)   ...       0.05
freq.     826.17  E(vib)   ...       0.04
freq.     840.48  E(vib)   ...       0.04
freq.     900.26  E(vib)   ...       0.03
freq.     927.11  E(vib)   ...       0.03
freq.     940.01  E(vib)   ...       0.03
freq.     947.49  E(vib)   ...       0.03
freq.     961.38  E(vib)   ...       0.03
freq.    1001.60  E(vib)   ...       0.02
freq.    1042.46  E(vib)   ...       0.02
freq.    1055.32  E(vib)   ...       0.02
freq.    1074.46  E(vib)   ...       0.02
freq.    1117.25  E(vib)   ...       0.01
freq.    1133.38  E(vib)   ...       0.01
freq.    1171.60  E(vib)   ...       0.01
freq.    1205.09  E(vib)   ...       0.01
freq.    1230.37  E(vib)   ...       0.01
freq.    1236.46  E(vib)   ...       0.01
freq.    1309.98  E(vib)   ...       0.01
freq.    1335.19  E(vib)   ...       0.01
freq.    1338.99  E(vib)   ...       0.01
freq.    1373.85  E(vib)   ...       0.01
freq.    1383.56  E(vib)   ...       0.00
freq.    1400.08  E(vib)   ...       0.00
freq.    1406.41  E(vib)   ...       0.00
freq.    1441.34  E(vib)   ...       0.00
freq.    1476.65  E(vib)   ...       0.00
freq.    1478.30  E(vib)   ...       0.00
freq.    1480.24  E(vib)   ...       0.00
freq.    1488.43  E(vib)   ...       0.00
freq.    1494.04  E(vib)   ...       0.00
freq.    1499.57  E(vib)   ...       0.00
freq.    1541.33  E(vib)   ...       0.00
freq.    1609.55  E(vib)   ...       0.00
freq.    1647.92  E(vib)   ...       0.00
freq.    3003.59  E(vib)   ...       0.00
freq.    3004.97  E(vib)   ...       0.00
freq.    3006.61  E(vib)   ...       0.00
freq.    3007.50  E(vib)   ...       0.00
freq.    3068.88  E(vib)   ...       0.00
freq.    3078.35  E(vib)   ...       0.00
freq.    3083.77  E(vib)   ...       0.00
freq.    3090.28  E(vib)   ...       0.00
freq.    3092.41  E(vib)   ...       0.00
freq.    3100.38  E(vib)   ...       0.00
freq.    3141.10  E(vib)   ...       0.00
freq.    3141.49  E(vib)   ...       0.00
freq.    3157.85  E(vib)   ...       0.00
freq.    3161.67  E(vib)   ...       0.00

------------
INNER ENERGY
------------

The inner energy is: U= E(el) + E(ZPE) + E(vib) + E(rot) + E(trans)
    E(el)   - is the total energy from the electronic structure calculation
              = E(kin-el) + E(nuc-el) + E(el-el) + E(nuc-nuc)
    E(ZPE)  - the the zero temperature vibrational energy from the frequency calculation
    E(vib)  - the the finite temperature correction to E(ZPE) due to population
              of excited vibrational states
    E(rot)  - is the rotational thermal energy
    E(trans)- is the translational thermal energy

Summary of contributions to the inner energy U:
Electronic energy                ...   -389.41499010 Eh
Zero point energy                ...      0.21070895 Eh     132.22 kcal/mol
Thermal vibrational correction   ...      0.00764832 Eh       4.80 kcal/mol
Thermal rotational correction    ...      0.00141627 Eh       0.89 kcal/mol
Thermal translational correction ...      0.00141627 Eh       0.89 kcal/mol
-----------------------------------------------------------------------
Total thermal energy                   -389.19380029 Eh

Summary of corrections to the electronic energy:
(perhaps to be used in another calculation)
Total thermal correction                  0.01048086 Eh       6.58 kcal/mol
Non-thermal (ZPE) correction              0.21070895 Eh     132.22 kcal/mol
-----------------------------------------------------------------------
Total correction                          0.22118981 Eh     138.80 kcal/mol

--------
ENTHALPY
--------

The enthalpy is H = U + kB*T
                kB is Boltzmann's constant
Total thermal energy              ...   -389.19380029 Eh
Thermal Enthalpy correction       ...      0.00094421 Eh       0.59 kcal/mol
-----------------------------------------------------------------------
Total Enthalpy                    ...   -389.19285608 Eh

Note: Only C1 symmetry has been detected, increase convergence thresholds
      if your molecule has a higher symmetry. Symmetry factor of 1.0 is
      used for the rotational entropy correction.

Note: Rotational entropy computed according to Herzberg
Infrared and Raman Spectra, Chapter V,1, Van Nostrand Reinhold, 1945
Point Group:  C1, Symmetry Number:   1
Rotational constants in cm-1:     0.109066     0.024363     0.022956

Vibrational entropy computed according to the QRRHO of S. Grimme
Chem.Eur.J. 2012 18 9955 using a reference frequency of 100.0 cm-1

-------
ENTROPY
-------

The entropy contributions are T*S = T*(S(el)+S(vib)+S(rot)+S(trans))
     S(el)   - electronic entropy
     S(vib)  - vibrational entropy
     S(rot)  - rotational entropy
     S(trans)- translational entropy
The entropies will be listed as multiplied by the temperature to get
units of energy

Electronic entropy                ...      0.00000000 Eh      0.00 kcal/mol
Vibrational entropy               ...      0.01299278 Eh      8.15 kcal/mol
Rotational entropy                ...      0.01409230 Eh      8.84 kcal/mol
Translational entropy             ...      0.01928809 Eh     12.10 kcal/mol
-----------------------------------------------------------------------
Final entropy term                ...      0.04637317 Eh     29.10 kcal/mol

                             ****ORCA TERMINATED NORMALLY****
TOTAL RUN TIME: 0 days 0 hours 25 minutes 11 seconds 619 msec
