                         Program Version 6.0.1  -  RELEASE   -
|  1> ! r2scan-3c def2/J RI DEFGRID2 scfconv6 printgap
|  2> %output
|  3>     printlevel normal
|  4> end
|  5> * xyz 0 1
|  6> C -2.4489935512 -0.8257697922 -0.23297998
|  7> O -1.1748895732 -0.6700100257 0.3817405342
|  8> C -0.5612378952 0.4928423216 0.1791250079
|  9> O -1.0217284418 1.4081384074 -0.4446173034
| 10> C 0.8097515398 0.4970186503 0.8299382509
| 11> Cl 1.9163989516 -0.3561469961 -0.2792809934
| 12> H -2.3520181053 -0.7787887506 -1.3190611211
| 13> H -3.1251283048 -0.0342201165 0.095373482
| 14> H -2.816972587 -1.8001569652 0.0764720748
| 15> H 0.8024831872 -0.0476767645 1.7721802613
| 16> H 1.1739876267 1.5158570478 0.9484090285
| 17> *
| 18>
| 19>                          ****END OF INPUT****

CARTESIAN COORDINATES (ANGSTROEM)
---------------------------------
  C     -2.448994   -0.825770   -0.232980
  O     -1.174890   -0.670010    0.381741
  C     -0.561238    0.492842    0.179125
  O     -1.021728    1.408138   -0.444617
  C      0.809752    0.497019    0.829938
  Cl     1.916399   -0.356147   -0.279281
  H     -2.352018   -0.778789   -1.319061
  H     -3.125128   -0.034220    0.095373
  H     -2.816973   -1.800157    0.076472
  H      0.802483   -0.047677    1.772180
  H      1.173988    1.515857    0.948409

 Total Charge           Charge          ....    0
 Multiplicity           Mult            ....    1
 Number of Electrons    NEL             ....   56
 Basis Dimension        Dim             ....  157

ORBITAL ENERGIES
----------------

  NO   OCC          E(Eh)            E(eV)
   0   2.0000    -101.219066     -2754.3108
   1   2.0000     -19.015531      -517.4389
   2   2.0000     -18.950889      -515.6799
   3   2.0000     -10.174159      -276.8529
   4   2.0000     -10.112863      -275.1850
   5   2.0000     -10.096369      -274.7362
   6   2.0000      -9.374782      -255.1008
   7   2.0000      -7.121567      -193.7877
   8   2.0000      -7.110672      -193.4912
   9   2.0000      -7.110429      -193.4846
  10   2.0000      -1.092917       -29.7398
  11   2.0000      -1.001865       -27.2621
  12   2.0000      -0.838553       -22.8182
  13   2.0000      -0.727144       -19.7866
  14   2.0000      -0.663085       -18.0435
  15   2.0000      -0.552156       -15.0249
  16   2.0000      -0.492384       -13.3985
  17   2.0000      -0.470246       -12.7961
  18   2.0000      -0.465652       -12.6710
  19   2.0000      -0.423246       -11.5171
  20   2.0000      -0.417808       -11.3691
  21   2.0000      -0.399961       -10.8835
  22   2.0000      -0.365066        -9.9340
  23   2.0000      -0.340832        -9.2745
  24   2.0000      -0.294053        -8.0016
  25   2.0000      -0.292918        -7.9707
  26   2.0000      -0.278087        -7.5671
  27   2.0000      -0.252470        -6.8700
  28   0.0000      -0.058341        -1.5875
  29   0.0000       0.024232         0.6594
  30   0.0000       0.062724         1.7068
  31   0.0000       0.093090         2.5331
  32   0.0000       0.120188         3.2705

MULLIKEN ATOMIC CHARGES
-----------------------
   0 C :   -0.290095
   1 O :   -0.175642
   2 C :    0.391531
   3 O :   -0.396721
   4 C :   -0.208999
   5 Cl:   -0.150159
   6 H :    0.163286
   7 H :    0.162974
   8 H :    0.154144
   9 H :    0.169157
  10 H :    0.180524
Sum of atomic charges:   -0.0000000

LOEWDIN ATOMIC CHARGES
----------------------
   0 C :   -0.040006
   1 O :   -0.596189
   2 C :    0.319716
   3 O :   -0.391180
   4 C :   -0.247007
   5 Cl:    0.064969
   6 H :    0.178505
   7 H :    0.178616
   8 H :    0.178337
   9 H :    0.176769
  10 H :    0.177470

  Mayer bond orders larger than 0.100000
B(  0-C ,  1-O ) :   0.8543 B(  0-C ,  6-H ) :   0.9595 B(  0-C ,  7-H ) :   0.9616
B(  0-C ,  8-H ) :   0.9678 B(  1-O ,  2-C ) :   1.0628 B(  2-C ,  3-O ) :   1.8436
B(  2-C ,  4-C ) :   0.9526 B(  4-C ,  5-Cl) :   0.9999 B(  4-C ,  9-H ) :   0.9519
B(  4-C , 10-H ) :   0.9628

Dispersion correction           -0.002611047
FINAL SINGLE POINT ENERGY      -727.903836630522

DIPOLE MOMENT
-------------

Method             : SCF
Type of density    : Electron Density
Multiplicity       :   1
Irrep              :   0
Energy             :  -727.9115234675676902 Eh
Relativity type    :
Basis              : AO
                                X                 Y                 Z
Electronic contribution:      8.026567467       0.168075957      -1.218395721
Nuclear contribution   :     -8.531767600      -0.585246133       1.850019569
                        -----------------------------------------
Total Dipole Moment    :     -0.505200133      -0.417170176       0.631623848
                        -----------------------------------------
Magnitude (a.u.)       :      0.910058688
Magnitude (Debye)      :      2.313185352

Rotational constants in cm-1:             0.193574             0.055902             0.049317
Rotational constants in MHz :          5803.206968          1675.908853          1478.499715

                             ****ORCA TERMINATED NORMALLY****
TOTAL RUN TIME: 0 days 0 hours 0 minutes 13 seconds 616 msec
