                         Program Version 6.0.1  -  RELEASE   -
|  1> ! r2scan-3c def2/J RI DEFGRID2 scfconv6 printgap
|  2> %output
|  3>     printlevel normal
|  4> end
|  5> * xyz 0 1
|  6> C 1.2077894172 1.2598213853 0.0518429467
|  7> C 0.4351507634 -3.12181e-05 -0.3427224071
|  8> C 1.2090077048 -1.2591449032 0.0516801464
|  9> C -0.8913529354 -0.0005316973 0.3684217789
| 10> O -1.9679697655 -0.0001571102 -0.1564173137
| 11> H 0.6577252982 2.1529300092 -0.2352144498
| 12> H 2.1742897521 1.2738751688 -0.4460558814
| 13> H 1.3726962824 1.2840449977 1.1271327857
| 14> H 0.2548377374 -1.4999e-05 -1.4217451467
| 15> H 0.6598004079 -2.1527343881 -0.2355130919
| 16> H 1.3738658132 -1.2833755576 1.1269735236
| 17> H 2.1755604617 -1.2722168355 -0.4461613562
| 18> H -0.7933620003 -0.0013677873 1.4736257262
| 19> *
| 20>
| 21>                          ****END OF INPUT****

CARTESIAN COORDINATES (ANGSTROEM)
---------------------------------
  C      1.207789    1.259821    0.051843
  C      0.435151   -0.000031   -0.342722
  C      1.209008   -1.259145    0.051680
  C     -0.891353   -0.000532    0.368422
  O     -1.967970   -0.000157   -0.156417
  H      0.657725    2.152930   -0.235214
  H      2.174290    1.273875   -0.446056
  H      1.372696    1.284045    1.127133
  H      0.254838   -0.000015   -1.421745
  H      0.659800   -2.152734   -0.235513
  H      1.373866   -1.283376    1.126974
  H      2.175560   -1.272217   -0.446161
  H     -0.793362   -0.001368    1.473626

 Total Charge           Charge          ....    0
 Multiplicity           Mult            ....    1
 Number of Electrons    NEL             ....   40
 Basis Dimension        Dim             ....  140

ORBITAL ENERGIES
----------------

  NO   OCC          E(Eh)            E(eV)
   0   2.0000     -18.951407      -515.6940
   1   2.0000     -10.117100      -275.3003
   2   2.0000     -10.050939      -273.5000
   3   2.0000     -10.037221      -273.1267
   4   2.0000     -10.037215      -273.1265
   5   2.0000      -1.018924       -27.7263
   6   2.0000      -0.785710       -21.3803
   7   2.0000      -0.670079       -18.2338
   8   2.0000      -0.613276       -16.6881
   9   2.0000      -0.539233       -14.6733
  10   2.0000      -0.441052       -12.0016
  11   2.0000      -0.436911       -11.8890
  12   2.0000      -0.409218       -11.1354
  13   2.0000      -0.403954       -10.9922
  14   2.0000      -0.373593       -10.1660
  15   2.0000      -0.352983        -9.6052
  16   2.0000      -0.352379        -9.5887
  17   2.0000      -0.321948        -8.7607
  18   2.0000      -0.321922        -8.7599
  19   2.0000      -0.219621        -5.9762
  20   0.0000      -0.056117        -1.5270
  21   0.0000       0.083909         2.2833
  22   0.0000       0.114062         3.1038
  23   0.0000       0.116153         3.1607
  24   0.0000       0.126794         3.4502

MULLIKEN ATOMIC CHARGES
-----------------------
   0 C :   -0.478382
   1 C :   -0.000313
   2 C :   -0.478386
   3 C :    0.107972
   4 O :   -0.330862
   5 H :    0.157100
   6 H :    0.153373
   7 H :    0.149501
   8 H :    0.162295
   9 H :    0.157076
  10 H :    0.149494
  11 H :    0.153372
  12 H :    0.097760
Sum of atomic charges:    0.0000000

LOEWDIN ATOMIC CHARGES
----------------------
   0 C :   -0.400476
   1 C :   -0.241278
   2 C :   -0.400508
   3 C :    0.203219
   4 O :   -0.437499
   5 H :    0.160202
   6 H :    0.159416
   7 H :    0.156560
   8 H :    0.172267
   9 H :    0.160193
  10 H :    0.156557
  11 H :    0.159418
  12 H :    0.151929

  Mayer bond orders larger than 0.100000
B(  0-C ,  1-C ) :   0.9037 B(  0-C ,  5-H ) :   0.9686 B(  0-C ,  6-H ) :   0.9660
B(  0-C ,  7-H ) :   0.9771 B(  1-C ,  2-C ) :   0.9037 B(  1-C ,  3-C ) :   0.9110
B(  1-C ,  8-H ) :   0.9364 B(  2-C ,  9-H ) :   0.9686 B(  2-C , 10-H ) :   0.9771
B(  2-C , 11-H ) :   0.9660 B(  3-C ,  4-O ) :   1.9062 B(  3-C , 12-H ) :   0.9562

Dispersion correction           -0.002775633
FINAL SINGLE POINT ENERGY      -232.393348380502

DIPOLE MOMENT
-------------

Method             : SCF
Type of density    : Electron Density
Multiplicity       :   1
Irrep              :   0
Energy             :  -232.3966602997534210 Eh
Relativity type    :
Basis              : AO
                                X                 Y                 Z
Electronic contribution:     -6.232967156      -0.001143976      -0.635671421
Nuclear contribution   :      7.359258329       0.001067750       0.882410204
                        -----------------------------------------
Total Dipole Moment    :      1.126291172      -0.000076227       0.246738783
                        -----------------------------------------
Magnitude (a.u.)       :      1.153001230
Magnitude (Debye)      :      2.930696221

Rotational constants in cm-1:             0.260004             0.125273             0.094807
Rotational constants in MHz :          7794.725343          3755.581775          2842.252902

                             ****ORCA TERMINATED NORMALLY****
TOTAL RUN TIME: 0 days 0 hours 0 minutes 18 seconds 795 msec
