                         Program Version 6.0.1  -  RELEASE   -
|  1> ! pbe def2-sv(p) def2/J RI DEFGRID1 loosescf d4 GCP(DFT/SV(P)) printgap
|  2> %output
|  3>     printlevel normal
|  4> end
|  5> * xyz 0 1
|  6> C -2.0998823033 1.3111686623 0.0624378257
|  7> C -1.4284287465 -0.0377556538 -0.1917181819
|  8> C -2.4315313522 -1.1630704548 0.0611083045
|  9> C -0.1797755223 -0.2191918633 0.6914890835
| 10> C 1.1851673633 -0.0211948622 0.0051221573
| 11> C 1.4198379505 -1.1056152773 -1.0494849239
| 12> C 1.2930414445 1.3595928237 -0.6439685449
| 13> C 2.2727509066 -0.1435141976 1.0788191331
| 14> H -1.4074877898 2.1310943539 -0.1067725104
| 15> H -2.9531714252 1.4427451975 -0.6003384619
| 16> H -2.4558668228 1.3677804713 1.0894967941
| 17> H -1.1403435143 -0.0810779248 -1.2458288983
| 18> H -1.993492987 -2.1299519135 -0.1770246399
| 19> H -2.73856771 -1.1704628362 1.1051913784
| 20> H -3.3190273858 -1.030002573 -0.5544211982
| 21> H -0.2436150689 0.4731209692 1.5339668327
| 22> H -0.1870747921 -1.2286424637 1.108898909
| 23> H 2.4051237861 -0.9897809386 -1.4961322289
| 24> H 0.6818438053 -1.05131425 -1.8455592954
| 25> H 1.3631753576 -2.094123137 -0.5986998972
| 26> H 1.1226450935 2.1418167197 0.0926028437
| 27> H 0.5702935264 1.474837686 -1.4471939272
| 28> H 2.2875706127 1.4991107095 -1.0632807707
| 29> H 3.2604196287 -0.0355457168 0.6357382286
| 30> H 2.2227393339 -1.1139650975 1.5680275157
| 31> H 2.1532718457 0.6277026084 1.8368188643
| 32> *
| 33>
| 34>                          ****END OF INPUT****

CARTESIAN COORDINATES (ANGSTROEM)
---------------------------------
  C     -2.099882    1.311169    0.062438
  C     -1.428429   -0.037756   -0.191718
  C     -2.431531   -1.163070    0.061108
  C     -0.179776   -0.219192    0.691489
  C      1.185167   -0.021195    0.005122
  C      1.419838   -1.105615   -1.049485
  C      1.293041    1.359593   -0.643969
  C      2.272751   -0.143514    1.078819
  H     -1.407488    2.131094   -0.106773
  H     -2.953171    1.442745   -0.600338
  H     -2.455867    1.367780    1.089497
  H     -1.140344   -0.081078   -1.245829
  H     -1.993493   -2.129952   -0.177025
  H     -2.738568   -1.170463    1.105191
  H     -3.319027   -1.030003   -0.554421
  H     -0.243615    0.473121    1.533967
  H     -0.187075   -1.228642    1.108899
  H      2.405124   -0.989781   -1.496132
  H      0.681844   -1.051314   -1.845559
  H      1.363175   -2.094123   -0.598700
  H      1.122645    2.141817    0.092603
  H      0.570294    1.474838   -1.447194
  H      2.287571    1.499111   -1.063281
  H      3.260420   -0.035546    0.635738
  H      2.222739   -1.113965    1.568028
  H      2.153272    0.627703    1.836819

 Total Charge           Charge          ....    0
 Multiplicity           Mult            ....    1
 Number of Electrons    NEL             ....   66
 Basis Dimension        Dim             ....  148

ORBITAL ENERGIES
----------------

  NO   OCC          E(Eh)            E(eV)
   0   2.0000      -9.902654      -269.4649
   1   2.0000      -9.889256      -269.1003
   2   2.0000      -9.874699      -268.7042
   3   2.0000      -9.868839      -268.5448
   4   2.0000      -9.868627      -268.5390
   5   2.0000      -9.868119      -268.5252
   6   2.0000      -9.867695      -268.5136
   7   2.0000      -9.867682      -268.5133
   8   2.0000      -0.748994       -20.3812
   9   2.0000      -0.705949       -19.2099
  10   2.0000      -0.613266       -16.6878
  11   2.0000      -0.609576       -16.5874
  12   2.0000      -0.603044       -16.4097
  13   2.0000      -0.600728       -16.3466
  14   2.0000      -0.501954       -13.6589
  15   2.0000      -0.469249       -12.7689
  16   2.0000      -0.419867       -11.4252
  17   2.0000      -0.406033       -11.0487
  18   2.0000      -0.395121       -10.7518
  19   2.0000      -0.379431       -10.3248
  20   2.0000      -0.372638       -10.1400
  21   2.0000      -0.367492       -10.0000
  22   2.0000      -0.339308        -9.2330
  23   2.0000      -0.337179        -9.1751
  24   2.0000      -0.333910        -9.0861
  25   2.0000      -0.317596        -8.6422
  26   2.0000      -0.311528        -8.4771
  27   2.0000      -0.304941        -8.2979
  28   2.0000      -0.292556        -7.9609
  29   2.0000      -0.284460        -7.7406
  30   2.0000      -0.271441        -7.3863
  31   2.0000      -0.265216        -7.2169
  32   2.0000      -0.258992        -7.0475
  33   0.0000       0.027830         0.7573
  34   0.0000       0.056098         1.5265
  35   0.0000       0.062914         1.7120
  36   0.0000       0.072643         1.9767
  37   0.0000       0.081226         2.2103

MULLIKEN ATOMIC CHARGES
-----------------------
   0 C :   -0.255161
   1 C :   -0.172146
   2 C :   -0.252941
   3 C :   -0.060997
   4 C :   -0.275553
   5 C :   -0.212549
   6 C :   -0.214809
   7 C :   -0.203944
   8 H :    0.102016
   9 H :    0.093906
  10 H :    0.094157
  11 H :    0.082225
  12 H :    0.099557
  13 H :    0.095435
  14 H :    0.093712
  15 H :    0.068171
  16 H :    0.068153
  17 H :    0.092280
  18 H :    0.099312
  19 H :    0.091665
  20 H :    0.097308
  21 H :    0.104054
  22 H :    0.091579
  23 H :    0.091382
  24 H :    0.091427
  25 H :    0.091761
Sum of atomic charges:   -0.0000000

LOEWDIN ATOMIC CHARGES
----------------------
   0 C :   -0.329670
   1 C :   -0.159147
   2 C :   -0.328047
   3 C :   -0.196790
   4 C :   -0.105178
   5 C :   -0.317207
   6 C :   -0.317744
   7 C :   -0.315290
   8 H :    0.115657
   9 H :    0.115361
  10 H :    0.115157
  11 H :    0.111968
  12 H :    0.115194
  13 H :    0.115683
  14 H :    0.114603
  15 H :    0.113806
  16 H :    0.112991
  17 H :    0.116371
  18 H :    0.114777
  19 H :    0.115427
  20 H :    0.115816
  21 H :    0.116125
  22 H :    0.116451
  23 H :    0.114401
  24 H :    0.114777
  25 H :    0.114509

  Mayer bond orders larger than 0.100000
B(  0-C ,  1-C ) :   1.1167 B(  0-C ,  8-H ) :   0.9445 B(  0-C ,  9-H ) :   0.9495
B(  0-C , 10-H ) :   0.9463 B(  1-C ,  2-C ) :   1.1159 B(  1-C ,  3-C ) :   1.0419
B(  1-C , 11-H ) :   0.9011 B(  2-C , 12-H ) :   0.9490 B(  2-C , 13-H ) :   0.9492
B(  2-C , 14-H ) :   0.9510 B(  3-C ,  4-C ) :   1.0539 B(  3-C , 15-H ) :   0.9095
B(  3-C , 16-H ) :   0.9175 B(  4-C ,  5-C ) :   1.0759 B(  4-C ,  6-C ) :   1.0774
B(  4-C ,  7-C ) :   1.0746 B(  5-C , 17-H ) :   0.9470 B(  5-C , 18-H ) :   0.9398
B(  5-C , 19-H ) :   0.9477 B(  6-C , 20-H ) :   0.9432 B(  6-C , 21-H ) :   0.9376
B(  6-C , 22-H ) :   0.9446 B(  7-C , 23-H ) :   0.9473 B(  7-C , 24-H ) :   0.9470
B(  7-C , 25-H ) :   0.9462

Dispersion correction           -0.023246777
FINAL SINGLE POINT ENERGY      -314.873095537589

DIPOLE MOMENT
-------------

Method             : SCF
Type of density    : Electron Density
Multiplicity       :   1
Irrep              :   0
Energy             :  -314.9597982253457076 Eh
Relativity type    :
Basis              : AO
                                X                 Y                 Z
Electronic contribution:      0.376748735      -0.219257745       0.117294352
Nuclear contribution   :     -0.348587564       0.218912385      -0.154337403
                        -----------------------------------------
Total Dipole Moment    :      0.028161171      -0.000345361      -0.037043051
                        -----------------------------------------
Magnitude (a.u.)       :      0.046533413
Magnitude (Debye)      :      0.118278535

Rotational constants in cm-1:             0.098237             0.041034             0.036835
Rotational constants in MHz :          2945.056254          1230.174409          1104.275549

                             ****ORCA TERMINATED NORMALLY****
TOTAL RUN TIME: 0 days 0 hours 0 minutes 18 seconds 63 msec
