                         Program Version 6.0.1  -  RELEASE   -
|  1> ! pbe def2-sv(p) def2/J RI DEFGRID1 loosescf d4 GCP(DFT/SV(P)) printgap
|  2> %output
|  3>     printlevel normal
|  4> end
|  5> * xyz 0 1
|  6> C -2.1592529644 -0.9031555772 -0.191369071
|  7> C -1.1279770651 -0.3291472715 0.8024582193
|  8> H -1.6261285548 -0.315517278 1.7805684873
|  9> C -0.7263883011 1.1370692627 0.5074061837
| 10> H -1.5854336898 1.6464270826 0.0547456517
| 11> C 0.4698358263 1.2624236551 -0.4556005604
| 12> H 0.8653790682 2.2851089311 -0.3451315392
| 13> C 1.584838346 0.2913382932 -0.0413052935
| 14> H 2.3593356959 0.26672292 -0.8275011088
| 15> C 1.0513868351 -1.1527685992 0.1274616226
| 16> H 1.8340302052 -1.7472505196 0.628650871
| 17> O -0.0219839873 -1.1978052964 1.0215791702
| 18> O 0.829480712 -1.7545609092 -1.1008635778
| 19> O 2.1176846122 0.7833007732 1.1679437313
| 20> O 0.024223224 1.0607420757 -1.7768928829
| 21> O -0.4593093841 1.8252885248 1.6975178645
| 22> O -1.7307370415 -0.9939814336 -1.5274399444
| 23> H -3.0682748355 -0.2917217486 -0.1219158957
| 24> H -2.3969189123 -1.9254474475 0.1133326766
| 25> H -0.1086827154 -1.6247040009 -1.3691035763
| 26> H 2.7193932062 0.1286441677 1.5410882156
| 27> H 0.7827814582 0.9183777946 -2.3549863937
| 28> H 0.4055249251 1.5326865824 2.0232774306
| 29> H -1.4198227415 -0.1196668719 -1.8241592951
| 30> *
| 31>
| 32>                          ****END OF INPUT****

CARTESIAN COORDINATES (ANGSTROEM)
---------------------------------
  C     -2.159253   -0.903156   -0.191369
  C     -1.127977   -0.329147    0.802458
  H     -1.626129   -0.315517    1.780568
  C     -0.726388    1.137069    0.507406
  H     -1.585434    1.646427    0.054746
  C      0.469836    1.262424   -0.455601
  H      0.865379    2.285109   -0.345132
  C      1.584838    0.291338   -0.041305
  H      2.359336    0.266723   -0.827501
  C      1.051387   -1.152769    0.127462
  H      1.834030   -1.747251    0.628651
  O     -0.021984   -1.197805    1.021579
  O      0.829481   -1.754561   -1.100864
  O      2.117685    0.783301    1.167944
  O      0.024223    1.060742   -1.776893
  O     -0.459309    1.825289    1.697518
  O     -1.730737   -0.993981   -1.527440
  H     -3.068275   -0.291722   -0.121916
  H     -2.396919   -1.925447    0.113333
  H     -0.108683   -1.624704   -1.369104
  H      2.719393    0.128644    1.541088
  H      0.782781    0.918378   -2.354986
  H      0.405525    1.532687    2.023277
  H     -1.419823   -0.119667   -1.824159

 Total Charge           Charge          ....    0
 Multiplicity           Mult            ....    1
 Number of Electrons    NEL             ....   96
 Basis Dimension        Dim             ....  192

ORBITAL ENERGIES
----------------

  NO   OCC          E(Eh)            E(eV)
   0   2.0000     -18.791220      -511.3351
   1   2.0000     -18.782900      -511.1087
   2   2.0000     -18.769403      -510.7414
   3   2.0000     -18.766212      -510.6546
   4   2.0000     -18.743226      -510.0291
   5   2.0000     -18.737424      -509.8712
   6   2.0000      -9.987319      -271.7688
   7   2.0000      -9.960927      -271.0506
   8   2.0000      -9.956128      -270.9200
   9   2.0000      -9.952186      -270.8127
  10   2.0000      -9.947280      -270.6792
  11   2.0000      -9.940657      -270.4990
  12   2.0000      -0.985848       -26.8263
  13   2.0000      -0.962359       -26.1871
  14   2.0000      -0.954405       -25.9707
  15   2.0000      -0.937008       -25.4973
  16   2.0000      -0.927228       -25.2312
  17   2.0000      -0.899637       -24.4804
  18   2.0000      -0.709899       -19.3173
  19   2.0000      -0.696352       -18.9487
  20   2.0000      -0.629846       -17.1390
  21   2.0000      -0.602211       -16.3870
  22   2.0000      -0.583857       -15.8876
  23   2.0000      -0.532136       -14.4801
  24   2.0000      -0.500537       -13.6203
  25   2.0000      -0.493461       -13.4278
  26   2.0000      -0.482224       -13.1220
  27   2.0000      -0.467145       -12.7117
  28   2.0000      -0.447051       -12.1649
  29   2.0000      -0.439835       -11.9685
  30   2.0000      -0.428766       -11.6673
  31   2.0000      -0.422123       -11.4865
  32   2.0000      -0.396589       -10.7917
  33   2.0000      -0.381766       -10.3884
  34   2.0000      -0.377577       -10.2744
  35   2.0000      -0.354401        -9.6437
  36   2.0000      -0.340958        -9.2779
  37   2.0000      -0.327558        -8.9133
  38   2.0000      -0.313700        -8.5362
  39   2.0000      -0.299840        -8.1591
  40   2.0000      -0.293801        -7.9947
  41   2.0000      -0.281132        -7.6500
  42   2.0000      -0.265727        -7.2308
  43   2.0000      -0.253671        -6.9027
  44   2.0000      -0.248688        -6.7671
  45   2.0000      -0.231560        -6.3011
  46   2.0000      -0.209342        -5.6965
  47   2.0000      -0.204793        -5.5727
  48   0.0000      -0.000833        -0.0227
  49   0.0000       0.010014         0.2725
  50   0.0000       0.040640         1.1059
  51   0.0000       0.056574         1.5395
  52   0.0000       0.070692         1.9236

MULLIKEN ATOMIC CHARGES
-----------------------
   0 C :    0.033882
   1 C :    0.024282
   2 H :    0.083887
   3 C :    0.043141
   4 H :    0.079534
   5 C :    0.043102
   6 H :    0.089931
   7 C :    0.003159
   8 H :    0.068629
   9 C :    0.198394
  10 H :    0.051249
  11 O :   -0.302283
  12 O :   -0.422472
  13 O :   -0.420351
  14 O :   -0.424379
  15 O :   -0.424373
  16 O :   -0.447265
  17 H :    0.088564
  18 H :    0.100868
  19 H :    0.287131
  20 H :    0.313002
  21 H :    0.317381
  22 H :    0.302737
  23 H :    0.312246
Sum of atomic charges:    0.0000000

LOEWDIN ATOMIC CHARGES
----------------------
   0 C :   -0.136010
   1 C :   -0.081243
   2 H :    0.129167
   3 C :   -0.065897
   4 H :    0.118957
   5 C :   -0.069405
   6 H :    0.113304
   7 C :   -0.098828
   8 H :    0.101902
   9 C :   -0.010556
  10 H :    0.095761
  11 O :   -0.138626
  12 O :   -0.336856
  13 O :   -0.306745
  14 O :   -0.301681
  15 O :   -0.315308
  16 O :   -0.326611
  17 H :    0.108988
  18 H :    0.120787
  19 H :    0.265942
  20 H :    0.293079
  21 H :    0.294050
  22 H :    0.273979
  23 H :    0.271851

  Mayer bond orders larger than 0.100000
B(  0-C ,  1-C ) :   1.0293 B(  0-C , 16-O ) :   1.0407 B(  0-C , 17-H ) :   0.9137
B(  0-C , 18-H ) :   0.9168 B(  1-C ,  2-H ) :   0.8806 B(  1-C ,  3-C ) :   0.9664
B(  1-C , 11-O ) :   0.9978 B(  3-C ,  4-H ) :   0.8969 B(  3-C ,  5-C ) :   1.0028
B(  3-C , 15-O ) :   1.0676 B(  5-C ,  6-H ) :   0.8986 B(  5-C ,  7-C ) :   0.9933
B(  5-C , 14-O ) :   1.0174 B(  7-C ,  8-H ) :   0.8928 B(  7-C ,  9-C ) :   0.9396
B(  7-C , 13-O ) :   1.0118 B(  9-C , 10-H ) :   0.9042 B(  9-C , 11-O ) :   1.0658
B(  9-C , 12-O ) :   1.1538 B( 12-O , 19-H ) :   0.7528 B( 13-O , 20-H ) :   0.8372
B( 14-O , 21-H ) :   0.8269 B( 14-O , 23-H ) :   0.1227 B( 15-O , 22-H ) :   0.8153
B( 16-O , 19-H ) :   0.1805 B( 16-O , 23-H ) :   0.7768

Dispersion correction           -0.026788291
FINAL SINGLE POINT ENERGY      -685.704647352133

DIPOLE MOMENT
-------------

Method             : SCF
Type of density    : Electron Density
Multiplicity       :   1
Irrep              :   0
Energy             :  -685.8414986275834053 Eh
Relativity type    :
Basis              : AO
                                X                 Y                 Z
Electronic contribution:      1.813151952      -0.359453355       0.542368650
Nuclear contribution   :     -1.150971484       0.702957072      -0.665459626
                        -----------------------------------------
Total Dipole Moment    :      0.662180468       0.343503717      -0.123090976
                        -----------------------------------------
Magnitude (a.u.)       :      0.756061614
Magnitude (Debye)      :      1.921755899

Rotational constants in cm-1:             0.040447             0.031636             0.027729
Rotational constants in MHz :          1212.577313           948.415257           831.309352

                             ****ORCA TERMINATED NORMALLY****
TOTAL RUN TIME: 0 days 0 hours 0 minutes 8 seconds 229 msec
