                         Program Version 6.0.1  -  RELEASE   -
|  1> ! r2scan-3c def2/J RI DEFGRID2 scfconv6 printgap
|  2> %output
|  3>     printlevel normal
|  4> end
|  5> * xyz 0 1
|  6> C -0.3482748697 -1.0664082596 -0.0002142401
|  7> C 1.0246102584 -1.1385751453 -1.52803e-05
|  8> C 1.782167378 0.0344498362 7.42906e-05
|  9> C 1.141701924 1.2727612701 -0.0003562992
| 10> C -0.2353228974 1.3388431858 -0.0005402206
| 11> C -0.9986378684 0.1718249252 -0.0003745012
| 12> C -2.459363317 0.2341317686 -0.0002318938
| 13> O -3.2022248828 -0.7159053905 0.0008233257
| 14> O 3.1288185743 -0.0773421277 0.0005372332
| 15> H -0.9508205915 -1.9618965455 -0.0004840001
| 16> H 1.5410734309 -2.0851005029 0.0003001098
| 17> H 1.7320022509 2.1798584081 -0.0004344501
| 18> H -0.7279676141 2.3005830827 -0.0006163843
| 19> H -2.8602252364 1.2687390247 -0.0010477619
| 20> H 3.5408796303 0.7959176019 0.0004448531
| 21> *
| 22>
| 23>                          ****END OF INPUT****

CARTESIAN COORDINATES (ANGSTROEM)
---------------------------------
  C     -0.348275   -1.066408   -0.000214
  C      1.024610   -1.138575   -0.000015
  C      1.782167    0.034450    0.000074
  C      1.141702    1.272761   -0.000356
  C     -0.235323    1.338843   -0.000540
  C     -0.998638    0.171825   -0.000375
  C     -2.459363    0.234132   -0.000232
  O     -3.202225   -0.715905    0.000823
  O      3.128819   -0.077342    0.000537
  H     -0.950821   -1.961897   -0.000484
  H      1.541073   -2.085101    0.000300
  H      1.732002    2.179858   -0.000434
  H     -0.727968    2.300583   -0.000616
  H     -2.860225    1.268739   -0.001048
  H      3.540880    0.795918    0.000445

 Total Charge           Charge          ....    0
 Multiplicity           Mult            ....    1
 Number of Electrons    NEL             ....   64
 Basis Dimension        Dim             ....  211

ORBITAL ENERGIES
----------------

  NO   OCC          E(Eh)            E(eV)
   0   2.0000     -19.010623      -517.3053
   1   2.0000     -18.939485      -515.3696
   2   2.0000     -10.124137      -275.4918
   3   2.0000     -10.112152      -275.1656
   4   2.0000     -10.063219      -273.8341
   5   2.0000     -10.056856      -273.6610
   6   2.0000     -10.055296      -273.6185
   7   2.0000     -10.050706      -273.4936
   8   2.0000     -10.049030      -273.4480
   9   2.0000      -1.057265       -28.7696
  10   2.0000      -1.006952       -27.4006
  11   2.0000      -0.845202       -22.9991
  12   2.0000      -0.745283       -20.2802
  13   2.0000      -0.739219       -20.1152
  14   2.0000      -0.636335       -17.3156
  15   2.0000      -0.604454       -16.4480
  16   2.0000      -0.560009       -15.2386
  17   2.0000      -0.538263       -14.6469
  18   2.0000      -0.472030       -12.8446
  19   2.0000      -0.462978       -12.5983
  20   2.0000      -0.430298       -11.7090
  21   2.0000      -0.414019       -11.2660
  22   2.0000      -0.408613       -11.1189
  23   2.0000      -0.399156       -10.8616
  24   2.0000      -0.380737       -10.3604
  25   2.0000      -0.375054       -10.2057
  26   2.0000      -0.361112        -9.8264
  27   2.0000      -0.325825        -8.8661
  28   2.0000      -0.323219        -8.7952
  29   2.0000      -0.260248        -7.0817
  30   2.0000      -0.229162        -6.2358
  31   2.0000      -0.220667        -6.0047
  32   0.0000      -0.086549        -2.3551
  33   0.0000      -0.052228        -1.4212
  34   0.0000       0.012551         0.3415
  35   0.0000       0.040553         1.1035
  36   0.0000       0.070581         1.9206

MULLIKEN ATOMIC CHARGES
-----------------------
   0 C :   -0.134132
   1 C :   -0.295864
   2 C :    0.454205
   3 C :   -0.331869
   4 C :   -0.199962
   5 C :    0.191650
   6 C :    0.010498
   7 O :   -0.349685
   8 O :   -0.397505
   9 H :    0.182142
  10 H :    0.160120
  11 H :    0.139261
  12 H :    0.155575
  13 H :    0.098415
  14 H :    0.317152
Sum of atomic charges:    0.0000000

LOEWDIN ATOMIC CHARGES
----------------------
   0 C :   -0.089490
   1 C :   -0.131625
   2 C :    0.201752
   3 C :   -0.168727
   4 C :   -0.120166
   5 C :   -0.120810
   6 C :    0.205458
   7 O :   -0.462116
   8 O :   -0.472720
   9 H :    0.189448
  10 H :    0.183514
  11 H :    0.171404
  12 H :    0.175019
  13 H :    0.152963
  14 H :    0.286096

  Mayer bond orders larger than 0.100000
B(  0-C ,  1-C ) :   1.4165 B(  0-C ,  5-C ) :   1.3496 B(  0-C ,  9-H ) :   0.9589
B(  1-C ,  2-C ) :   1.3638 B(  1-C , 10-H ) :   0.9604 B(  2-C ,  3-C ) :   1.3167
B(  2-C ,  8-O ) :   0.9393 B(  3-C ,  4-C ) :   1.4407 B(  3-C , 11-H ) :   0.9395
B(  4-C ,  5-C ) :   1.3744 B(  4-C , 12-H ) :   0.9175 B(  5-C ,  6-C ) :   0.8513
B(  5-C ,  7-O ) :  -0.1117 B(  5-C , 13-H ) :  -0.1292 B(  6-C ,  7-O ) :   1.9499
B(  6-C , 13-H ) :   1.0508 B(  8-O , 14-H ) :   0.8802

Dispersion correction           -0.004924768
FINAL SINGLE POINT ENERGY      -420.713808132284

DIPOLE MOMENT
-------------

Method             : SCF
Type of density    : Electron Density
Multiplicity       :   1
Irrep              :   0
Energy             :  -420.7138117307107450 Eh
Relativity type    :
Basis              : AO
                                X                 Y                 Z
Electronic contribution:     -0.639238093      -1.219310074       0.000941273
Nuclear contribution   :      2.133199282       2.331901657      -0.001703869
                        -----------------------------------------
Total Dipole Moment    :      1.493961189       1.112591583      -0.000762596
                        -----------------------------------------
Magnitude (a.u.)       :      1.862734723
Magnitude (Debye)      :      4.734695393

Rotational constants in cm-1:             0.171743             0.033473             0.028013
Rotational constants in MHz :          5148.729385          1003.491079           839.811311

                             ****ORCA TERMINATED NORMALLY****
TOTAL RUN TIME: 0 days 0 hours 0 minutes 29 seconds 953 msec
