                         Program Version 6.0.1  -  RELEASE   -
|  1> ! r2scan-3c def2/J RI DEFGRID2 scfconv6 printgap
|  2> %output
|  3>     printlevel normal
|  4> end
|  5> * xyz 0 1
|  6> C 0.7202492429 -0.5621105198 -0.2411984932
|  7> C -0.7204140748 -0.5618606385 0.2413682611
|  8> Cl -1.0759670164 0.8982955625 1.1793737292
|  9> Cl -1.802376689 -0.6668261507 -1.1641011155
| 10> Cl 1.0762417779 0.8977532965 -1.1795404208
| 11> Cl 1.8021717122 -0.6672380319 1.1642019481
| 12> H 0.9150540252 -1.4282935198 -0.8787080911
| 13> H -0.9155444358 -1.4278679539 0.8790015923
| 14> *
| 15>
| 16>                          ****END OF INPUT****

CARTESIAN COORDINATES (ANGSTROEM)
---------------------------------
  C      0.720249   -0.562111   -0.241198
  C     -0.720414   -0.561861    0.241368
  Cl    -1.075967    0.898296    1.179374
  Cl    -1.802377   -0.666826   -1.164101
  Cl     1.076242    0.897753   -1.179540
  Cl     1.802172   -0.667238    1.164202
  H      0.915054   -1.428294   -0.878708
  H     -0.915544   -1.427868    0.879002

 Total Charge           Charge          ....    0
 Multiplicity           Mult            ....    1
 Number of Electrons    NEL             ....   82
 Basis Dimension        Dim             ....  156

ORBITAL ENERGIES
----------------

  NO   OCC          E(Eh)            E(eV)
   0   2.0000    -101.240460     -2754.8930
   1   2.0000    -101.240452     -2754.8928
   2   2.0000    -101.235323     -2754.7532
   3   2.0000    -101.235320     -2754.7531
   4   2.0000     -10.190585      -277.2999
   5   2.0000     -10.190451      -277.2963
   6   2.0000      -9.396427      -255.6898
   7   2.0000      -9.396418      -255.6895
   8   2.0000      -9.391298      -255.5502
   9   2.0000      -9.391296      -255.5501
  10   2.0000      -7.143211      -194.3766
  11   2.0000      -7.143202      -194.3764
  12   2.0000      -7.138234      -194.2412
  13   2.0000      -7.138232      -194.2412
  14   2.0000      -7.132351      -194.0811
  15   2.0000      -7.132342      -194.0809
  16   2.0000      -7.132003      -194.0717
  17   2.0000      -7.131994      -194.0714
  18   2.0000      -7.127084      -193.9378
  19   2.0000      -7.127081      -193.9377
  20   2.0000      -7.126837      -193.9311
  21   2.0000      -7.126835      -193.9310
  22   2.0000      -0.924530       -25.1577
  23   2.0000      -0.860539       -23.4165
  24   2.0000      -0.808396       -21.9976
  25   2.0000      -0.800923       -21.7942
  26   2.0000      -0.694877       -18.9086
  27   2.0000      -0.593098       -16.1390
  28   2.0000      -0.507613       -13.8129
  29   2.0000      -0.481261       -13.0958
  30   2.0000      -0.464923       -12.6512
  31   2.0000      -0.423007       -11.5106
  32   2.0000      -0.418692       -11.3932
  33   2.0000      -0.332434        -9.0460
  34   2.0000      -0.321851        -8.7580
  35   2.0000      -0.313994        -8.5442
  36   2.0000      -0.310653        -8.4533
  37   2.0000      -0.297827        -8.1043
  38   2.0000      -0.292311        -7.9542
  39   2.0000      -0.289814        -7.8862
  40   2.0000      -0.286786        -7.8039
  41   0.0000      -0.056308        -1.5322
  42   0.0000      -0.048661        -1.3241
  43   0.0000      -0.005423        -0.1476
  44   0.0000       0.005132         0.1396
  45   0.0000       0.078764         2.1433

MULLIKEN ATOMIC CHARGES
-----------------------
   0 C :   -0.008331
   1 C :   -0.008311
   2 Cl:   -0.095426
   3 Cl:   -0.105487
   4 Cl:   -0.095437
   5 Cl:   -0.105446
   6 H :    0.209215
   7 H :    0.209222
Sum of atomic charges:    0.0000000

LOEWDIN ATOMIC CHARGES
----------------------
   0 C :   -0.371232
   1 C :   -0.371207
   2 Cl:    0.098908
   3 Cl:    0.093468
   4 Cl:    0.098894
   5 Cl:    0.093516
   6 H :    0.178825
   7 H :    0.178826

  Mayer bond orders larger than 0.100000
B(  0-C ,  1-C ) :   0.9251 B(  0-C ,  4-Cl) :   1.0345 B(  0-C ,  5-Cl) :   1.0011
B(  0-C ,  6-H ) :   0.9162 B(  1-C ,  2-Cl) :   1.0345 B(  1-C ,  3-Cl) :   1.0011
B(  1-C ,  7-H ) :   0.9162

Dispersion correction           -0.003327839
FINAL SINGLE POINT ENERGY     -1918.093263410317

DIPOLE MOMENT
-------------

Method             : SCF
Type of density    : Electron Density
Multiplicity       :   1
Irrep              :   0
Energy             : -1918.1008421457122495 Eh
Relativity type    :
Basis              : AO
                                X                 Y                 Z
Electronic contribution:      0.000496939       2.591901970      -0.000199807
Nuclear contribution   :     -0.000553758      -3.299668552       0.000363753
                        -----------------------------------------
Total Dipole Moment    :     -0.000056820      -0.707766582       0.000163946
                        -----------------------------------------
Magnitude (a.u.)       :      0.707766603
Magnitude (Debye)      :      1.798999737

Rotational constants in cm-1:             0.060392             0.037798             0.032155
Rotational constants in MHz :          1810.500318          1133.169009           963.970629

                             ****ORCA TERMINATED NORMALLY****
TOTAL RUN TIME: 0 days 0 hours 0 minutes 19 seconds 653 msec
