                         Program Version 6.0.1  -  RELEASE   -
|  1> ! pbe def2-sv(p) def2/J RI DEFGRID1 loosescf d4 GCP(DFT/SV(P)) printgap
|  2> %output
|  3>     printlevel normal
|  4> end
|  5> * xyz 0 1
|  6> C -2.2873935702 -1.0578546795 -0.2106695944
|  7> C -0.8924647883 -0.5709877038 0.1988772549
|  8> H -0.8027040447 -0.6580475981 1.2965140817
|  9> C -0.7087447567 0.9160880736 -0.1840468851
| 10> H -1.2109184782 1.1142397777 -1.1402922879
| 11> C 0.7802636286 1.2514455654 -0.3786751258
| 12> H 0.925027859 2.2935707193 -0.0526602217
| 13> C 1.619911779 0.3192001625 0.5010118623
| 14> H 2.6929468529 0.5174126079 0.3595163541
| 15> C 1.3944631343 -1.1482174473 0.0313927865
| 16> H 1.6371631419 -1.8189278048 0.8705844134
| 17> O 0.0738809166 -1.3817500599 -0.4170538449
| 18> O 2.2458595851 -1.4698748533 -1.0099410865
| 19> O 1.3275971108 0.498335483 1.863784613
| 20> O 1.0943020878 1.104793116 -1.7429774378
| 21> O -1.2179761724 1.7457199175 0.8367866685
| 22> O -3.2866265044 -0.3285547751 0.4663272654
| 23> H -2.3677976787 -2.1330356723 -0.0206654969
| 24> H -2.4411269629 -0.8807504998 -1.276627039
| 25> H 1.8629279067 -1.0811869036 -1.8109249342
| 26> H 0.5470982011 1.0639958948 1.9478354305
| 27> H 2.0042438546 1.3909089529 -1.884757883
| 28> H -2.1729161649 1.5934829411 0.8768329426
| 29> H -3.316906749 -0.6193369013 1.3852537662
| 30> *
| 31>
| 32>                          ****END OF INPUT****

CARTESIAN COORDINATES (ANGSTROEM)
---------------------------------
  C     -2.287394   -1.057855   -0.210670
  C     -0.892465   -0.570988    0.198877
  H     -0.802704   -0.658048    1.296514
  C     -0.708745    0.916088   -0.184047
  H     -1.210918    1.114240   -1.140292
  C      0.780264    1.251446   -0.378675
  H      0.925028    2.293571   -0.052660
  C      1.619912    0.319200    0.501012
  H      2.692947    0.517413    0.359516
  C      1.394463   -1.148217    0.031393
  H      1.637163   -1.818928    0.870584
  O      0.073881   -1.381750   -0.417054
  O      2.245860   -1.469875   -1.009941
  O      1.327597    0.498335    1.863785
  O      1.094302    1.104793   -1.742977
  O     -1.217976    1.745720    0.836787
  O     -3.286627   -0.328555    0.466327
  H     -2.367798   -2.133036   -0.020665
  H     -2.441127   -0.880750   -1.276627
  H      1.862928   -1.081187   -1.810925
  H      0.547098    1.063996    1.947835
  H      2.004244    1.390909   -1.884758
  H     -2.172916    1.593483    0.876833
  H     -3.316907   -0.619337    1.385254

 Total Charge           Charge          ....    0
 Multiplicity           Mult            ....    1
 Number of Electrons    NEL             ....   96
 Basis Dimension        Dim             ....  192

ORBITAL ENERGIES
----------------

  NO   OCC          E(Eh)            E(eV)
   0   2.0000     -18.778324      -510.9842
   1   2.0000     -18.774438      -510.8784
   2   2.0000     -18.769124      -510.7338
   3   2.0000     -18.766749      -510.6692
   4   2.0000     -18.750647      -510.2310
   5   2.0000     -18.746367      -510.1146
   6   2.0000      -9.978650      -271.5329
   7   2.0000      -9.954374      -270.8723
   8   2.0000      -9.949990      -270.7530
   9   2.0000      -9.946802      -270.6662
  10   2.0000      -9.945580      -270.6330
  11   2.0000      -9.939153      -270.4581
  12   2.0000      -0.983880       -26.7727
  13   2.0000      -0.954600       -25.9760
  14   2.0000      -0.951274       -25.8855
  15   2.0000      -0.939526       -25.5658
  16   2.0000      -0.926671       -25.2160
  17   2.0000      -0.909296       -24.7432
  18   2.0000      -0.706497       -19.2248
  19   2.0000      -0.688040       -18.7225
  20   2.0000      -0.630191       -17.1484
  21   2.0000      -0.579554       -15.7705
  22   2.0000      -0.577657       -15.7189
  23   2.0000      -0.523348       -14.2410
  24   2.0000      -0.515101       -14.0166
  25   2.0000      -0.503204       -13.6929
  26   2.0000      -0.474128       -12.9017
  27   2.0000      -0.466682       -12.6991
  28   2.0000      -0.461157       -12.5487
  29   2.0000      -0.437626       -11.9084
  30   2.0000      -0.417746       -11.3674
  31   2.0000      -0.402336       -10.9481
  32   2.0000      -0.385306       -10.4847
  33   2.0000      -0.380084       -10.3426
  34   2.0000      -0.364106        -9.9078
  35   2.0000      -0.360949        -9.8219
  36   2.0000      -0.330421        -8.9912
  37   2.0000      -0.327290        -8.9060
  38   2.0000      -0.309646        -8.4259
  39   2.0000      -0.305765        -8.3203
  40   2.0000      -0.296311        -8.0630
  41   2.0000      -0.280077        -7.6213
  42   2.0000      -0.257843        -7.0163
  43   2.0000      -0.249575        -6.7913
  44   2.0000      -0.247350        -6.7307
  45   2.0000      -0.228053        -6.2056
  46   2.0000      -0.222615        -6.0577
  47   2.0000      -0.194813        -5.3011
  48   0.0000      -0.000743        -0.0202
  49   0.0000       0.011705         0.3185
  50   0.0000       0.041043         1.1168
  51   0.0000       0.047065         1.2807
  52   0.0000       0.062327         1.6960

MULLIKEN ATOMIC CHARGES
-----------------------
   0 C :    0.070446
   1 C :   -0.001120
   2 H :    0.041179
   3 C :    0.021143
   4 H :    0.073950
   5 C :    0.036954
   6 H :    0.085462
   7 C :   -0.031075
   8 H :    0.070964
   9 C :    0.249027
  10 H :    0.069955
  11 O :   -0.302592
  12 O :   -0.402270
  13 O :   -0.413231
  14 O :   -0.410251
  15 O :   -0.421802
  16 O :   -0.438385
  17 H :    0.096782
  18 H :    0.095897
  19 H :    0.287538
  20 H :    0.308918
  21 H :    0.307671
  22 H :    0.299133
  23 H :    0.305708
Sum of atomic charges:   -0.0000000

LOEWDIN ATOMIC CHARGES
----------------------
   0 C :   -0.121269
   1 C :   -0.089994
   2 H :    0.095077
   3 C :   -0.068436
   4 H :    0.114802
   5 C :   -0.072621
   6 H :    0.109815
   7 C :   -0.100700
   8 H :    0.108600
   9 C :    0.011305
  10 H :    0.101439
  11 O :   -0.146437
  12 O :   -0.303114
  13 O :   -0.315337
  14 O :   -0.307703
  15 O :   -0.320264
  16 O :   -0.324931
  17 H :    0.107521
  18 H :    0.118755
  19 H :    0.270562
  20 H :    0.277628
  21 H :    0.289552
  22 H :    0.276791
  23 H :    0.288958

  Mayer bond orders larger than 0.100000
B(  0-C ,  1-C ) :   1.0309 B(  0-C , 16-O ) :   1.0350 B(  0-C , 17-H ) :   0.9242
B(  0-C , 18-H ) :   0.9134 B(  1-C ,  2-H ) :   0.8616 B(  1-C ,  3-C ) :   0.9905
B(  1-C , 11-O ) :   1.0411 B(  3-C ,  4-H ) :   0.8754 B(  3-C ,  5-C ) :   1.0003
B(  3-C , 15-O ) :   1.0609 B(  5-C ,  6-H ) :   0.8951 B(  5-C ,  7-C ) :   1.0361
B(  5-C , 14-O ) :   1.0553 B(  7-C ,  8-H ) :   0.8983 B(  7-C ,  9-C ) :   0.9162
B(  7-C , 13-O ) :   1.0686 B(  9-C , 10-H ) :   0.9027 B(  9-C , 11-O ) :   1.0139
B(  9-C , 12-O ) :   1.1204 B( 12-O , 19-H ) :   0.8297 B( 13-O , 20-H ) :   0.8159
B( 14-O , 21-H ) :   0.8389 B( 15-O , 22-H ) :   0.8151 B( 16-O , 23-H ) :   0.8448

Dispersion correction           -0.025220639
FINAL SINGLE POINT ENERGY      -685.692692487496

DIPOLE MOMENT
-------------

Method             : SCF
Type of density    : Electron Density
Multiplicity       :   1
Irrep              :   0
Energy             :  -685.8261552953060800 Eh
Relativity type    :
Basis              : AO
                                X                 Y                 Z
Electronic contribution:      1.846612401      -0.299062059      -0.469756801
Nuclear contribution   :     -2.476036634       0.736453162       0.516519491
                        -----------------------------------------
Total Dipole Moment    :     -0.629424233       0.437391103       0.046762690
                        -----------------------------------------
Magnitude (a.u.)       :      0.767901421
Magnitude (Debye)      :      1.951850295

Rotational constants in cm-1:             0.044723             0.025300             0.022138
Rotational constants in MHz :          1340.754885           758.482283           663.680478

                             ****ORCA TERMINATED NORMALLY****
TOTAL RUN TIME: 0 days 0 hours 0 minutes 8 seconds 281 msec
