                         Program Version 6.0.1  -  RELEASE   -
|  1> ! pbe def2-sv(p) def2/J RI DEFGRID1 loosescf d4 GCP(DFT/SV(P)) printgap
|  2> %output
|  3>     printlevel normal
|  4> end
|  5> * xyz 0 1
|  6> C -2.3807708017 -0.8939820966 0.4255281699
|  7> C -0.9342548785 -0.4281208095 0.6496841409
|  8> H -0.6726833907 -0.5175895353 1.7164601728
|  9> C -0.7487402981 1.041885079 0.2040458473
| 10> H -1.5270278407 1.2895017867 -0.5350110414
| 11> C 0.6340026997 1.2358089082 -0.4550108281
| 12> H 0.908701256 2.295512348 -0.3336865757
| 13> C 1.6546161589 0.360635801 0.2789030682
| 14> H 2.6461689974 0.4890802431 -0.1737975372
| 15> C 1.2666343245 -1.1285902544 0.0612853548
| 16> H 1.6009050861 -1.7122469941 0.9323247408
| 17> O -0.1306989915 -1.2911993739 -0.1202406893
| 18> O 1.8880021915 -1.657439322 -1.047219739
| 19> O 1.757968648 0.6987007304 1.6355682936
| 20> O 0.646176205 0.8634725752 -1.8102079422
| 21> O -0.8076332711 1.9289233052 1.3037432626
| 22> O -2.7333059896 -0.7916126703 -0.9258249317
| 23> H -3.0774046733 -0.2627121369 0.9829420003
| 24> H -2.4739593299 -1.9286222633 0.7792791532
| 25> H 1.5954072731 -1.1422592519 -1.8140015231
| 26> H 0.9898728074 1.2293744962 1.8920881824
| 27> H -0.0213859555 1.3699167039 -2.287057626
| 28> H -1.6879129273 1.8974674697 1.6936422799
| 29> H -2.0707608604 -1.2883802452 -1.424179748
| 30> *
| 31>
| 32>                          ****END OF INPUT****

CARTESIAN COORDINATES (ANGSTROEM)
---------------------------------
  C     -2.380771   -0.893982    0.425528
  C     -0.934255   -0.428121    0.649684
  H     -0.672683   -0.517590    1.716460
  C     -0.748740    1.041885    0.204046
  H     -1.527028    1.289502   -0.535011
  C      0.634003    1.235809   -0.455011
  H      0.908701    2.295512   -0.333687
  C      1.654616    0.360636    0.278903
  H      2.646169    0.489080   -0.173798
  C      1.266634   -1.128590    0.061285
  H      1.600905   -1.712247    0.932325
  O     -0.130699   -1.291199   -0.120241
  O      1.888002   -1.657439   -1.047220
  O      1.757969    0.698701    1.635568
  O      0.646176    0.863473   -1.810208
  O     -0.807633    1.928923    1.303743
  O     -2.733306   -0.791613   -0.925825
  H     -3.077405   -0.262712    0.982942
  H     -2.473959   -1.928622    0.779279
  H      1.595407   -1.142259   -1.814002
  H      0.989873    1.229374    1.892088
  H     -0.021386    1.369917   -2.287058
  H     -1.687913    1.897467    1.693642
  H     -2.070761   -1.288380   -1.424180

 Total Charge           Charge          ....    0
 Multiplicity           Mult            ....    1
 Number of Electrons    NEL             ....   96
 Basis Dimension        Dim             ....  192

ORBITAL ENERGIES
----------------

  NO   OCC          E(Eh)            E(eV)
   0   2.0000     -18.786298      -511.2011
   1   2.0000     -18.778394      -510.9861
   2   2.0000     -18.769320      -510.7392
   3   2.0000     -18.757292      -510.4119
   4   2.0000     -18.745779      -510.0986
   5   2.0000     -18.744745      -510.0704
   6   2.0000      -9.976818      -271.4830
   7   2.0000      -9.957355      -270.9534
   8   2.0000      -9.957208      -270.9494
   9   2.0000      -9.951097      -270.7831
  10   2.0000      -9.944544      -270.6048
  11   2.0000      -9.938566      -270.4421
  12   2.0000      -0.985065       -26.8050
  13   2.0000      -0.960941       -26.1485
  14   2.0000      -0.950729       -25.8706
  15   2.0000      -0.938046       -25.5255
  16   2.0000      -0.923737       -25.1362
  17   2.0000      -0.907747       -24.7011
  18   2.0000      -0.708694       -19.2845
  19   2.0000      -0.688837       -18.7442
  20   2.0000      -0.629848       -17.1390
  21   2.0000      -0.591326       -16.0908
  22   2.0000      -0.574289       -15.6272
  23   2.0000      -0.525676       -14.3044
  24   2.0000      -0.513170       -13.9641
  25   2.0000      -0.502648       -13.6777
  26   2.0000      -0.471532       -12.8310
  27   2.0000      -0.467480       -12.7208
  28   2.0000      -0.452597       -12.3158
  29   2.0000      -0.451608       -12.2889
  30   2.0000      -0.420826       -11.4513
  31   2.0000      -0.397415       -10.8142
  32   2.0000      -0.390171       -10.6171
  33   2.0000      -0.383772       -10.4430
  34   2.0000      -0.368887       -10.0379
  35   2.0000      -0.363937        -9.9032
  36   2.0000      -0.339476        -9.2376
  37   2.0000      -0.327265        -8.9053
  38   2.0000      -0.314260        -8.5514
  39   2.0000      -0.293241        -7.9795
  40   2.0000      -0.290772        -7.9123
  41   2.0000      -0.269533        -7.3344
  42   2.0000      -0.263603        -7.1730
  43   2.0000      -0.251063        -6.8318
  44   2.0000      -0.244631        -6.6568
  45   2.0000      -0.230287        -6.2664
  46   2.0000      -0.222530        -6.0553
  47   2.0000      -0.196661        -5.3514
  48   0.0000      -0.006842        -0.1862
  49   0.0000       0.008239         0.2242
  50   0.0000       0.041623         1.1326
  51   0.0000       0.050833         1.3832
  52   0.0000       0.059928         1.6307

MULLIKEN ATOMIC CHARGES
-----------------------
   0 C :    0.080690
   1 C :   -0.005665
   2 H :    0.055235
   3 C :   -0.006791
   4 H :    0.062981
   5 C :    0.047863
   6 H :    0.085950
   7 C :   -0.014137
   8 H :    0.086673
   9 C :    0.230077
  10 H :    0.069984
  11 O :   -0.311836
  12 O :   -0.391191
  13 O :   -0.420374
  14 O :   -0.417620
  15 O :   -0.411746
  16 O :   -0.435388
  17 H :    0.071921
  18 H :    0.091236
  19 H :    0.300255
  20 H :    0.305445
  21 H :    0.309724
  22 H :    0.312960
  23 H :    0.303754
Sum of atomic charges:   -0.0000000

LOEWDIN ATOMIC CHARGES
----------------------
   0 C :   -0.124207
   1 C :   -0.090285
   2 H :    0.103163
   3 C :   -0.086022
   4 H :    0.104477
   5 C :   -0.071440
   6 H :    0.109366
   7 C :   -0.086292
   8 H :    0.118585
   9 C :    0.004604
  10 H :    0.102918
  11 O :   -0.157559
  12 O :   -0.291675
  13 O :   -0.317684
  14 O :   -0.310077
  15 O :   -0.309184
  16 O :   -0.330295
  17 H :    0.107193
  18 H :    0.108110
  19 H :    0.276268
  20 H :    0.273266
  21 H :    0.290569
  22 H :    0.293029
  23 H :    0.283175

  Mayer bond orders larger than 0.100000
B(  0-C ,  1-C ) :   1.0330 B(  0-C , 16-O ) :   1.0645 B(  0-C , 17-H ) :   0.9247
B(  0-C , 18-H ) :   0.9096 B(  1-C ,  2-H ) :   0.8674 B(  1-C ,  3-C ) :   0.9816
B(  1-C , 11-O ) :   1.0491 B(  3-C ,  4-H ) :   0.8738 B(  3-C ,  5-C ) :   0.9879
B(  3-C , 15-O ) :   1.0302 B(  5-C ,  6-H ) :   0.8970 B(  5-C ,  7-C ) :   1.0378
B(  5-C , 14-O ) :   1.0386 B(  7-C ,  8-H ) :   0.8988 B(  7-C ,  9-C ) :   0.9387
B(  7-C , 13-O ) :   1.0806 B(  9-C , 10-H ) :   0.9033 B(  9-C , 11-O ) :   0.9777
B(  9-C , 12-O ) :   1.1495 B( 12-O , 19-H ) :   0.8285 B( 13-O , 20-H ) :   0.8096
B( 14-O , 21-H ) :   0.8396 B( 15-O , 22-H ) :   0.8402 B( 16-O , 23-H ) :   0.8362

Dispersion correction           -0.025480552
FINAL SINGLE POINT ENERGY      -685.693954168233

DIPOLE MOMENT
-------------

Method             : SCF
Type of density    : Electron Density
Multiplicity       :   1
Irrep              :   0
Energy             :  -685.8272261710243356 Eh
Relativity type    :
Basis              : AO
                                X                 Y                 Z
Electronic contribution:      2.356292153      -0.713454235      -1.387532357
Nuclear contribution   :     -3.546546864       1.609063318       1.326363561
                        -----------------------------------------
Total Dipole Moment    :     -1.190254711       0.895609083      -0.061168796
                        -----------------------------------------
Magnitude (a.u.)       :      1.490826458
Magnitude (Debye)      :      3.789379709

Rotational constants in cm-1:             0.039096             0.029463             0.023669
Rotational constants in MHz :          1172.075383           883.266570           709.565413

                             ****ORCA TERMINATED NORMALLY****
TOTAL RUN TIME: 0 days 0 hours 0 minutes 8 seconds 246 msec
