                         Program Version 6.0.0  -   RELEASE  -
|  1> ! M062X DEF2-TZVP FREQ
|  2> * xyzfile 0 1 censo.xyz
|  3>
|  4>                          ****END OF INPUT****

CARTESIAN COORDINATES (ANGSTROEM)
---------------------------------
  C     -2.242632    0.269459    0.000062
  C     -1.778121   -1.044067    0.000069
  C     -0.410574   -1.290131    0.000047
  C      0.493231   -0.220804   -0.000008
  C      0.020757    1.099383   -0.000037
  C     -1.344069    1.339905    0.000007
  C      1.927604   -0.516380   -0.000031
  O      2.815061    0.329972   -0.000066
  H     -3.310502    0.463741    0.000081
  H     -2.481172   -1.870308    0.000123
  H     -0.032338   -2.308753    0.000056
  H      0.729952    1.920848   -0.000075
  H     -1.717208    2.358752   -0.000019
  H      2.184208   -1.594077   -0.000034

 Total Charge           Charge          ....    0
 Multiplicity           Mult            ....    1
 Number of Electrons    NEL             ....   56
 Basis Dimension        Dim             ....  284

ORBITAL ENERGIES
----------------

  NO   OCC          E(Eh)            E(eV)
   0   2.0000     -19.627562      -534.0931
   1   2.0000     -10.632402      -289.3224
   2   2.0000     -10.567084      -287.5450
   3   2.0000     -10.565111      -287.4913
   4   2.0000     -10.562963      -287.4328
   5   2.0000     -10.561570      -287.3949
   6   2.0000     -10.561044      -287.3806
   7   2.0000     -10.559574      -287.3406
   8   2.0000      -1.163207       -31.6525
   9   2.0000      -0.981444       -26.7064
  10   2.0000      -0.877692       -23.8832
  11   2.0000      -0.863045       -23.4847
  12   2.0000      -0.749744       -20.4016
  13   2.0000      -0.708548       -19.2806
  14   2.0000      -0.662857       -18.0373
  15   2.0000      -0.608137       -16.5482
  16   2.0000      -0.566638       -15.4190
  17   2.0000      -0.542274       -14.7560
  18   2.0000      -0.516793       -14.0626
  19   2.0000      -0.507793       -13.8177
  20   2.0000      -0.503726       -13.7071
  21   2.0000      -0.486396       -13.2355
  22   2.0000      -0.440390       -11.9836
  23   2.0000      -0.435108       -11.8399
  24   2.0000      -0.418969       -11.4007
  25   2.0000      -0.338640        -9.2149
  26   2.0000      -0.328893        -8.9496
  27   2.0000      -0.324416        -8.8278
  28   0.0000      -0.041400        -1.1266
  29   0.0000       0.004641         0.1263
  30   0.0000       0.067050         1.8245
  31   0.0000       0.075071         2.0428
  32   0.0000       0.091249         2.4830

MULLIKEN ATOMIC CHARGES
-----------------------
   0 C :   -0.132150
   1 C :   -0.146821
   2 C :   -0.180133
   3 C :    0.106775
   4 C :   -0.181056
   5 C :   -0.116990
   6 C :    0.094196
   7 O :   -0.310271
   8 H :    0.150407
   9 H :    0.148178
  10 H :    0.153035
  11 H :    0.173332
  12 H :    0.150894
  13 H :    0.090604
Sum of atomic charges:    0.0000000

LOEWDIN ATOMIC CHARGES
----------------------
   0 C :   -0.119994
   1 C :   -0.136913
   2 C :   -0.094866
   3 C :   -0.164782
   4 C :   -0.072500
   5 C :   -0.131987
   6 C :   -0.242549
   7 O :    0.088916
   8 H :    0.147983
   9 H :    0.147670
  10 H :    0.150932
  11 H :    0.158589
  12 H :    0.148321
  13 H :    0.121178

  Mayer bond orders larger than 0.100000
B(  0-C ,  1-C ) :   1.4492 B(  0-C ,  5-C ) :   1.4117 B(  0-C ,  8-H ) :   0.9458
B(  1-C ,  2-C ) :   1.4551 B(  1-C ,  9-H ) :   0.9487 B(  2-C ,  3-C ) :   1.3850
B(  2-C , 10-H ) :   0.9240 B(  3-C ,  4-C ) :   1.3737 B(  3-C ,  6-C ) :   0.9314
B(  4-C ,  5-C ) :   1.4635 B(  4-C , 11-H ) :   0.9184 B(  5-C , 12-H ) :   0.9503
B(  6-C ,  7-O ) :   2.0455 B(  6-C , 13-H ) :   1.0055

FINAL SINGLE POINT ENERGY      -345.553594471834

DIPOLE MOMENT
-------------

Method             : SCF
Type of density    : Electron Density
Multiplicity       :   1
Irrep              :   0
Energy             :  -345.5535944718342876 Eh
Relativity type    :
Basis              : AO
                                X                 Y                 Z
Electronic contribution:      3.010963692       0.461477606      -0.000070087
Nuclear contribution   :     -4.317010034      -0.955165966       0.000103816
                        -----------------------------------------
Total Dipole Moment    :     -1.306046342      -0.493688360       0.000033729
                        -----------------------------------------
Magnitude (a.u.)       :      1.396239680
Magnitude (Debye)      :      3.548959227

VIBRATIONAL FREQUENCIES
-----------------------

Scaling factor for frequencies =  1.000000000  (already applied!)

     0:       0.00 cm**-1
     1:       0.00 cm**-1
     2:       0.00 cm**-1
     3:       0.00 cm**-1
     4:       0.00 cm**-1
     5:       0.00 cm**-1
     6:     171.99 cm**-1
     7:     248.92 cm**-1
     8:     274.26 cm**-1
     9:     422.40 cm**-1
    10:     449.87 cm**-1
    11:     473.07 cm**-1
    12:     630.01 cm**-1
    13:     670.62 cm**-1
    14:     717.31 cm**-1
    15:     779.97 cm**-1
    16:     856.75 cm**-1
    17:     886.95 cm**-1
    18:     963.97 cm**-1
    19:    1017.24 cm**-1
    20:    1017.31 cm**-1
    21:    1036.87 cm**-1
    22:    1049.47 cm**-1
    23:    1055.37 cm**-1
    24:    1110.51 cm**-1
    25:    1179.67 cm**-1
    26:    1194.97 cm**-1
    27:    1252.29 cm**-1
    28:    1313.08 cm**-1
    29:    1348.67 cm**-1
    30:    1422.91 cm**-1
    31:    1493.22 cm**-1
    32:    1534.61 cm**-1
    33:    1634.88 cm**-1
    34:    1665.40 cm**-1
    35:    1710.83 cm**-1
    36:    2948.57 cm**-1
    37:    3172.88 cm**-1
    38:    3181.49 cm**-1
    39:    3190.67 cm**-1
    40:    3198.61 cm**-1
    41:    3204.94 cm**-1

IR SPECTRUM
-----------

 Mode   freq       eps      Int      T**2         TX        TY        TZ
       cm**-1   L/(mol*cm) km/mol    a.u.
----------------------------------------------------------------------------
  6:    171.99   0.000172    0.87  0.000313  (-0.000034 -0.000105 -0.017691)
  7:    248.92   0.001271    6.42  0.001593  (-0.032252  0.023517  0.000010)
  8:    274.26   0.002595   13.12  0.002953  ( 0.000015 -0.000021  0.054343)
  9:    422.40   0.000029    0.15  0.000021  ( 0.000005  0.000011  0.004631)
 10:    449.87   0.000024    0.12  0.000016  ( 0.001923 -0.003566 -0.000001)
 11:    473.07   0.001305    6.60  0.000861  ( 0.000024  0.000062 -0.029340)
 12:    630.01   0.000063    0.32  0.000031  (-0.003762  0.004099  0.000004)
 13:    670.62   0.005015   25.35  0.002334  (-0.044842  0.017976  0.000006)
 14:    717.31   0.005495   27.77  0.002391  (-0.000011  0.000009 -0.048893)
 15:    779.97   0.009780   49.43  0.003913  (-0.000003 -0.000019 -0.062555)
 16:    856.75   0.005957   30.11  0.002170  (-0.042036  0.020073 -0.000000)
 17:    886.95   0.000001    0.00  0.000000  ( 0.000007  0.000007  0.000545)
 18:    963.97   0.000201    1.02  0.000065  (-0.000003 -0.000007  0.008069)
 19:   1017.24   0.000147    0.74  0.000045  (-0.006377  0.002077 -0.000278)
 20:   1017.31   0.000040    0.20  0.000012  (-0.000508  0.000166  0.003454)
 21:   1036.87   0.000010    0.05  0.000003  (-0.000011 -0.000015 -0.001759)
 22:   1049.47   0.000372    1.88  0.000110  (-0.010511  0.000032 -0.000001)
 23:   1055.37   0.000267    1.35  0.000079  ( 0.000002  0.000015  0.008881)
 24:   1110.51   0.001015    5.13  0.000285  (-0.001757 -0.016799  0.000001)
 25:   1179.67   0.000187    0.95  0.000050  ( 0.004732  0.005214 -0.000000)
 26:   1194.97   0.002621   13.24  0.000684  (-0.026000  0.002898  0.000000)
 27:   1252.29   0.009810   49.58  0.002445  (-0.048128  0.011331  0.000001)
 28:   1313.08   0.004370   22.08  0.001039  ( 0.032065  0.003231 -0.000002)
 29:   1348.67   0.002441   12.34  0.000565  ( 0.017124 -0.016481 -0.000000)
 30:   1422.91   0.001311    6.62  0.000287  ( 0.004752 -0.016274 -0.000000)
 31:   1493.22   0.003013   15.23  0.000630  ( 0.016608 -0.018811  0.000000)
 32:   1534.61   0.000273    1.38  0.000055  ( 0.003950 -0.006313  0.000000)
 33:   1634.88   0.004946   25.00  0.000944  ( 0.030083  0.006253 -0.000001)
 34:   1665.40   0.007897   39.91  0.001480  (-0.038461  0.000687  0.000001)
 35:   1710.83   0.051604  260.78  0.009413  (-0.089916 -0.036439  0.000002)
 36:   2948.57   0.015709   79.39  0.001663  ( 0.019653 -0.035726 -0.000000)
 37:   3172.88   0.000347    1.75  0.000034  ( 0.004313 -0.003941  0.000000)
 38:   3181.49   0.000140    0.71  0.000014  (-0.003566  0.001028 -0.000000)
 39:   3190.67   0.000915    4.62  0.000089  ( 0.000426 -0.009450 -0.000000)
 40:   3198.61   0.000746    3.77  0.000073  (-0.004640 -0.007160  0.000001)
 41:   3204.94   0.001139    5.76  0.000111  ( 0.010094 -0.003001 -0.000000)

--------------------------
THERMOCHEMISTRY AT 298.15K
--------------------------

Temperature         ...   298.15 K
Pressure            ...     1.00 atm
Total Mass          ...   106.12 AMU
Quasi RRHO          ...     True
Cut-Off Frequency   ...     1.00 cm^-1

Throughout the following assumptions are being made:
  (1) The electronic state is orbitally nondegenerate
  (2) There are no thermally accessible electronically excited states
  (3) Hindered rotations indicated by low frequency modes are not
      treated as such but are treated as vibrations and this may
      cause some error
  (4) All equations used are the standard statistical mechanics
      equations for an ideal gas
  (5) All vibrations are strictly harmonic

freq.     171.99  E(vib)   ...       0.38
freq.     248.92  E(vib)   ...       0.31
freq.     274.26  E(vib)   ...       0.28
freq.     422.40  E(vib)   ...       0.18
freq.     449.87  E(vib)   ...       0.17
freq.     473.07  E(vib)   ...       0.15
freq.     630.01  E(vib)   ...       0.09
freq.     670.62  E(vib)   ...       0.08
freq.     717.31  E(vib)   ...       0.07
freq.     779.97  E(vib)   ...       0.05
freq.     856.75  E(vib)   ...       0.04
freq.     886.95  E(vib)   ...       0.04
freq.     963.97  E(vib)   ...       0.03
freq.    1017.24  E(vib)   ...       0.02
freq.    1017.31  E(vib)   ...       0.02
freq.    1036.87  E(vib)   ...       0.02
freq.    1049.47  E(vib)   ...       0.02
freq.    1055.37  E(vib)   ...       0.02
freq.    1110.51  E(vib)   ...       0.02
freq.    1179.67  E(vib)   ...       0.01
freq.    1194.97  E(vib)   ...       0.01
freq.    1252.29  E(vib)   ...       0.01
freq.    1313.08  E(vib)   ...       0.01
freq.    1348.67  E(vib)   ...       0.01
freq.    1422.91  E(vib)   ...       0.00
freq.    1493.22  E(vib)   ...       0.00
freq.    1534.61  E(vib)   ...       0.00
freq.    1634.88  E(vib)   ...       0.00
freq.    1665.40  E(vib)   ...       0.00
freq.    1710.83  E(vib)   ...       0.00
freq.    2948.57  E(vib)   ...       0.00
freq.    3172.88  E(vib)   ...       0.00
freq.    3181.49  E(vib)   ...       0.00
freq.    3190.67  E(vib)   ...       0.00
freq.    3198.61  E(vib)   ...       0.00
freq.    3204.94  E(vib)   ...       0.00

------------
INNER ENERGY
------------

The inner energy is: U= E(el) + E(ZPE) + E(vib) + E(rot) + E(trans)
    E(el)   - is the total energy from the electronic structure calculation
              = E(kin-el) + E(nuc-el) + E(el-el) + E(nuc-nuc)
    E(ZPE)  - the the zero temperature vibrational energy from the frequency calculation
    E(vib)  - the the finite temperature correction to E(ZPE) due to population
              of excited vibrational states
    E(rot)  - is the rotational thermal energy
    E(trans)- is the translational thermal energy

Summary of contributions to the inner energy U:
Electronic energy                ...   -345.55359447 Eh
Zero point energy                ...      0.11044690 Eh      69.31 kcal/mol
Thermal vibrational correction   ...      0.00324336 Eh       2.04 kcal/mol
Thermal rotational correction    ...      0.00141627 Eh       0.89 kcal/mol
Thermal translational correction ...      0.00141627 Eh       0.89 kcal/mol
-----------------------------------------------------------------------
Total thermal energy                   -345.43707166 Eh

Summary of corrections to the electronic energy:
(perhaps to be used in another calculation)
Total thermal correction                  0.00607591 Eh       3.81 kcal/mol
Non-thermal (ZPE) correction              0.11044690 Eh      69.31 kcal/mol
-----------------------------------------------------------------------
Total correction                          0.11652281 Eh      73.12 kcal/mol

--------
ENTHALPY
--------

The enthalpy is H = U + kB*T
                kB is Boltzmann's constant
Total thermal energy              ...   -345.43707166 Eh
Thermal Enthalpy correction       ...      0.00094421 Eh       0.59 kcal/mol
-----------------------------------------------------------------------
Total Enthalpy                    ...   -345.43612745 Eh

Note: Rotational entropy computed according to Herzberg
Infrared and Raman Spectra, Chapter V,1, Van Nostrand Reinhold, 1945
Point Group:  Cs, Symmetry Number:   1
Rotational constants in cm-1:     0.174574     0.052349     0.040272

Vibrational entropy computed according to the QRRHO of S. Grimme
Chem.Eur.J. 2012 18 9955 using a reference frequency of 100.0 cm-1

-------
ENTROPY
-------

The entropy contributions are T*S = T*(S(el)+S(vib)+S(rot)+S(trans))
     S(el)   - electronic entropy
     S(vib)  - vibrational entropy
     S(rot)  - rotational entropy
     S(trans)- translational entropy
The entropies will be listed as multiplied by the temperature to get
units of energy

Electronic entropy                ...      0.00000000 Eh      0.00 kcal/mol
Vibrational entropy               ...      0.00499001 Eh      3.13 kcal/mol
Rotational entropy                ...      0.01324378 Eh      8.31 kcal/mol
Translational entropy             ...      0.01895542 Eh     11.89 kcal/mol
-----------------------------------------------------------------------
Final entropy term                ...      0.03718922 Eh     23.34 kcal/mol

In case the symmetry of your molecule has not been determined correctly
or in case you have a reason to use a different symmetry number we print
out the resulting rotational entropy values for sn=1,12:

 non-linear molecules -----------------------------------
|  sn= 1 | S(rot)=       0.01324378 Eh      8.31 kcal/mol|
|  sn= 2 | S(rot)=       0.01258933 Eh      7.90 kcal/mol|
|  sn= 3 | S(rot)=       0.01220649 Eh      7.66 kcal/mol|
|  sn= 4 | S(rot)=       0.01193487 Eh      7.49 kcal/mol|
|  sn= 5 | S(rot)=       0.01172418 Eh      7.36 kcal/mol|
|  sn= 6 | S(rot)=       0.01155204 Eh      7.25 kcal/mol|
|  sn= 7 | S(rot)=       0.01140649 Eh      7.16 kcal/mol|
|  sn= 8 | S(rot)=       0.01128041 Eh      7.08 kcal/mol|
|  sn= 9 | S(rot)=       0.01116920 Eh      7.01 kcal/mol|
|  sn=10 | S(rot)=       0.01106973 Eh      6.95 kcal/mol|
|  sn=11 | S(rot)=       0.01097974 Eh      6.89 kcal/mol|
|  sn=12 | S(rot)=       0.01089758 Eh      6.84 kcal/mol|
 linear molecules ---------------------------------------
|  Dinfh | S(rot)=       0.00835860 Eh      5.25 kcal/mol|
|  Cinfv | S(rot)=       0.00901306 Eh      5.66 kcal/mol|
 --------------------------------------------------------

-------------------
GIBBS FREE ENERGY
-------------------

The Gibbs free energy is G = H - T*S

Total enthalpy                    ...   -345.43612745 Eh
Total entropy correction          ...     -0.03718922 Eh    -23.34 kcal/mol
-----------------------------------------------------------------------
Final Gibbs free energy         ...   -345.47331667 Eh

                             ****ORCA TERMINATED NORMALLY****
TOTAL RUN TIME: 0 days 0 hours 25 minutes 54 seconds 658 msec
