                         Program Version 6.0.0  -   RELEASE  -
|  1> ! M062X DEF2-TZVP FREQ
|  2> * xyzfile 0 1 vacuum_censo.xyz
|  3>
|  4>                          ****END OF INPUT****

CARTESIAN COORDINATES (ANGSTROEM)
---------------------------------
  C     -2.245907    0.271228   -0.000022
  C     -1.343938    1.337244    0.000032
  C      0.020186    1.091655    0.000069
  C      0.489228   -0.226772    0.000071
  C     -0.416687   -1.290651    0.000028
  C     -1.784170   -1.042494   -0.000031
  C      1.938144   -0.506331    0.000109
  O      2.804815    0.342207   -0.000008
  H     -3.313556    0.467449   -0.000056
  H     -1.713033    2.357783    0.000044
  H      0.744223    1.899949    0.000101
  H     -0.042690   -2.311599    0.000034
  H     -2.489421   -1.867101   -0.000078
  H      2.199696   -1.590307    0.000269

 Total Charge           Charge          ....    0
 Multiplicity           Mult            ....    1
 Number of Electrons    NEL             ....   56
 Basis Dimension        Dim             ....  284

ORBITAL ENERGIES
----------------

  NO   OCC          E(Eh)            E(eV)
   0   2.0000     -19.629107      -534.1352
   1   2.0000     -10.633059      -289.3403
   2   2.0000     -10.566059      -287.5171
   3   2.0000     -10.564057      -287.4626
   4   2.0000     -10.561852      -287.4026
   5   2.0000     -10.560291      -287.3601
   6   2.0000     -10.560024      -287.3529
   7   2.0000     -10.558734      -287.3178
   8   2.0000      -1.172191       -31.8969
   9   2.0000      -0.980969       -26.6935
  10   2.0000      -0.876228       -23.8434
  11   2.0000      -0.862073       -23.4582
  12   2.0000      -0.747295       -20.3349
  13   2.0000      -0.708249       -19.2724
  14   2.0000      -0.661973       -18.0132
  15   2.0000      -0.608321       -16.5533
  16   2.0000      -0.566060       -15.4033
  17   2.0000      -0.542611       -14.7652
  18   2.0000      -0.516749       -14.0614
  19   2.0000      -0.508791       -13.8449
  20   2.0000      -0.504574       -13.7302
  21   2.0000      -0.488816       -13.3014
  22   2.0000      -0.442743       -12.0476
  23   2.0000      -0.434997       -11.8369
  24   2.0000      -0.418023       -11.3750
  25   2.0000      -0.338403        -9.2084
  26   2.0000      -0.328062        -8.9270
  27   2.0000      -0.324455        -8.8289
  28   0.0000      -0.038943        -1.0597
  29   0.0000       0.005401         0.1470
  30   0.0000       0.067842         1.8461
  31   0.0000       0.075714         2.0603
  32   0.0000       0.091646         2.4938

MULLIKEN ATOMIC CHARGES
-----------------------
   0 C :   -0.132001
   1 C :   -0.120866
   2 C :   -0.177877
   3 C :    0.097367
   4 C :   -0.179786
   5 C :   -0.146488
   6 C :    0.091371
   7 O :   -0.294803
   8 H :    0.150059
   9 H :    0.150623
  10 H :    0.172938
  11 H :    0.152425
  12 H :    0.147977
  13 H :    0.089061
Sum of atomic charges:    0.0000000

LOEWDIN ATOMIC CHARGES
----------------------
   0 C :   -0.121337
   1 C :   -0.132059
   2 C :   -0.075124
   3 C :   -0.164987
   4 C :   -0.097290
   5 C :   -0.136920
   6 C :   -0.251721
   7 O :    0.105599
   8 H :    0.147979
   9 H :    0.148285
  10 H :    0.158475
  11 H :    0.150911
  12 H :    0.147636
  13 H :    0.120555

  Mayer bond orders larger than 0.100000
B(  0-C ,  1-C ) :   1.4141 B(  0-C ,  5-C ) :   1.4490 B(  0-C ,  8-H ) :   0.9460
B(  1-C ,  2-C ) :   1.4626 B(  1-C ,  9-H ) :   0.9499 B(  2-C ,  3-C ) :   1.3770
B(  2-C , 10-H ) :   0.9186 B(  3-C ,  4-C ) :   1.3897 B(  3-C ,  6-C ) :   0.9257
B(  4-C ,  5-C ) :   1.4555 B(  4-C , 11-H ) :   0.9232 B(  5-C , 12-H ) :   0.9489
B(  6-C ,  7-O ) :   2.0576 B(  6-C , 13-H ) :   1.0017

FINAL SINGLE POINT ENERGY      -345.554473343970

DIPOLE MOMENT
-------------

Method             : SCF
Type of density    : Electron Density
Multiplicity       :   1
Irrep              :   0
Energy             :  -345.5544733439700167 Eh
Relativity type    :
Basis              : AO
                                X                 Y                 Z
Electronic contribution:      3.042605741       0.484425588      -0.000047813
Nuclear contribution   :     -4.291615740      -0.975576471       0.000120742
                        -----------------------------------------
Total Dipole Moment    :     -1.249009998      -0.491150883       0.000072929
                        -----------------------------------------
Magnitude (a.u.)       :      1.342108479
Magnitude (Debye)      :      3.411368649

VIBRATIONAL FREQUENCIES
-----------------------

Scaling factor for frequencies =  1.000000000  (already applied!)

     0:       0.00 cm**-1
     1:       0.00 cm**-1
     2:       0.00 cm**-1
     3:       0.00 cm**-1
     4:       0.00 cm**-1
     5:       0.00 cm**-1
     6:     161.43 cm**-1
     7:     242.46 cm**-1
     8:     268.87 cm**-1
     9:     421.46 cm**-1
    10:     446.46 cm**-1
    11:     473.25 cm**-1
    12:     630.56 cm**-1
    13:     667.23 cm**-1
    14:     717.83 cm**-1
    15:     781.07 cm**-1
    16:     850.63 cm**-1
    17:     889.02 cm**-1
    18:     965.67 cm**-1
    19:    1017.73 cm**-1
    20:    1019.11 cm**-1
    21:    1037.97 cm**-1
    22:    1053.17 cm**-1
    23:    1065.30 cm**-1
    24:    1110.48 cm**-1
    25:    1180.57 cm**-1
    26:    1195.77 cm**-1
    27:    1242.52 cm**-1
    28:    1316.79 cm**-1
    29:    1350.97 cm**-1
    30:    1431.28 cm**-1
    31:    1496.33 cm**-1
    32:    1535.17 cm**-1
    33:    1642.78 cm**-1
    34:    1666.87 cm**-1
    35:    1778.56 cm**-1
    36:    2880.17 cm**-1
    37:    3166.60 cm**-1
    38:    3179.15 cm**-1
    39:    3188.87 cm**-1
    40:    3197.22 cm**-1
    41:    3203.44 cm**-1

IR SPECTRUM
-----------

 Mode   freq       eps      Int      T**2         TX        TY        TZ
       cm**-1   L/(mol*cm) km/mol    a.u.
----------------------------------------------------------------------------
  6:    161.43   0.000377    1.91  0.000729  (-0.000033 -0.000028  0.027008)
  7:    242.46   0.001388    7.01  0.001786  (-0.034916  0.023814  0.000004)
  8:    268.87   0.002230   11.27  0.002588  (-0.000011 -0.000014 -0.050877)
  9:    421.46   0.000012    0.06  0.000009  (-0.000001  0.000018 -0.002953)
 10:    446.46   0.000042    0.21  0.000029  (-0.003994  0.003615 -0.000007)
 11:    473.25   0.001408    7.11  0.000928  ( 0.000035  0.000047  0.030468)
 12:    630.56   0.000073    0.37  0.000036  ( 0.004360 -0.004145  0.000003)
 13:    667.23   0.004923   24.88  0.002302  ( 0.044422 -0.018144  0.000001)
 14:    717.83   0.005270   26.63  0.002291  ( 0.000001 -0.000005 -0.047864)
 15:    781.07   0.009979   50.43  0.003987  (-0.000013 -0.000021  0.063144)
 16:    850.63   0.006730   34.01  0.002469  ( 0.045340 -0.020330 -0.000001)
 17:    889.02   0.000000    0.00  0.000000  ( 0.000005  0.000005 -0.000392)
 18:    965.67   0.000232    1.17  0.000075  ( 0.000010  0.000019 -0.008665)
 19:   1017.73   0.000041    0.21  0.000013  ( 0.000012 -0.000003 -0.003551)
 20:   1019.11   0.000089    0.45  0.000027  ( 0.004998 -0.001455  0.000004)
 21:   1037.97   0.000000    0.00  0.000000  ( 0.000004  0.000004  0.000169)
 22:   1053.17   0.000323    1.63  0.000096  ( 0.009775  0.000479 -0.000001)
 23:   1065.30   0.000223    1.13  0.000065  (-0.000009 -0.000029 -0.008077)
 24:   1110.48   0.000997    5.04  0.000280  ( 0.000838  0.016721  0.000000)
 25:   1180.57   0.000171    0.86  0.000045  ( 0.004588  0.004910  0.000001)
 26:   1195.77   0.003314   16.75  0.000865  ( 0.029171 -0.003720  0.000001)
 27:   1242.52   0.011553   58.38  0.002902  (-0.052743  0.010942 -0.000002)
 28:   1316.79   0.002997   15.15  0.000710  (-0.026294 -0.004347 -0.000001)
 29:   1350.97   0.002154   10.88  0.000498  ( 0.015552 -0.015990  0.000001)
 30:   1431.28   0.001580    7.99  0.000345  ( 0.009744 -0.015798  0.000002)
 31:   1496.33   0.002471   12.49  0.000515  ( 0.012349 -0.019051 -0.000001)
 32:   1535.17   0.000152    0.77  0.000031  (-0.003690  0.004160 -0.000000)
 33:   1642.78   0.002348   11.87  0.000446  ( 0.020925  0.002857  0.000000)
 34:   1666.87   0.005543   28.01  0.001038  ( 0.032179 -0.001468  0.000000)
 35:   1778.56   0.055526  280.61  0.009743  (-0.090963 -0.038318  0.000006)
 36:   2880.17   0.017641   89.15  0.001911  ( 0.021008 -0.038341  0.000005)
 37:   3166.60   0.000481    2.43  0.000047  (-0.004517  0.005198 -0.000000)
 38:   3179.15   0.000068    0.34  0.000007  (-0.002460  0.000769 -0.000000)
 39:   3188.87   0.000999    5.05  0.000098  ( 0.000287  0.009882 -0.000000)
 40:   3197.22   0.000679    3.43  0.000066  ( 0.005231  0.006238  0.000001)
 41:   3203.44   0.001202    6.07  0.000117  (-0.010208  0.003586 -0.000000)

--------------------------
THERMOCHEMISTRY AT 298.15K
--------------------------

Temperature         ...   298.15 K
Pressure            ...     1.00 atm
Total Mass          ...   106.12 AMU
Quasi RRHO          ...     True
Cut-Off Frequency   ...     1.00 cm^-1

Throughout the following assumptions are being made:
  (1) The electronic state is orbitally nondegenerate
  (2) There are no thermally accessible electronically excited states
  (3) Hindered rotations indicated by low frequency modes are not
      treated as such but are treated as vibrations and this may
      cause some error
  (4) All equations used are the standard statistical mechanics
      equations for an ideal gas
  (5) All vibrations are strictly harmonic

freq.     161.43  E(vib)   ...       0.39
freq.     242.46  E(vib)   ...       0.31
freq.     268.87  E(vib)   ...       0.29
freq.     421.46  E(vib)   ...       0.18
freq.     446.46  E(vib)   ...       0.17
freq.     473.25  E(vib)   ...       0.15
freq.     630.56  E(vib)   ...       0.09
freq.     667.23  E(vib)   ...       0.08
freq.     717.83  E(vib)   ...       0.07
freq.     781.07  E(vib)   ...       0.05
freq.     850.63  E(vib)   ...       0.04
freq.     889.02  E(vib)   ...       0.04
freq.     965.67  E(vib)   ...       0.03
freq.    1017.73  E(vib)   ...       0.02
freq.    1019.11  E(vib)   ...       0.02
freq.    1037.97  E(vib)   ...       0.02
freq.    1053.17  E(vib)   ...       0.02
freq.    1065.30  E(vib)   ...       0.02
freq.    1110.48  E(vib)   ...       0.02
freq.    1180.57  E(vib)   ...       0.01
freq.    1195.77  E(vib)   ...       0.01
freq.    1242.52  E(vib)   ...       0.01
freq.    1316.79  E(vib)   ...       0.01
freq.    1350.97  E(vib)   ...       0.01
freq.    1431.28  E(vib)   ...       0.00
freq.    1496.33  E(vib)   ...       0.00
freq.    1535.17  E(vib)   ...       0.00
freq.    1642.78  E(vib)   ...       0.00
freq.    1666.87  E(vib)   ...       0.00
freq.    1778.56  E(vib)   ...       0.00
freq.    2880.17  E(vib)   ...       0.00
freq.    3166.60  E(vib)   ...       0.00
freq.    3179.15  E(vib)   ...       0.00
freq.    3188.87  E(vib)   ...       0.00
freq.    3197.22  E(vib)   ...       0.00
freq.    3203.44  E(vib)   ...       0.00

------------
INNER ENERGY
------------

The inner energy is: U= E(el) + E(ZPE) + E(vib) + E(rot) + E(trans)
    E(el)   - is the total energy from the electronic structure calculation
              = E(kin-el) + E(nuc-el) + E(el-el) + E(nuc-nuc)
    E(ZPE)  - the the zero temperature vibrational energy from the frequency calculation
    E(vib)  - the the finite temperature correction to E(ZPE) due to population
              of excited vibrational states
    E(rot)  - is the rotational thermal energy
    E(trans)- is the translational thermal energy

Summary of contributions to the inner energy U:
Electronic energy                ...   -345.55447334 Eh
Zero point energy                ...      0.11042909 Eh      69.30 kcal/mol
Thermal vibrational correction   ...      0.00327981 Eh       2.06 kcal/mol
Thermal rotational correction    ...      0.00141627 Eh       0.89 kcal/mol
Thermal translational correction ...      0.00141627 Eh       0.89 kcal/mol
-----------------------------------------------------------------------
Total thermal energy                   -345.43793191 Eh

Summary of corrections to the electronic energy:
(perhaps to be used in another calculation)
Total thermal correction                  0.00611235 Eh       3.84 kcal/mol
Non-thermal (ZPE) correction              0.11042909 Eh      69.30 kcal/mol
-----------------------------------------------------------------------
Total correction                          0.11654144 Eh      73.13 kcal/mol

--------
ENTHALPY
--------

The enthalpy is H = U + kB*T
                kB is Boltzmann's constant
Total thermal energy              ...   -345.43793191 Eh
Thermal Enthalpy correction       ...      0.00094421 Eh       0.59 kcal/mol
-----------------------------------------------------------------------
Total Enthalpy                    ...   -345.43698770 Eh

Note: Only C1 symmetry has been detected, increase convergence thresholds
      if your molecule has a higher symmetry. Symmetry factor of 1.0 is
      used for the rotational entropy correction.

Note: Rotational entropy computed according to Herzberg
Infrared and Raman Spectra, Chapter V,1, Van Nostrand Reinhold, 1945
Point Group:  C1, Symmetry Number:   1
Rotational constants in cm-1:     0.175203     0.052325     0.040292

Vibrational entropy computed according to the QRRHO of S. Grimme
Chem.Eur.J. 2012 18 9955 using a reference frequency of 100.0 cm-1

-------
ENTROPY
-------

The entropy contributions are T*S = T*(S(el)+S(vib)+S(rot)+S(trans))
     S(el)   - electronic entropy
     S(vib)  - vibrational entropy
     S(rot)  - rotational entropy
     S(trans)- translational entropy
The entropies will be listed as multiplied by the temperature to get
units of energy

Electronic entropy                ...      0.00000000 Eh      0.00 kcal/mol
Vibrational entropy               ...      0.00508543 Eh      3.19 kcal/mol
Rotational entropy                ...      0.01324207 Eh      8.31 kcal/mol
Translational entropy             ...      0.01895542 Eh     11.89 kcal/mol
-----------------------------------------------------------------------
Final entropy term                ...      0.03728292 Eh     23.40 kcal/mol

In case the symmetry of your molecule has not been determined correctly
or in case you have a reason to use a different symmetry number we print
out the resulting rotational entropy values for sn=1,12:

 non-linear molecules -----------------------------------
|  sn= 1 | S(rot)=       0.01324207 Eh      8.31 kcal/mol|
|  sn= 2 | S(rot)=       0.01258761 Eh      7.90 kcal/mol|
|  sn= 3 | S(rot)=       0.01220478 Eh      7.66 kcal/mol|
|  sn= 4 | S(rot)=       0.01193316 Eh      7.49 kcal/mol|
|  sn= 5 | S(rot)=       0.01172247 Eh      7.36 kcal/mol|
|  sn= 6 | S(rot)=       0.01155033 Eh      7.25 kcal/mol|
|  sn= 7 | S(rot)=       0.01140478 Eh      7.16 kcal/mol|
|  sn= 8 | S(rot)=       0.01127870 Eh      7.08 kcal/mol|
|  sn= 9 | S(rot)=       0.01116749 Eh      7.01 kcal/mol|
|  sn=10 | S(rot)=       0.01106801 Eh      6.95 kcal/mol|
|  sn=11 | S(rot)=       0.01097802 Eh      6.89 kcal/mol|
|  sn=12 | S(rot)=       0.01089587 Eh      6.84 kcal/mol|
 linear molecules ---------------------------------------
|  Dinfh | S(rot)=       0.00835814 Eh      5.24 kcal/mol|
|  Cinfv | S(rot)=       0.00901260 Eh      5.66 kcal/mol|
 --------------------------------------------------------

-------------------
GIBBS FREE ENERGY
-------------------

The Gibbs free energy is G = H - T*S

                             ****ORCA TERMINATED NORMALLY****
TOTAL RUN TIME: 0 days 0 hours 25 minutes 57 seconds 266 msec
