                         Program Version 6.0.0  -   RELEASE  -
|  1> ! r2SCAN-3c DEF2-TZVP FREQ
|  2> * xyzfile 0 1 censo.xyz
|  3>
|  4>                          ****END OF INPUT****

CARTESIAN COORDINATES (ANGSTROEM)
---------------------------------
  N     -0.000039   -0.000023   -0.084931
  H     -0.692661    0.624866    0.315634
  H      0.887441    0.287338    0.315674
  H     -0.194825   -0.912356    0.315553

 Total Charge           Charge          ....    0
 Multiplicity           Mult            ....    1
 Number of Electrons    NEL             ....   10
 Basis Dimension        Dim             ....   49

ORBITAL ENERGIES
----------------

  NO   OCC          E(Eh)            E(eV)
   0   2.0000     -14.134801      -384.6275
   1   2.0000      -0.817980       -22.2584
   2   2.0000      -0.424848       -11.5607
   3   2.0000      -0.424823       -11.5600
   4   2.0000      -0.236221        -6.4279
   5   0.0000       0.042913         1.1677
   6   0.0000       0.132055         3.5934
   7   0.0000       0.132058         3.5935
   8   0.0000       0.316736         8.6188
   9   0.0000       0.316750         8.6192

MULLIKEN ATOMIC CHARGES
-----------------------
   0 N :   -0.670280
   1 H :    0.223424
   2 H :    0.223423
   3 H :    0.223433
Sum of atomic charges:   -0.0000000

LOEWDIN ATOMIC CHARGES
----------------------
   0 N :   -0.394268
   1 H :    0.131420
   2 H :    0.131424
   3 H :    0.131424

  Mayer bond orders larger than 0.100000
B(  0-N ,  1-H ) :   0.9480 B(  0-N ,  2-H ) :   0.9480 B(  0-N ,  3-H ) :   0.9480

Dispersion correction           -0.000179451
FINAL SINGLE POINT ENERGY       -56.542473326971

DIPOLE MOMENT
-------------

Method             : SCF
Type of density    : Electron Density
Multiplicity       :   1
Irrep              :   0
Energy             :   -56.5463084133354101 Eh
Relativity type    :
Basis              : AO
                                X                 Y                 Z
Electronic contribution:     -0.000040158       0.000019966      -0.228497189
Nuclear contribution   :      0.000055325      -0.000063260       0.926799105
                        -----------------------------------------
Total Dipole Moment    :      0.000015168      -0.000043294       0.698301917
                        -----------------------------------------
Magnitude (a.u.)       :      0.698301918
Magnitude (Debye)      :      1.774942419

VIBRATIONAL FREQUENCIES
-----------------------

Scaling factor for frequencies =  1.000000000  (already applied!)

     0:       0.00 cm**-1
     1:       0.00 cm**-1
     2:       0.00 cm**-1
     3:       0.00 cm**-1
     4:       0.00 cm**-1
     5:       0.00 cm**-1
     6:    1096.90 cm**-1
     7:    1680.26 cm**-1
     8:    1680.60 cm**-1
     9:    3447.90 cm**-1
    10:    3572.98 cm**-1
    11:    3573.26 cm**-1

IR SPECTRUM
-----------

 Mode   freq       eps      Int      T**2         TX        TY        TZ
       cm**-1   L/(mol*cm) km/mol    a.u.
----------------------------------------------------------------------------
  6:   1096.90   0.030407  153.67  0.008651  ( 0.000040 -0.000033  0.093010)
  7:   1680.26   0.003637   18.38  0.000675  (-0.019844 -0.016782 -0.000014)
  8:   1680.60   0.003762   19.01  0.000699  (-0.017205  0.020064  0.000008)
  9:   3447.90   0.000336    1.70  0.000030  (-0.000078  0.000030 -0.005512)
 10:   3572.98   0.000097    0.49  0.000008  ( 0.000788 -0.002806  0.000029)
 11:   3573.26   0.000099    0.50  0.000009  (-0.002826 -0.000789 -0.000029)

--------------------------
THERMOCHEMISTRY AT 298.15K
--------------------------

Temperature         ...   298.15 K
Pressure            ...     1.00 atm
Total Mass          ...    17.03 AMU
Quasi RRHO          ...     True
Cut-Off Frequency   ...     1.00 cm^-1

Throughout the following assumptions are being made:
  (1) The electronic state is orbitally nondegenerate
  (2) There are no thermally accessible electronically excited states
  (3) Hindered rotations indicated by low frequency modes are not
      treated as such but are treated as vibrations and this may
      cause some error
  (4) All equations used are the standard statistical mechanics
      equations for an ideal gas
  (5) All vibrations are strictly harmonic

freq.    1096.90  E(vib)   ...       0.02
freq.    1680.26  E(vib)   ...       0.00
freq.    1680.60  E(vib)   ...       0.00
freq.    3447.90  E(vib)   ...       0.00
freq.    3572.98  E(vib)   ...       0.00
freq.    3573.26  E(vib)   ...       0.00

------------
INNER ENERGY
------------

The inner energy is: U= E(el) + E(ZPE) + E(vib) + E(rot) + E(trans)
    E(el)   - is the total energy from the electronic structure calculation
              = E(kin-el) + E(nuc-el) + E(el-el) + E(nuc-nuc)
    E(ZPE)  - the the zero temperature vibrational energy from the frequency calculation
    E(vib)  - the the finite temperature correction to E(ZPE) due to population
              of excited vibrational states
    E(rot)  - is the rotational thermal energy
    E(trans)- is the translational thermal energy

Summary of contributions to the inner energy U:
Electronic energy                ...    -56.54247333 Eh
Zero point energy                ...      0.03429074 Eh      21.52 kcal/mol
Thermal vibrational correction   ...      0.00002986 Eh       0.02 kcal/mol
Thermal rotational correction    ...      0.00141627 Eh       0.89 kcal/mol
Thermal translational correction ...      0.00141627 Eh       0.89 kcal/mol
-----------------------------------------------------------------------
Total thermal energy                    -56.50532019 Eh

Summary of corrections to the electronic energy:
(perhaps to be used in another calculation)
Total thermal correction                  0.00286240 Eh       1.80 kcal/mol
Non-thermal (ZPE) correction              0.03429074 Eh      21.52 kcal/mol
-----------------------------------------------------------------------
Total correction                          0.03715314 Eh      23.31 kcal/mol

--------
ENTHALPY
--------

The enthalpy is H = U + kB*T
                kB is Boltzmann's constant
Total thermal energy              ...    -56.50532019 Eh
Thermal Enthalpy correction       ...      0.00094421 Eh       0.59 kcal/mol
-----------------------------------------------------------------------
Total Enthalpy                    ...    -56.50437598 Eh

Note: Rotational entropy computed according to Herzberg
Infrared and Raman Spectra, Chapter V,1, Van Nostrand Reinhold, 1945
Point Group:  Cs, Symmetry Number:   1
Rotational constants in cm-1:     9.831111     9.829989     6.405882

Vibrational entropy computed according to the QRRHO of S. Grimme
Chem.Eur.J. 2012 18 9955 using a reference frequency of 100.0 cm-1

-------
ENTROPY
-------

The entropy contributions are T*S = T*(S(el)+S(vib)+S(rot)+S(trans))
     S(el)   - electronic entropy
     S(vib)  - vibrational entropy
     S(rot)  - rotational entropy
     S(trans)- translational entropy
The entropies will be listed as multiplied by the temperature to get
units of energy

Electronic entropy                ...      0.00000000 Eh      0.00 kcal/mol
Vibrational entropy               ...      0.00003519 Eh      0.02 kcal/mol
Rotational entropy                ...      0.00647612 Eh      4.06 kcal/mol
Translational entropy             ...      0.01636425 Eh     10.27 kcal/mol
-----------------------------------------------------------------------
Final entropy term                ...      0.02287556 Eh     14.35 kcal/mol

In case the symmetry of your molecule has not been determined correctly
or in case you have a reason to use a different symmetry number we print
out the resulting rotational entropy values for sn=1,12:

 non-linear molecules -----------------------------------
|  sn= 1 | S(rot)=       0.00647612 Eh      4.06 kcal/mol|
|  sn= 2 | S(rot)=       0.00582166 Eh      3.65 kcal/mol|
|  sn= 3 | S(rot)=       0.00543883 Eh      3.41 kcal/mol|
|  sn= 4 | S(rot)=       0.00516720 Eh      3.24 kcal/mol|
|  sn= 5 | S(rot)=       0.00495651 Eh      3.11 kcal/mol|
|  sn= 6 | S(rot)=       0.00478437 Eh      3.00 kcal/mol|
|  sn= 7 | S(rot)=       0.00463882 Eh      2.91 kcal/mol|
|  sn= 8 | S(rot)=       0.00451275 Eh      2.83 kcal/mol|
|  sn= 9 | S(rot)=       0.00440154 Eh      2.76 kcal/mol|
|  sn=10 | S(rot)=       0.00430206 Eh      2.70 kcal/mol|
|  sn=11 | S(rot)=       0.00421207 Eh      2.64 kcal/mol|
|  sn=12 | S(rot)=       0.00412991 Eh      2.59 kcal/mol|
 linear molecules ---------------------------------------
|  Dinfh | S(rot)=       0.00357226 Eh      2.24 kcal/mol|
|  Cinfv | S(rot)=       0.00422671 Eh      2.65 kcal/mol|
 --------------------------------------------------------

-------------------
GIBBS FREE ENERGY
-------------------

The Gibbs free energy is G = H - T*S

Total enthalpy                    ...    -56.50437598 Eh
Total entropy correction          ...     -0.02287556 Eh    -14.35 kcal/mol
-----------------------------------------------------------------------
Final Gibbs free energy         ...    -56.52725154 Eh

For completeness - the Gibbs free energy minus the electronic energy
G-E(el)                           ...      0.01522179 Eh      9.55 kcal/mol

                             ****ORCA TERMINATED NORMALLY****
TOTAL RUN TIME: 0 days 0 hours 0 minutes 15 seconds 174 msec
