                         Program Version 6.0.0  -   RELEASE  -
|  1> ! r2SCAN-3c DEF2-TZVP FREQ
|  2> * xyzfile 0 1 vacuum_censo.xyz
|  3>
|  4>                          ****END OF INPUT****

CARTESIAN COORDINATES (ANGSTROEM)
---------------------------------
  N      0.000018   -0.000020    0.084203
  H     -0.915872    0.188146   -0.308088
  H      0.295006   -0.887297   -0.308021
  H      0.620912    0.699084   -0.308066

 Total Charge           Charge          ....    0
 Multiplicity           Mult            ....    1
 Number of Electrons    NEL             ....   10
 Basis Dimension        Dim             ....   49

ORBITAL ENERGIES
----------------

  NO   OCC          E(Eh)            E(eV)
   0   2.0000     -14.134052      -384.6071
   1   2.0000      -0.817524       -22.2460
   2   2.0000      -0.425815       -11.5870
   3   2.0000      -0.425806       -11.5868
   4   2.0000      -0.234846        -6.3905
   5   0.0000       0.043439         1.1820
   6   0.0000       0.132612         3.6086
   7   0.0000       0.132617         3.6087
   8   0.0000       0.317051         8.6274
   9   0.0000       0.317055         8.6275

MULLIKEN ATOMIC CHARGES
-----------------------
   0 N :   -0.672802
   1 H :    0.224271
   2 H :    0.224271
   3 H :    0.224260
Sum of atomic charges:   -0.0000000

LOEWDIN ATOMIC CHARGES
----------------------
   0 N :   -0.393135
   1 H :    0.131049
   2 H :    0.131042
   3 H :    0.131043

  Mayer bond orders larger than 0.100000
B(  0-N ,  1-H ) :   0.9477 B(  0-N ,  2-H ) :   0.9477 B(  0-N ,  3-H ) :   0.9477

Dispersion correction           -0.000179327
FINAL SINGLE POINT ENERGY       -56.542530353983

DIPOLE MOMENT
-------------

Method             : SCF
Type of density    : Electron Density
Multiplicity       :   1
Irrep              :   0
Energy             :   -56.5463492069903353 Eh
Relativity type    :
Basis              : AO
                                X                 Y                 Z
Electronic contribution:      0.000016344      -0.000014623       0.219547414
Nuclear contribution   :     -0.000005084      -0.000004527      -0.907616477
                        -----------------------------------------
Total Dipole Moment    :      0.000011260      -0.000019150      -0.688069063
                        -----------------------------------------
Magnitude (a.u.)       :      0.688069064
Magnitude (Debye)      :      1.748932570

VIBRATIONAL FREQUENCIES
-----------------------

Scaling factor for frequencies =  1.000000000  (already applied!)

     0:       0.00 cm**-1
     1:       0.00 cm**-1
     2:       0.00 cm**-1
     3:       0.00 cm**-1
     4:       0.00 cm**-1
     5:       0.00 cm**-1
     6:    1070.54 cm**-1
     7:    1677.74 cm**-1
     8:    1678.02 cm**-1
     9:    3459.65 cm**-1
    10:    3588.53 cm**-1
    11:    3589.04 cm**-1

IR SPECTRUM
-----------

 Mode   freq       eps      Int      T**2         TX        TY        TZ
       cm**-1   L/(mol*cm) km/mol    a.u.
----------------------------------------------------------------------------
  6:   1070.54   0.031700  160.20  0.009240  (-0.000024 -0.000043 -0.096127)
  7:   1677.74   0.003770   19.05  0.000701  ( 0.017857 -0.019552 -0.000015)
  8:   1678.02   0.003899   19.71  0.000725  ( 0.019776  0.018277 -0.000004)
  9:   3459.65   0.000289    1.46  0.000026  ( 0.000020  0.000079  0.005103)
 10:   3588.53   0.000157    0.80  0.000014  ( 0.003594  0.000878  0.000027)
 11:   3589.04   0.000160    0.81  0.000014  ( 0.000886 -0.003625 -0.000028)

--------------------------
THERMOCHEMISTRY AT 298.15K
--------------------------

Temperature         ...   298.15 K
Pressure            ...     1.00 atm
Total Mass          ...    17.03 AMU
Quasi RRHO          ...     True
Cut-Off Frequency   ...     1.00 cm^-1

Throughout the following assumptions are being made:
  (1) The electronic state is orbitally nondegenerate
  (2) There are no thermally accessible electronically excited states
  (3) Hindered rotations indicated by low frequency modes are not
      treated as such but are treated as vibrations and this may
      cause some error
  (4) All equations used are the standard statistical mechanics
      equations for an ideal gas
  (5) All vibrations are strictly harmonic

freq.    1070.54  E(vib)   ...       0.02
freq.    1677.74  E(vib)   ...       0.00
freq.    1678.02  E(vib)   ...       0.00
freq.    3459.65  E(vib)   ...       0.00
freq.    3588.53  E(vib)   ...       0.00
freq.    3589.04  E(vib)   ...       0.00

------------
INNER ENERGY
------------

The inner energy is: U= E(el) + E(ZPE) + E(vib) + E(rot) + E(trans)
    E(el)   - is the total energy from the electronic structure calculation
              = E(kin-el) + E(nuc-el) + E(el-el) + E(nuc-nuc)
    E(ZPE)  - the the zero temperature vibrational energy from the frequency calculation
    E(vib)  - the the finite temperature correction to E(ZPE) due to population
              of excited vibrational states
    E(rot)  - is the rotational thermal energy
    E(trans)- is the translational thermal energy

Summary of contributions to the inner energy U:
Electronic energy                ...    -56.54253035 Eh
Zero point energy                ...      0.03431725 Eh      21.53 kcal/mol
Thermal vibrational correction   ...      0.00003266 Eh       0.02 kcal/mol
Thermal rotational correction    ...      0.00141627 Eh       0.89 kcal/mol
Thermal translational correction ...      0.00141627 Eh       0.89 kcal/mol
-----------------------------------------------------------------------
Total thermal energy                    -56.50534790 Eh

Summary of corrections to the electronic energy:
(perhaps to be used in another calculation)
Total thermal correction                  0.00286520 Eh       1.80 kcal/mol
Non-thermal (ZPE) correction              0.03431725 Eh      21.53 kcal/mol
-----------------------------------------------------------------------
Total correction                          0.03718245 Eh      23.33 kcal/mol

--------
ENTHALPY
--------

The enthalpy is H = U + kB*T
                kB is Boltzmann's constant
Total thermal energy              ...    -56.50534790 Eh
Thermal Enthalpy correction       ...      0.00094421 Eh       0.59 kcal/mol
-----------------------------------------------------------------------
Total Enthalpy                    ...    -56.50440369 Eh

Note: Rotational entropy computed according to Herzberg
Infrared and Raman Spectra, Chapter V,1, Van Nostrand Reinhold, 1945
Point Group:  C3v, Symmetry Number:   3
Rotational constants in cm-1:     9.889780     9.889580     6.376350

Vibrational entropy computed according to the QRRHO of S. Grimme
Chem.Eur.J. 2012 18 9955 using a reference frequency of 100.0 cm-1

-------
ENTROPY
-------

The entropy contributions are T*S = T*(S(el)+S(vib)+S(rot)+S(trans))
     S(el)   - electronic entropy
     S(vib)  - vibrational entropy
     S(rot)  - rotational entropy
     S(trans)- translational entropy
The entropies will be listed as multiplied by the temperature to get
units of energy

Electronic entropy                ...      0.00000000 Eh      0.00 kcal/mol
Vibrational entropy               ...      0.00003865 Eh      0.02 kcal/mol
Rotational entropy                ...      0.00543535 Eh      3.41 kcal/mol
Translational entropy             ...      0.01636425 Eh     10.27 kcal/mol
-----------------------------------------------------------------------
Final entropy term                ...      0.02183825 Eh     13.70 kcal/mol

In case the symmetry of your molecule has not been determined correctly
or in case you have a reason to use a different symmetry number we print
out the resulting rotational entropy values for sn=1,12:

 non-linear molecules -----------------------------------
|  sn= 1 | S(rot)=       0.00647263 Eh      4.06 kcal/mol|
|  sn= 2 | S(rot)=       0.00581818 Eh      3.65 kcal/mol|
|  sn= 3 | S(rot)=       0.00543535 Eh      3.41 kcal/mol|
|  sn= 4 | S(rot)=       0.00516372 Eh      3.24 kcal/mol|
|  sn= 5 | S(rot)=       0.00495303 Eh      3.11 kcal/mol|
|  sn= 6 | S(rot)=       0.00478089 Eh      3.00 kcal/mol|
|  sn= 7 | S(rot)=       0.00463534 Eh      2.91 kcal/mol|
|  sn= 8 | S(rot)=       0.00450927 Eh      2.83 kcal/mol|
|  sn= 9 | S(rot)=       0.00439806 Eh      2.76 kcal/mol|
|  sn=10 | S(rot)=       0.00429858 Eh      2.70 kcal/mol|
|  sn=11 | S(rot)=       0.00420859 Eh      2.64 kcal/mol|
|  sn=12 | S(rot)=       0.00412643 Eh      2.59 kcal/mol|
 linear molecules ---------------------------------------
|  Dinfh | S(rot)=       0.00357662 Eh      2.24 kcal/mol|
|  Cinfv | S(rot)=       0.00423108 Eh      2.66 kcal/mol|
 --------------------------------------------------------

-------------------
GIBBS FREE ENERGY
-------------------

The Gibbs free energy is G = H - T*S

Total enthalpy                    ...    -56.50440369 Eh
Total entropy correction          ...     -0.02183825 Eh    -13.70 kcal/mol
-----------------------------------------------------------------------
Final Gibbs free energy         ...    -56.52624194 Eh

For completeness - the Gibbs free energy minus the electronic energy
G-E(el)                           ...      0.01628841 Eh     10.22 kcal/mol

                             ****ORCA TERMINATED NORMALLY****
TOTAL RUN TIME: 0 days 0 hours 0 minutes 16 seconds 475 msec
