                         Program Version 6.0.0  -   RELEASE  -
|  1> ! r2SCAN-3c DEF2-TZVP FREQ
|  2> * xyzfile 0 1 censo.xyz
|  3>
|  4>                          ****END OF INPUT****

CARTESIAN COORDINATES (ANGSTROEM)
---------------------------------
  C      1.768297    0.097333   -1.521359
  C      3.146702    0.203718   -1.622169
  C      3.919373    0.364851   -0.475625
  C      3.302212    0.425962    0.774406
  C      1.919814    0.325910    0.874964
  C      1.144269    0.155596   -0.272143
  C     -0.329661    0.105136   -0.141981
  C     -0.975051    1.161990    0.499279
  C     -2.352601    1.179520    0.640505
  C     -3.133385    0.134512    0.141501
  C     -2.499011   -0.942171   -0.492021
  C     -1.105828   -0.955079   -0.626943
  Cl    -0.336107   -2.339659   -1.347958
  Cl    -3.447244   -2.261671   -1.090482
  Cl    -4.854877    0.164041    0.308045
  Cl    -3.094515    2.535861    1.439565
  Cl     4.239229    0.625638    2.233120
  Cl     5.651417    0.495700   -0.631393
  H      1.177764   -0.008489   -2.424163
  H      3.628930    0.168966   -2.592494
  H      1.448726    0.371496    1.850613
  H     -0.386656    1.990293    0.876746

 Total Charge           Charge          ....    0
 Multiplicity           Mult            ....    1
 Number of Electrons    NEL             ....  178
 Basis Dimension        Dim             ....  618

ORBITAL ENERGIES
----------------

  NO   OCC          E(Eh)            E(eV)
   0   2.0000    -101.217431     -2754.2663
   1   2.0000    -101.217222     -2754.2606
   2   2.0000    -101.215357     -2754.2099
   3   2.0000    -101.215249     -2754.2069
   4   2.0000    -101.208678     -2754.0281
   5   2.0000    -101.208607     -2754.0262
   6   2.0000     -10.141302      -275.9589
   7   2.0000     -10.139972      -275.9227
   8   2.0000     -10.136547      -275.8295
   9   2.0000     -10.135169      -275.7920
  10   2.0000     -10.126516      -275.5565
  11   2.0000     -10.125765      -275.5361
  12   2.0000     -10.094879      -274.6956
  13   2.0000     -10.083028      -274.3732
  14   2.0000     -10.080740      -274.3109
  15   2.0000     -10.074241      -274.1340
  16   2.0000     -10.071954      -274.0718
  17   2.0000     -10.068246      -273.9709
  18   2.0000      -9.393146      -255.6005
  19   2.0000      -9.392969      -255.5957
  20   2.0000      -9.391217      -255.5480
  21   2.0000      -9.391002      -255.5422
  22   2.0000      -9.384335      -255.3607
  23   2.0000      -9.384240      -255.3581
  24   2.0000      -7.138551      -194.2498
  25   2.0000      -7.138284      -194.2426
  26   2.0000      -7.136519      -194.1945
  27   2.0000      -7.136211      -194.1862
  28   2.0000      -7.129502      -194.0036
  29   2.0000      -7.129451      -194.0022
  30   2.0000      -7.128180      -193.9676
  31   2.0000      -7.128042      -193.9639
  32   2.0000      -7.127061      -193.9372
  33   2.0000      -7.126946      -193.9341
  34   2.0000      -7.126280      -193.9159
  35   2.0000      -7.125968      -193.9074
  36   2.0000      -7.125215      -193.8870
  37   2.0000      -7.125207      -193.8867
  38   2.0000      -7.119327      -193.7267
  39   2.0000      -7.119257      -193.7248
  40   2.0000      -7.118594      -193.7068
  41   2.0000      -7.118424      -193.7022
  42   2.0000      -0.922316       -25.0975
  43   2.0000      -0.895278       -24.3618
  44   2.0000      -0.875519       -23.8241
  45   2.0000      -0.858562       -23.3627
  46   2.0000      -0.833074       -22.6691
  47   2.0000      -0.829906       -22.5829
  48   2.0000      -0.823605       -22.4114
  49   2.0000      -0.804910       -21.9027
  50   2.0000      -0.753406       -20.5012
  51   2.0000      -0.730879       -19.8882
  52   2.0000      -0.716169       -19.4879
  53   2.0000      -0.699742       -19.0410
  54   2.0000      -0.625182       -17.0121
  55   2.0000      -0.609823       -16.5941
  56   2.0000      -0.600437       -16.3387
  57   2.0000      -0.571922       -15.5628
  58   2.0000      -0.517575       -14.0839
  59   2.0000      -0.510224       -13.8839
  60   2.0000      -0.492305       -13.3963
  61   2.0000      -0.476653       -12.9704
  62   2.0000      -0.466939       -12.7060
  63   2.0000      -0.451447       -12.2845
  64   2.0000      -0.439775       -11.9669
  65   2.0000      -0.433916       -11.8075
  66   2.0000      -0.432768       -11.7762
  67   2.0000      -0.425378       -11.5751
  68   2.0000      -0.408981       -11.1289
  69   2.0000      -0.404328       -11.0023
  70   2.0000      -0.391624       -10.6566
  71   2.0000      -0.375453       -10.2166
  72   2.0000      -0.368513       -10.0277
  73   2.0000      -0.364767        -9.9258
  74   2.0000      -0.352570        -9.5939
  75   2.0000      -0.334788        -9.1101
  76   2.0000      -0.332168        -9.0388
  77   2.0000      -0.326637        -8.8882
  78   2.0000      -0.324102        -8.8193
  79   2.0000      -0.317967        -8.6523
  80   2.0000      -0.311213        -8.4685
  81   2.0000      -0.306902        -8.3512
  82   2.0000      -0.303381        -8.2554
  83   2.0000      -0.290938        -7.9168
  84   2.0000      -0.285768        -7.7761
  85   2.0000      -0.263294        -7.1646
  86   2.0000      -0.254597        -6.9279
  87   2.0000      -0.246629        -6.7111
  88   2.0000      -0.235136        -6.3984
  89   0.0000      -0.090646        -2.4666
  90   0.0000      -0.079820        -2.1720
  91   0.0000      -0.069601        -1.8939
  92   0.0000      -0.063595        -1.7305
  93   0.0000      -0.053461        -1.4547

MULLIKEN ATOMIC CHARGES
-----------------------
   0 C :   -0.211940
   1 C :   -0.155335
   2 C :    0.089526
   3 C :    0.143983
   4 C :   -0.321991
   5 C :    0.248620
   6 C :    0.172391
   7 C :   -0.302386
   8 C :    0.123850
   9 C :    0.026403
  10 C :    0.039809
  11 C :   -0.051979
  12 Cl:   -0.054035
  13 Cl:   -0.040576
  14 Cl:   -0.039621
  15 Cl:   -0.065953
  16 Cl:   -0.076659
  17 Cl:   -0.077184
  18 H :    0.134339
  19 H :    0.131374
  20 H :    0.140626
  21 H :    0.146739
Sum of atomic charges:   -0.0000000

LOEWDIN ATOMIC CHARGES
----------------------
   0 C :   -0.096789
   1 C :   -0.129870
   2 C :   -0.426891
   3 C :   -0.425562
   4 C :   -0.096845
   5 C :   -0.113519
   6 C :   -0.108175
   7 C :   -0.098111
   8 C :   -0.432757
   9 C :   -0.449159
  10 C :   -0.443398
  11 C :   -0.393457
  12 Cl:    0.448033
  13 Cl:    0.444597
  14 Cl:    0.445761
  15 Cl:    0.423395
  16 Cl:    0.410178
  17 Cl:    0.411223
  18 H :    0.154642
  19 H :    0.154184
  20 H :    0.159350
  21 H :    0.163170

  Mayer bond orders larger than 0.100000
B(  0-C ,  1-C ) :   1.4308 B(  0-C ,  5-C ) :   1.2868 B(  0-C , 18-H ) :   0.9692
B(  1-C ,  2-C ) :   1.3369 B(  1-C , 19-H ) :   0.9629 B(  2-C ,  3-C ) :   1.2605
B(  2-C , 17-Cl) :   1.0694 B(  3-C ,  4-C ) :   1.3740 B(  3-C , 16-Cl) :   1.0672
B(  4-C ,  5-C ) :   1.3299 B(  4-C , 20-H ) :   0.9711 B(  5-C ,  6-C ) :   0.7899
B(  6-C ,  7-C ) :   1.3275 B(  6-C , 11-C ) :   1.2475 B(  7-C ,  8-C ) :   1.3762
B(  7-C , 21-H ) :   0.9719 B(  8-C ,  9-C ) :   1.2705 B(  8-C , 15-Cl) :   1.0807
B(  9-C , 10-C ) :   1.2767 B(  9-C , 14-Cl) :   1.1925 B( 10-C , 11-C ) :   1.2984
B( 10-C , 13-Cl) :   1.1926 B( 11-C , 12-Cl) :   1.2090

Dispersion correction           -0.014187596
FINAL SINGLE POINT ENERGY     -3220.717165744655

DIPOLE MOMENT
-------------

Method             : SCF
Type of density    : Electron Density
Multiplicity       :   1
Irrep              :   0
Energy             : -3220.7147567637580323 Eh
Relativity type    :
Basis              : AO
                                X                 Y                 Z
Electronic contribution:     -7.999859699      -3.257394832       2.963805537
Nuclear contribution   :      7.958419528       3.437182963      -3.331018710
                        -----------------------------------------
Total Dipole Moment    :     -0.041440171       0.179788130      -0.367213174
                        -----------------------------------------
Magnitude (a.u.)       :      0.410958118
Magnitude (Debye)      :      1.044572522

VIBRATIONAL FREQUENCIES
-----------------------

Scaling factor for frequencies =  1.000000000  (already applied!)

     0:       0.00 cm**-1
     1:       0.00 cm**-1
     2:       0.00 cm**-1
     3:       0.00 cm**-1
     4:       0.00 cm**-1
     5:       0.00 cm**-1
     6:      36.71 cm**-1
     7:      44.00 cm**-1
     8:      50.99 cm**-1
     9:      86.82 cm**-1
    10:      97.13 cm**-1
    11:     139.45 cm**-1
    12:     166.01 cm**-1
    13:     196.23 cm**-1
    14:     205.17 cm**-1
    15:     210.53 cm**-1
    16:     221.56 cm**-1
    17:     230.93 cm**-1
    18:     241.63 cm**-1
    19:     275.52 cm**-1
    20:     317.70 cm**-1
    21:     331.65 cm**-1
    22:     352.30 cm**-1
    23:     356.17 cm**-1
    24:     407.33 cm**-1
    25:     451.33 cm**-1
    26:     455.91 cm**-1
    27:     487.01 cm**-1
    28:     532.76 cm**-1
    29:     553.75 cm**-1
    30:     561.90 cm**-1
    31:     636.24 cm**-1
    32:     640.40 cm**-1
    33:     649.45 cm**-1
    34:     691.29 cm**-1
    35:     729.00 cm**-1
    36:     741.73 cm**-1
    37:     766.69 cm**-1
    38:     819.88 cm**-1
    39:     837.12 cm**-1
    40:     884.41 cm**-1
    41:     893.23 cm**-1
    42:     906.03 cm**-1
    43:     961.76 cm**-1
    44:    1042.45 cm**-1
    45:    1065.64 cm**-1
    46:    1122.03 cm**-1
    47:    1130.14 cm**-1
    48:    1170.33 cm**-1
    49:    1188.30 cm**-1
    50:    1265.74 cm**-1
    51:    1288.59 cm**-1
    52:    1300.17 cm**-1
    53:    1322.50 cm**-1
    54:    1361.54 cm**-1
    55:    1401.89 cm**-1
    56:    1426.56 cm**-1
    57:    1493.78 cm**-1
    58:    1541.35 cm**-1
    59:    1583.29 cm**-1
    60:    1589.58 cm**-1
    61:    1615.84 cm**-1
    62:    3183.51 cm**-1
    63:    3188.57 cm**-1
    64:    3195.62 cm**-1
    65:    3197.12 cm**-1

IR SPECTRUM
-----------

 Mode   freq       eps      Int      T**2         TX        TY        TZ
       cm**-1   L/(mol*cm) km/mol    a.u.
----------------------------------------------------------------------------
  6:     36.71   0.000041    0.21  0.000348  ( 0.004960 -0.017980 -0.000043)
  7:     44.00   0.000020    0.10  0.000141  (-0.003421 -0.005095  0.010149)
  8:     50.99   0.000019    0.09  0.000115  (-0.005713  0.006300  0.006529)
  9:     86.82   0.000000    0.00  0.000001  (-0.000907 -0.000277  0.000624)
 10:     97.13   0.000059    0.30  0.000188  ( 0.005627  0.004669 -0.011618)
 11:    139.45   0.000047    0.24  0.000105  (-0.001062  0.010166  0.000833)
 12:    166.01   0.000016    0.08  0.000030  (-0.002622 -0.004779  0.000648)
 13:    196.23   0.000020    0.10  0.000032  ( 0.004052 -0.003607 -0.001523)
 14:    205.17   0.000010    0.05  0.000015  (-0.003109  0.001435 -0.001918)
 15:    210.53   0.000012    0.06  0.000018  ( 0.003978 -0.000916 -0.001260)
 16:    221.56   0.000030    0.15  0.000042  (-0.001714  0.004186  0.004647)
 17:    230.93   0.000008    0.04  0.000011  (-0.002966  0.000737  0.001433)
 18:    241.63   0.000004    0.02  0.000005  ( 0.001004  0.000685  0.001824)
 19:    275.52   0.000096    0.49  0.000109  ( 0.000227  0.005709 -0.008750)
 20:    317.70   0.000061    0.31  0.000060  ( 0.001747  0.007429  0.001175)
 21:    331.65   0.000009    0.04  0.000008  (-0.000269  0.002089  0.001933)
 22:    352.30   0.000143    0.72  0.000126  (-0.010253  0.002740  0.003716)
 23:    356.17   0.000172    0.87  0.000150  ( 0.005773 -0.008488 -0.006713)
 24:    407.33   0.000536    2.71  0.000411  (-0.013318  0.003404  0.014894)
 25:    451.33   0.000804    4.06  0.000556  ( 0.009111  0.020904 -0.006006)
 26:    455.91   0.000239    1.21  0.000164  (-0.005468  0.003683 -0.010971)
 27:    487.01   0.007853   39.69  0.005032  ( 0.068845  0.012381  0.011791)
 28:    532.76   0.000390    1.97  0.000229  (-0.009467  0.003026  0.011391)
 29:    553.75   0.001178    5.95  0.000664  ( 0.006084 -0.021091 -0.013492)
 30:    561.90   0.000336    1.70  0.000187  (-0.001965  0.013484 -0.000919)
 31:    636.24   0.001945    9.83  0.000954  (-0.009152  0.027840  0.009753)
 32:    640.40   0.003846   19.43  0.001874  (-0.025737  0.030678  0.016444)
 33:    649.45   0.001168    5.90  0.000561  (-0.011985  0.020410 -0.001075)
 34:    691.29   0.004355   22.01  0.001966  (-0.042156  0.008712 -0.010623)
 35:    729.00   0.000704    3.56  0.000302  ( 0.006797 -0.015583  0.003532)
 36:    741.73   0.000765    3.87  0.000322  (-0.015449  0.007557  0.005105)
 37:    766.69   0.009138   46.18  0.003720  ( 0.009791 -0.036525 -0.047850)
 38:    819.88   0.009280   46.90  0.003532  (-0.025417 -0.053645 -0.002905)
 39:    837.12   0.001588    8.03  0.000592  ( 0.009587 -0.018210  0.012985)
 40:    884.41   0.003736   18.88  0.001318  (-0.008149  0.021467 -0.028123)
 41:    893.23   0.001904    9.62  0.000665  ( 0.007987  0.007544  0.023334)
 42:    906.03   0.000400    2.02  0.000138  (-0.006864  0.008604 -0.004071)
 43:    961.76   0.000142    0.72  0.000046  ( 0.003790 -0.005093 -0.002379)
 44:   1042.45   0.008025   40.55  0.002402  ( 0.040023  0.004217 -0.027976)
 45:   1065.64   0.002402   12.14  0.000703  (-0.010308  0.024299  0.002572)
 46:   1122.03   0.004542   22.95  0.001263  (-0.019504 -0.021470 -0.020538)
 47:   1130.14   0.016407   82.91  0.004530  ( 0.064199  0.007823  0.018642)
 48:   1170.33   0.000183    0.93  0.000049  ( 0.005887  0.003768 -0.000062)
 49:   1188.30   0.009255   46.77  0.002430  (-0.041879  0.020869  0.015526)
 50:   1265.74   0.000104    0.53  0.000026  ( 0.002044 -0.004630  0.000069)
 51:   1288.59   0.004379   22.13  0.001060  ( 0.025999  0.019506 -0.002012)
 52:   1300.17   0.002467   12.47  0.000592  (-0.006011 -0.018723 -0.014330)
 53:   1322.50   0.001452    7.34  0.000343  ( 0.007647  0.011063  0.012717)
 54:   1361.54   0.015579   78.73  0.003571  (-0.000971 -0.048892 -0.034343)
 55:   1401.89   0.007137   36.07  0.001589  (-0.033388 -0.003035  0.021561)
 56:   1426.56   0.023551  119.02  0.005152  ( 0.067839 -0.023445  0.000144)
 57:   1493.78   0.011121   56.20  0.002323  (-0.046347 -0.007446 -0.010946)
 58:   1541.35   0.005599   28.30  0.001134  (-0.006798 -0.025689 -0.020675)
 59:   1583.29   0.002171   10.97  0.000428  ( 0.006559 -0.000561  0.019612)
 60:   1589.58   0.000740    3.74  0.000145  ( 0.011931 -0.001732 -0.000057)
 61:   1615.84   0.000445    2.25  0.000086  (-0.001709  0.000753  0.009076)
 62:   3183.51   0.000273    1.38  0.000027  (-0.005051 -0.000304 -0.001087)
 63:   3188.57   0.000037    0.19  0.000004  (-0.001833 -0.000336 -0.000356)
 64:   3195.62   0.000093    0.47  0.000009  (-0.000536 -0.002566 -0.001489)
 65:   3197.12   0.000099    0.50  0.000010  (-0.001053  0.000104 -0.002921)

--------------------------
THERMOCHEMISTRY AT 298.15K
--------------------------

Temperature         ...   298.15 K
Pressure            ...     1.00 atm
Total Mass          ...   360.88 AMU
Quasi RRHO          ...     True
Cut-Off Frequency   ...     1.00 cm^-1

Throughout the following assumptions are being made:
  (1) The electronic state is orbitally nondegenerate
  (2) There are no thermally accessible electronically excited states
  (3) Hindered rotations indicated by low frequency modes are not
      treated as such but are treated as vibrations and this may
      cause some error
  (4) All equations used are the standard statistical mechanics
      equations for an ideal gas
  (5) All vibrations are strictly harmonic

freq.      36.71  E(vib)   ...       0.54
freq.      44.00  E(vib)   ...       0.53
freq.      50.99  E(vib)   ...       0.52
freq.      86.82  E(vib)   ...       0.48
freq.      97.13  E(vib)   ...       0.46
freq.     139.45  E(vib)   ...       0.42
freq.     166.01  E(vib)   ...       0.39
freq.     196.23  E(vib)   ...       0.36
freq.     205.17  E(vib)   ...       0.35
freq.     210.53  E(vib)   ...       0.34
freq.     221.56  E(vib)   ...       0.33
freq.     230.93  E(vib)   ...       0.32
freq.     241.63  E(vib)   ...       0.31
freq.     275.52  E(vib)   ...       0.28
freq.     317.70  E(vib)   ...       0.25
freq.     331.65  E(vib)   ...       0.24
freq.     352.30  E(vib)   ...       0.23
freq.     356.17  E(vib)   ...       0.22
freq.     407.33  E(vib)   ...       0.19
freq.     451.33  E(vib)   ...       0.16
freq.     455.91  E(vib)   ...       0.16
freq.     487.01  E(vib)   ...       0.15
freq.     532.76  E(vib)   ...       0.13
freq.     553.75  E(vib)   ...       0.12
freq.     561.90  E(vib)   ...       0.11
freq.     636.24  E(vib)   ...       0.09
freq.     640.40  E(vib)   ...       0.09
freq.     649.45  E(vib)   ...       0.08
freq.     691.29  E(vib)   ...       0.07
freq.     729.00  E(vib)   ...       0.06
freq.     741.73  E(vib)   ...       0.06
freq.     766.69  E(vib)   ...       0.06
freq.     819.88  E(vib)   ...       0.05
freq.     837.12  E(vib)   ...       0.04
freq.     884.41  E(vib)   ...       0.04
freq.     893.23  E(vib)   ...       0.03
freq.     906.03  E(vib)   ...       0.03
freq.     961.76  E(vib)   ...       0.03
freq.    1042.45  E(vib)   ...       0.02
freq.    1065.64  E(vib)   ...       0.02
freq.    1122.03  E(vib)   ...       0.01
freq.    1130.14  E(vib)   ...       0.01
freq.    1170.33  E(vib)   ...       0.01
freq.    1188.30  E(vib)   ...       0.01
freq.    1265.74  E(vib)   ...       0.01
freq.    1288.59  E(vib)   ...       0.01
freq.    1300.17  E(vib)   ...       0.01
freq.    1322.50  E(vib)   ...       0.01
freq.    1361.54  E(vib)   ...       0.01
freq.    1401.89  E(vib)   ...       0.00
freq.    1426.56  E(vib)   ...       0.00
freq.    1493.78  E(vib)   ...       0.00
freq.    1541.35  E(vib)   ...       0.00
freq.    1583.29  E(vib)   ...       0.00
freq.    1589.58  E(vib)   ...       0.00
freq.    1615.84  E(vib)   ...       0.00
freq.    3183.51  E(vib)   ...       0.00
freq.    3188.57  E(vib)   ...       0.00
freq.    3195.62  E(vib)   ...       0.00
freq.    3197.12  E(vib)   ...       0.00

------------
INNER ENERGY
------------

The inner energy is: U= E(el) + E(ZPE) + E(vib) + E(rot) + E(trans)
    E(el)   - is the total energy from the electronic structure calculation
              = E(kin-el) + E(nuc-el) + E(el-el) + E(nuc-nuc)
    E(ZPE)  - the the zero temperature vibrational energy from the frequency calculation
    E(vib)  - the the finite temperature correction to E(ZPE) due to population
              of excited vibrational states
    E(rot)  - is the rotational thermal energy
    E(trans)- is the translational thermal energy

Summary of contributions to the inner energy U:
Electronic energy                ...  -3220.71716574 Eh
Zero point energy                ...      0.12266174 Eh      76.97 kcal/mol
Thermal vibrational correction   ...      0.01349571 Eh       8.47 kcal/mol
Thermal rotational correction    ...      0.00141627 Eh       0.89 kcal/mol
Thermal translational correction ...      0.00141627 Eh       0.89 kcal/mol
-----------------------------------------------------------------------
Total thermal energy                  -3220.57817576 Eh

Summary of corrections to the electronic energy:
(perhaps to be used in another calculation)
Total thermal correction                  0.01632825 Eh      10.25 kcal/mol
Non-thermal (ZPE) correction              0.12266174 Eh      76.97 kcal/mol
-----------------------------------------------------------------------
Total correction                          0.13898999 Eh      87.22 kcal/mol

--------
ENTHALPY
--------

The enthalpy is H = U + kB*T
                kB is Boltzmann's constant
Total thermal energy              ...  -3220.57817576 Eh
Thermal Enthalpy correction       ...      0.00094421 Eh       0.59 kcal/mol
-----------------------------------------------------------------------
Total Enthalpy                    ...  -3220.57723155 Eh

Note: Only C1 symmetry has been detected, increase convergence thresholds
      if your molecule has a higher symmetry. Symmetry factor of 1.0 is
      used for the rotational entropy correction.

Note: Rotational entropy computed according to Herzberg
Infrared and Raman Spectra, Chapter V,1, Van Nostrand Reinhold, 1945
Point Group:  C1, Symmetry Number:   1
Rotational constants in cm-1:     0.014520     0.003833     0.003236

Vibrational entropy computed according to the QRRHO of S. Grimme
Chem.Eur.J. 2012 18 9955 using a reference frequency of 100.0 cm-1

-------
ENTROPY
-------

The entropy contributions are T*S = T*(S(el)+S(vib)+S(rot)+S(trans))
     S(el)   - electronic entropy
     S(vib)  - vibrational entropy
     S(rot)  - rotational entropy
     S(trans)- translational entropy
The entropies will be listed as multiplied by the temperature to get
units of energy

Electronic entropy                ...      0.00000000 Eh      0.00 kcal/mol
Vibrational entropy               ...      0.02365680 Eh     14.84 kcal/mol
Rotational entropy                ...      0.01684227 Eh     10.57 kcal/mol
Translational entropy             ...      0.02068886 Eh     12.98 kcal/mol
-----------------------------------------------------------------------
Final entropy term                ...      0.06118793 Eh     38.40 kcal/mol

In case the symmetry of your molecule has not been determined correctly
or in case you have a reason to use a different symmetry number we print
out the resulting rotational entropy values for sn=1,12:

 non-linear molecules -----------------------------------

                             ****ORCA TERMINATED NORMALLY****
TOTAL RUN TIME: 0 days 0 hours 27 minutes 26 seconds 565 msec
