                         Program Version 6.0.0  -   RELEASE  -
|  1> ! r2SCAN-3c DEF2-TZVP FREQ
|  2> * xyzfile 0 1 vacuum_censo.xyz
|  3>
|  4>                          ****END OF INPUT****

CARTESIAN COORDINATES (ANGSTROEM)
---------------------------------
  C      1.742075   -1.026850    1.176020
  C      3.121712   -1.091560    1.283867
  C      3.929303   -0.274163    0.496280
  C      3.340020    0.617778   -0.402063
  C      1.954405    0.684046   -0.504274
  C      1.144009   -0.137564    0.278955
  C     -0.327004    0.001047    0.185200
  C     -0.887503    1.261805    0.389228
  C     -2.257044    1.463802    0.320000
  C     -3.117412    0.396736    0.045704
  C     -2.570722   -0.877255   -0.171756
  C     -1.183947   -1.069011   -0.106345
  Cl    -0.526016   -2.640157   -0.452041
  Cl    -3.616818   -2.202868   -0.537357
  Cl    -4.823845    0.642272   -0.028784
  Cl    -2.880632    3.061276    0.593731
  Cl     4.307894    1.654635   -1.407842
  Cl     5.656035   -0.382685    0.655598
  H      1.126783   -1.661017    1.803561
  H      3.588598   -1.773611    1.984770
  H      1.509865    1.372455   -1.214238
  H     -0.239561    2.097035    0.627336

 Total Charge           Charge          ....    0
 Multiplicity           Mult            ....    1
 Number of Electrons    NEL             ....  178
 Basis Dimension        Dim             ....  618

ORBITAL ENERGIES
----------------

  NO   OCC          E(Eh)            E(eV)
   0   2.0000    -101.217415     -2754.2659
   1   2.0000    -101.217145     -2754.2585
   2   2.0000    -101.215456     -2754.2126
   3   2.0000    -101.215380     -2754.2105
   4   2.0000    -101.208959     -2754.0358
   5   2.0000    -101.208917     -2754.0346
   6   2.0000     -10.141053      -275.9521
   7   2.0000     -10.139693      -275.9151
   8   2.0000     -10.136379      -275.8249
   9   2.0000     -10.134775      -275.7812
  10   2.0000     -10.125856      -275.5386
  11   2.0000     -10.125129      -275.5188
  12   2.0000     -10.094705      -274.6909
  13   2.0000     -10.082600      -274.3615
  14   2.0000     -10.080233      -274.2971
  15   2.0000     -10.073527      -274.1146
  16   2.0000     -10.071303      -274.0541
  17   2.0000     -10.067720      -273.9566
  18   2.0000      -9.393197      -255.6019
  19   2.0000      -9.392954      -255.5953
  20   2.0000      -9.391275      -255.5496
  21   2.0000      -9.391250      -255.5489
  22   2.0000      -9.384679      -255.3701
  23   2.0000      -9.384663      -255.3697
  24   2.0000      -7.138570      -194.2504
  25   2.0000      -7.138241      -194.2414
  26   2.0000      -7.136562      -194.1957
  27   2.0000      -7.136444      -194.1925
  28   2.0000      -7.129858      -194.0133
  29   2.0000      -7.129806      -194.0119
  30   2.0000      -7.128242      -193.9693
  31   2.0000      -7.128031      -193.9636
  32   2.0000      -7.127117      -193.9387
  33   2.0000      -7.126939      -193.9339
  34   2.0000      -7.126344      -193.9177
  35   2.0000      -7.126218      -193.9143
  36   2.0000      -7.125464      -193.8937
  37   2.0000      -7.125265      -193.8883
  38   2.0000      -7.119704      -193.7370
  39   2.0000      -7.119657      -193.7357
  40   2.0000      -7.118921      -193.7157
  41   2.0000      -7.118860      -193.7140
  42   2.0000      -0.922224       -25.0950
  43   2.0000      -0.895797       -24.3759
  44   2.0000      -0.876129       -23.8407
  45   2.0000      -0.859054       -23.3761
  46   2.0000      -0.834472       -22.7071
  47   2.0000      -0.830571       -22.6010
  48   2.0000      -0.824206       -22.4278
  49   2.0000      -0.804745       -21.8982
  50   2.0000      -0.752744       -20.4832
  51   2.0000      -0.730054       -19.8658
  52   2.0000      -0.715396       -19.4669
  53   2.0000      -0.699389       -19.0314
  54   2.0000      -0.624598       -16.9962
  55   2.0000      -0.609408       -16.5828
  56   2.0000      -0.599920       -16.3246
  57   2.0000      -0.571677       -15.5561
  58   2.0000      -0.517257       -14.0753
  59   2.0000      -0.509980       -13.8773
  60   2.0000      -0.492340       -13.3973
  61   2.0000      -0.476294       -12.9606
  62   2.0000      -0.467259       -12.7148
  63   2.0000      -0.451682       -12.2909
  64   2.0000      -0.439779       -11.9670
  65   2.0000      -0.434220       -11.8157
  66   2.0000      -0.432285       -11.7631
  67   2.0000      -0.424807       -11.5596
  68   2.0000      -0.409251       -11.1363
  69   2.0000      -0.404426       -11.0050
  70   2.0000      -0.391599       -10.6560
  71   2.0000      -0.375802       -10.2261
  72   2.0000      -0.369073       -10.0430
  73   2.0000      -0.364267        -9.9122
  74   2.0000      -0.352685        -9.5970
  75   2.0000      -0.335571        -9.1313
  76   2.0000      -0.332187        -9.0393
  77   2.0000      -0.326958        -8.8970
  78   2.0000      -0.323837        -8.8121
  79   2.0000      -0.317829        -8.6486
  80   2.0000      -0.310950        -8.4614
  81   2.0000      -0.306790        -8.3482
  82   2.0000      -0.303578        -8.2608
  83   2.0000      -0.291527        -7.9329
  84   2.0000      -0.286028        -7.7832
  85   2.0000      -0.262687        -7.1481
  86   2.0000      -0.253931        -6.9098
  87   2.0000      -0.246024        -6.6947
  88   2.0000      -0.234638        -6.3848
  89   0.0000      -0.090551        -2.4640
  90   0.0000      -0.079562        -2.1650
  91   0.0000      -0.068609        -1.8669
  92   0.0000      -0.062336        -1.6963
  93   0.0000      -0.053148        -1.4462

MULLIKEN ATOMIC CHARGES
-----------------------
   0 C :   -0.210577
   1 C :   -0.156346
   2 C :    0.089030
   3 C :    0.142501
   4 C :   -0.322296
   5 C :    0.248277
   6 C :    0.167987
   7 C :   -0.301480
   8 C :    0.122196
   9 C :    0.027027
  10 C :    0.037101
  11 C :   -0.048548
  12 Cl:   -0.053459
  13 Cl:   -0.039833
  14 Cl:   -0.038836
  15 Cl:   -0.064119
  16 Cl:   -0.074180
  17 Cl:   -0.074624
  18 H :    0.133968
  19 H :    0.130263
  20 H :    0.139752
  21 H :    0.146197
Sum of atomic charges:    0.0000000

LOEWDIN ATOMIC CHARGES
----------------------
   0 C :   -0.097335
   1 C :   -0.130253
   2 C :   -0.432733
   3 C :   -0.431386
   4 C :   -0.097067
   5 C :   -0.113998
   6 C :   -0.108282
   7 C :   -0.098406
   8 C :   -0.436400
   9 C :   -0.452645
  10 C :   -0.446332
  11 C :   -0.395659
  12 Cl:    0.450295
  13 Cl:    0.448102
  14 Cl:    0.449723
  15 Cl:    0.427343
  16 Cl:    0.416802
  17 Cl:    0.418100
  18 H :    0.154319
  19 H :    0.153855
  20 H :    0.159064
  21 H :    0.162893

  Mayer bond orders larger than 0.100000
B(  0-C ,  1-C ) :   1.4336 B(  0-C ,  5-C ) :   1.2832 B(  0-C , 18-H ) :   0.9691
B(  1-C ,  2-C ) :   1.3362 B(  1-C , 19-H ) :   0.9633 B(  2-C ,  3-C ) :   1.2603
B(  2-C , 17-Cl) :   1.0738 B(  3-C ,  4-C ) :   1.3727 B(  3-C , 16-Cl) :   1.0718
B(  4-C ,  5-C ) :   1.3317 B(  4-C , 20-H ) :   0.9708 B(  5-C ,  6-C ) :   0.7911
B(  6-C ,  7-C ) :   1.3282 B(  6-C , 11-C ) :   1.2466 B(  7-C ,  8-C ) :   1.3745
B(  7-C , 21-H ) :   0.9719 B(  8-C ,  9-C ) :   1.2705 B(  8-C , 15-Cl) :   1.0841
B(  9-C , 10-C ) :   1.2758 B(  9-C , 14-Cl) :   1.1940 B( 10-C , 11-C ) :   1.2984
B( 10-C , 13-Cl) :   1.1945 B( 11-C , 12-Cl) :   1.2096

Dispersion correction           -0.014185030
FINAL SINGLE POINT ENERGY     -3220.717514142886

DIPOLE MOMENT
-------------

Method             : SCF
Type of density    : Electron Density
Multiplicity       :   1
Irrep              :   0
Energy             : -3220.7151532123325524 Eh
Relativity type    :
Basis              : AO
                                X                 Y                 Z
Electronic contribution:     -8.149162697      -0.001584172      -4.163362392
Nuclear contribution   :      8.119332547      -0.096039737       4.552276442
                        -----------------------------------------
Total Dipole Moment    :     -0.029830150      -0.097623909       0.388914050
                        -----------------------------------------
Magnitude (a.u.)       :      0.402087557
Magnitude (Debye)      :      1.022025348

VIBRATIONAL FREQUENCIES
-----------------------

Scaling factor for frequencies =  1.000000000  (already applied!)

     0:       0.00 cm**-1
     1:       0.00 cm**-1
     2:       0.00 cm**-1
     3:       0.00 cm**-1
     4:       0.00 cm**-1
     5:       0.00 cm**-1
     6:      35.88 cm**-1
     7:      43.03 cm**-1
     8:      49.89 cm**-1
     9:      86.08 cm**-1
    10:      96.17 cm**-1
    11:     138.04 cm**-1
    12:     166.05 cm**-1
    13:     195.21 cm**-1
    14:     203.97 cm**-1
    15:     209.52 cm**-1
    16:     220.73 cm**-1
    17:     230.33 cm**-1
    18:     241.56 cm**-1
    19:     275.39 cm**-1
    20:     318.24 cm**-1
    21:     332.28 cm**-1
    22:     353.54 cm**-1
    23:     357.18 cm**-1
    24:     408.88 cm**-1
    25:     450.70 cm**-1
    26:     458.13 cm**-1
    27:     490.51 cm**-1
    28:     533.58 cm**-1
    29:     556.29 cm**-1
    30:     563.25 cm**-1
    31:     637.05 cm**-1
    32:     643.53 cm**-1
    33:     650.59 cm**-1
    34:     693.26 cm**-1
    35:     729.26 cm**-1
    36:     742.06 cm**-1
    37:     770.69 cm**-1
    38:     823.69 cm**-1
    39:     838.07 cm**-1
    40:     884.95 cm**-1
    41:     897.21 cm**-1
    42:     907.29 cm**-1
    43:     961.53 cm**-1
    44:    1046.02 cm**-1
    45:    1069.37 cm**-1
    46:    1123.05 cm**-1
    47:    1134.36 cm**-1
    48:    1170.61 cm**-1
    49:    1189.80 cm**-1
    50:    1266.99 cm**-1
    51:    1288.36 cm**-1
    52:    1294.65 cm**-1
    53:    1320.17 cm**-1
    54:    1359.14 cm**-1
    55:    1400.36 cm**-1
    56:    1425.24 cm**-1
    57:    1494.91 cm**-1
    58:    1537.45 cm**-1
    59:    1580.65 cm**-1
    60:    1586.58 cm**-1
    61:    1616.39 cm**-1
    62:    3186.36 cm**-1
    63:    3189.81 cm**-1
    64:    3197.74 cm**-1
    65:    3200.17 cm**-1

IR SPECTRUM
-----------

 Mode   freq       eps      Int      T**2         TX        TY        TZ
       cm**-1   L/(mol*cm) km/mol    a.u.
----------------------------------------------------------------------------
  6:     35.88   0.000038    0.19  0.000327  ( 0.004094 -0.013899 -0.010833)
  7:     43.03   0.000019    0.10  0.000141  (-0.002959  0.001578 -0.011395)
  8:     49.89   0.000019    0.10  0.000119  (-0.005427  0.009428 -0.001063)
  9:     86.08   0.000001    0.00  0.000002  (-0.000978  0.000380 -0.000885)
 10:     96.17   0.000054    0.27  0.000176  ( 0.005261 -0.003881  0.011529)
 11:    138.04   0.000046    0.23  0.000105  ( 0.000395 -0.008277 -0.006002)
 12:    166.05   0.000016    0.08  0.000029  ( 0.003141  0.002957  0.003269)
 13:    195.21   0.000023    0.12  0.000037  ( 0.003850 -0.004526 -0.001257)
 14:    203.97   0.000010    0.05  0.000016  (-0.002880  0.000093  0.002736)
 15:    209.52   0.000012    0.06  0.000018  ( 0.003872 -0.001789  0.000264)
 16:    220.73   0.000027    0.14  0.000038  ( 0.001140 -0.006002  0.001018)
 17:    230.33   0.000009    0.05  0.000012  ( 0.002949 -0.001778  0.000506)
 18:    241.56   0.000004    0.02  0.000005  (-0.000893 -0.001630  0.001043)
 19:    275.39   0.000096    0.48  0.000109  ( 0.000613 -0.000900  0.010367)
 20:    318.24   0.000060    0.30  0.000059  (-0.001892 -0.006421 -0.003731)
 21:    332.28   0.000008    0.04  0.000008  ( 0.000320 -0.002767  0.000093)
 22:    353.54   0.000153    0.77  0.000135  ( 0.010224 -0.005502  0.000510)
 23:    357.18   0.000140    0.71  0.000122  (-0.003988  0.010287  0.000785)
 24:    408.88   0.000506    2.56  0.000386  ( 0.012973 -0.012295  0.008159)
 25:    450.70   0.000815    4.12  0.000564  ( 0.010204  0.011755  0.017942)
 26:    458.13   0.000215    1.09  0.000147  (-0.003669 -0.003415  0.011017)
 27:    490.51   0.007511   37.96  0.004778  ( 0.067963  0.012365 -0.002529)
 28:    533.58   0.000400    2.02  0.000234  ( 0.009533 -0.009677  0.007010)
 29:    556.29   0.001021    5.16  0.000573  (-0.004444  0.023413  0.002174)
 30:    563.25   0.000462    2.33  0.000256  ( 0.002257 -0.012704 -0.009450)
 31:    637.05   0.001502    7.59  0.000736  (-0.004868  0.024722  0.010053)
 32:    643.53   0.003726   18.83  0.001807  ( 0.022554 -0.035422 -0.006585)
 33:    650.59   0.001626    8.22  0.000780  ( 0.012742 -0.019846 -0.014958)
 34:    693.26   0.004207   21.26  0.001894  ( 0.041127 -0.002697 -0.013972)
 35:    729.26   0.000686    3.47  0.000293  ( 0.005335 -0.010105 -0.012764)
 36:    742.06   0.000618    3.12  0.000260  ( 0.013989 -0.007852 -0.001596)
 37:    770.69   0.009175   46.37  0.003715  ( 0.006392 -0.059338  0.012385)
 38:    823.69   0.009437   47.69  0.003575  ( 0.027671  0.040822  0.033812)
 39:    838.07   0.001379    6.97  0.000513  ( 0.011656 -0.001726 -0.019355)
 40:    884.95   0.003390   17.13  0.001196  ( 0.007304  0.000653 -0.033790)
 41:    897.21   0.001949    9.85  0.000678  (-0.008706 -0.020278  0.013815)
 42:    907.29   0.000580    2.93  0.000199  ( 0.007857 -0.002735 -0.011414)
 43:    961.53   0.000153    0.77  0.000050  ( 0.003410 -0.006070 -0.001115)
 44:   1046.02   0.008220   41.54  0.002452  ( 0.039914 -0.018152  0.023014)
 45:   1069.37   0.002269   11.47  0.000662  ( 0.007133 -0.020291 -0.014124)
 46:   1123.05   0.005017   25.36  0.001394  (-0.023261 -0.029070  0.002840)
 47:   1134.36   0.016112   81.42  0.004432  ( 0.064334  0.013274 -0.010831)
 48:   1170.61   0.000198    1.00  0.000053  (-0.006249 -0.003111 -0.002012)
 49:   1189.80   0.009546   48.24  0.002504  ( 0.040581 -0.029184 -0.002293)
 50:   1266.99   0.000145    0.73  0.000036  ( 0.000685 -0.004988 -0.003216)
 51:   1288.36   0.004383   22.15  0.001062  ( 0.027129  0.011736  0.013707)
 52:   1294.65   0.002358   11.91  0.000568  (-0.009677 -0.021698 -0.001950)
 53:   1320.17   0.001685    8.51  0.000398  (-0.009023 -0.017474  0.003393)
 54:   1359.14   0.015736   79.53  0.003613  (-0.004593 -0.059741 -0.004799)
 55:   1400.36   0.007991   40.38  0.001781  (-0.035773  0.014206 -0.017298)
 56:   1425.24   0.022488  113.65  0.004924  ( 0.064364 -0.022183 -0.017006)
 57:   1494.91   0.011767   59.46  0.002456  ( 0.048318  0.009741 -0.005176)
 58:   1537.45   0.005646   28.53  0.001146  ( 0.008665  0.032720  0.000527)
 59:   1580.65   0.002169   10.96  0.000428  (-0.006598 -0.012291  0.015283)
 60:   1586.58   0.000817    4.13  0.000161  ( 0.012204 -0.002177 -0.002660)
 61:   1616.39   0.000481    2.43  0.000093  ( 0.001583 -0.006702  0.006742)
 62:   3186.36   0.000290    1.46  0.000028  (-0.005255 -0.000521  0.000705)
 63:   3189.81   0.000034    0.17  0.000003  (-0.001822  0.000069 -0.000144)
 64:   3197.74   0.000079    0.40  0.000008  (-0.000467 -0.002671 -0.000569)
 65:   3200.17   0.000126    0.64  0.000012  ( 0.000505  0.002175 -0.002705)

--------------------------
THERMOCHEMISTRY AT 298.15K
--------------------------

Temperature         ...   298.15 K
Pressure            ...     1.00 atm
Total Mass          ...   360.88 AMU
Quasi RRHO          ...     True
Cut-Off Frequency   ...     1.00 cm^-1

Throughout the following assumptions are being made:
  (1) The electronic state is orbitally nondegenerate
  (2) There are no thermally accessible electronically excited states
  (3) Hindered rotations indicated by low frequency modes are not
      treated as such but are treated as vibrations and this may
      cause some error
  (4) All equations used are the standard statistical mechanics
      equations for an ideal gas
  (5) All vibrations are strictly harmonic

freq.      35.88  E(vib)   ...       0.54
freq.      43.03  E(vib)   ...       0.53
freq.      49.89  E(vib)   ...       0.52
freq.      86.08  E(vib)   ...       0.48
freq.      96.17  E(vib)   ...       0.47
freq.     138.04  E(vib)   ...       0.42
freq.     166.05  E(vib)   ...       0.39
freq.     195.21  E(vib)   ...       0.36
freq.     203.97  E(vib)   ...       0.35
freq.     209.52  E(vib)   ...       0.34
freq.     220.73  E(vib)   ...       0.33
freq.     230.33  E(vib)   ...       0.32
freq.     241.56  E(vib)   ...       0.31
freq.     275.39  E(vib)   ...       0.28
freq.     318.24  E(vib)   ...       0.25
freq.     332.28  E(vib)   ...       0.24
freq.     353.54  E(vib)   ...       0.22
freq.     357.18  E(vib)   ...       0.22
freq.     408.88  E(vib)   ...       0.19
freq.     450.70  E(vib)   ...       0.17
freq.     458.13  E(vib)   ...       0.16
freq.     490.51  E(vib)   ...       0.15
freq.     533.58  E(vib)   ...       0.13
freq.     556.29  E(vib)   ...       0.12
freq.     563.25  E(vib)   ...       0.11
freq.     637.05  E(vib)   ...       0.09
freq.     643.53  E(vib)   ...       0.09
freq.     650.59  E(vib)   ...       0.08
freq.     693.26  E(vib)   ...       0.07
freq.     729.26  E(vib)   ...       0.06
freq.     742.06  E(vib)   ...       0.06
freq.     770.69  E(vib)   ...       0.05
freq.     823.69  E(vib)   ...       0.05
freq.     838.07  E(vib)   ...       0.04
freq.     884.95  E(vib)   ...       0.04
freq.     897.21  E(vib)   ...       0.03
freq.     907.29  E(vib)   ...       0.03
freq.     961.53  E(vib)   ...       0.03
freq.    1046.02  E(vib)   ...       0.02
freq.    1069.37  E(vib)   ...       0.02
freq.    1123.05  E(vib)   ...       0.01
freq.    1134.36  E(vib)   ...       0.01
freq.    1170.61  E(vib)   ...       0.01
freq.    1189.80  E(vib)   ...       0.01
freq.    1266.99  E(vib)   ...       0.01
freq.    1288.36  E(vib)   ...       0.01
freq.    1294.65  E(vib)   ...       0.01
freq.    1320.17  E(vib)   ...       0.01
freq.    1359.14  E(vib)   ...       0.01
freq.    1400.36  E(vib)   ...       0.00
freq.    1425.24  E(vib)   ...       0.00
freq.    1494.91  E(vib)   ...       0.00
freq.    1537.45  E(vib)   ...       0.00
freq.    1580.65  E(vib)   ...       0.00
freq.    1586.58  E(vib)   ...       0.00
freq.    1616.39  E(vib)   ...       0.00
freq.    3186.36  E(vib)   ...       0.00
freq.    3189.81  E(vib)   ...       0.00
freq.    3197.74  E(vib)   ...       0.00
freq.    3200.17  E(vib)   ...       0.00

------------
INNER ENERGY
------------

The inner energy is: U= E(el) + E(ZPE) + E(vib) + E(rot) + E(trans)
    E(el)   - is the total energy from the electronic structure calculation
              = E(kin-el) + E(nuc-el) + E(el-el) + E(nuc-nuc)
    E(ZPE)  - the the zero temperature vibrational energy from the frequency calculation
    E(vib)  - the the finite temperature correction to E(ZPE) due to population
              of excited vibrational states
    E(rot)  - is the rotational thermal energy
    E(trans)- is the translational thermal energy

Summary of contributions to the inner energy U:
Electronic energy                ...  -3220.71751414 Eh
Zero point energy                ...      0.12272894 Eh      77.01 kcal/mol
Thermal vibrational correction   ...      0.01349473 Eh       8.47 kcal/mol
Thermal rotational correction    ...      0.00141627 Eh       0.89 kcal/mol
Thermal translational correction ...      0.00141627 Eh       0.89 kcal/mol
-----------------------------------------------------------------------
Total thermal energy                  -3220.57845794 Eh

Summary of corrections to the electronic energy:
(perhaps to be used in another calculation)
Total thermal correction                  0.01632727 Eh      10.25 kcal/mol
Non-thermal (ZPE) correction              0.12272894 Eh      77.01 kcal/mol
-----------------------------------------------------------------------
Total correction                          0.13905621 Eh      87.26 kcal/mol

--------
ENTHALPY
--------

The enthalpy is H = U + kB*T
                kB is Boltzmann's constant
Total thermal energy              ...  -3220.57845794 Eh
Thermal Enthalpy correction       ...      0.00094421 Eh       0.59 kcal/mol
-----------------------------------------------------------------------
Total Enthalpy                    ...  -3220.57751373 Eh

Note: Only C1 symmetry has been detected, increase convergence thresholds
      if your molecule has a higher symmetry. Symmetry factor of 1.0 is
      used for the rotational entropy correction.

Note: Rotational entropy computed according to Herzberg
Infrared and Raman Spectra, Chapter V,1, Van Nostrand Reinhold, 1945
Point Group:  C1, Symmetry Number:   1
Rotational constants in cm-1:     0.014503     0.003836     0.003236

Vibrational entropy computed according to the QRRHO of S. Grimme
Chem.Eur.J. 2012 18 9955 using a reference frequency of 100.0 cm-1

-------
ENTROPY
-------

The entropy contributions are T*S = T*(S(el)+S(vib)+S(rot)+S(trans))
     S(el)   - electronic entropy
     S(vib)  - vibrational entropy
     S(rot)  - rotational entropy
     S(trans)- translational entropy
The entropies will be listed as multiplied by the temperature to get
units of energy

Electronic entropy                ...      0.00000000 Eh      0.00 kcal/mol
Vibrational entropy               ...      0.02368445 Eh     14.86 kcal/mol
Rotational entropy                ...      0.01684246 Eh     10.57 kcal/mol
Translational entropy             ...      0.02068886 Eh     12.98 kcal/mol
-----------------------------------------------------------------------
Final entropy term                ...      0.06121577 Eh     38.41 kcal/mol

In case the symmetry of your molecule has not been determined correctly
or in case you have a reason to use a different symmetry number we print
out the resulting rotational entropy values for sn=1,12:

 non-linear molecules -----------------------------------

                             ****ORCA TERMINATED NORMALLY****
TOTAL RUN TIME: 0 days 0 hours 27 minutes 16 seconds 250 msec
