                         Program Version 6.0.1  -  RELEASE   -
|  1> ! pbe def2-sv(p) def2/J RI DEFGRID1 loosescf d4 GCP(DFT/SV(P)) printgap
|  2> %output
|  3>     printlevel normal
|  4> end
|  5> * xyz 0 1
|  6> C -2.5101091153 -0.67568538 -0.0345165203
|  7> C -1.1503551706 -0.4198632069 0.6360060833
|  8> H -1.1941083965 -0.6990730215 1.701251953
|  9> C -0.7194055903 1.0631200863 0.5822406731
| 10> H -1.5830921492 1.6779242289 0.2903780961
| 11> C 0.4023578223 1.2693380689 -0.4512385588
| 12> H 0.7841597727 2.297954461 -0.3666537895
| 13> C 1.5944404867 0.3410582993 -0.0994414009
| 14> H 2.240483951 0.2453471049 -0.9762784931
| 15> C 1.1032133324 -1.07122279 0.2869400784
| 16> H 1.2107285378 -1.195569055 1.3871079765
| 17> O -0.2542501344 -1.2721988806 -0.0490345262
| 18> O 1.8453978442 -2.0082414204 -0.4010937586
| 19> O 2.3745083736 0.9064584711 0.9171224923
| 20> O -0.058492011 1.1285082114 -1.7611106269
| 21> O -0.2863666898 1.4177953015 1.8830846444
| 22> O -2.4006956826 -0.5795443375 -1.4317425075
| 23> H -3.2409800638 0.0694833102 0.2819938919
| 24> H -2.8665265899 -1.6712264444 0.2549661491
| 25> H 1.4596827409 -2.8820532771 -0.2626881294
| 26> H 1.8173045439 1.0020919539 1.7040536765
| 27> H -0.8004229594 0.5014236908 -1.7868477199
| 28> H -0.1298373717 2.3692994723 1.9108953084
| 29> H -1.8133934854 -1.2901604044 -1.7233771495
| 30> *
| 31>
| 32>                          ****END OF INPUT****

CARTESIAN COORDINATES (ANGSTROEM)
---------------------------------
  C     -2.510109   -0.675685   -0.034517
  C     -1.150355   -0.419863    0.636006
  H     -1.194108   -0.699073    1.701252
  C     -0.719406    1.063120    0.582241
  H     -1.583092    1.677924    0.290378
  C      0.402358    1.269338   -0.451239
  H      0.784160    2.297954   -0.366654
  C      1.594440    0.341058   -0.099441
  H      2.240484    0.245347   -0.976278
  C      1.103213   -1.071223    0.286940
  H      1.210729   -1.195569    1.387108
  O     -0.254250   -1.272199   -0.049035
  O      1.845398   -2.008241   -0.401094
  O      2.374508    0.906458    0.917122
  O     -0.058492    1.128508   -1.761111
  O     -0.286367    1.417795    1.883085
  O     -2.400696   -0.579544   -1.431743
  H     -3.240980    0.069483    0.281994
  H     -2.866527   -1.671226    0.254966
  H      1.459683   -2.882053   -0.262688
  H      1.817305    1.002092    1.704054
  H     -0.800423    0.501424   -1.786848
  H     -0.129837    2.369299    1.910895
  H     -1.813393   -1.290160   -1.723377

 Total Charge           Charge          ....    0
 Multiplicity           Mult            ....    1
 Number of Electrons    NEL             ....   96
 Basis Dimension        Dim             ....  192

ORBITAL ENERGIES
----------------

  NO   OCC          E(Eh)            E(eV)
   0   2.0000     -18.784631      -511.1558
   1   2.0000     -18.781752      -511.0774
   2   2.0000     -18.779717      -511.0221
   3   2.0000     -18.762358      -510.5497
   4   2.0000     -18.738439      -509.8988
   5   2.0000     -18.736172      -509.8372
   6   2.0000      -9.988825      -271.8098
   7   2.0000      -9.959766      -271.0190
   8   2.0000      -9.956516      -270.9306
   9   2.0000      -9.954001      -270.8621
  10   2.0000      -9.937809      -270.4215
  11   2.0000      -9.928804      -270.1765
  12   2.0000      -0.995709       -27.0946
  13   2.0000      -0.958073       -26.0705
  14   2.0000      -0.955978       -26.0135
  15   2.0000      -0.922865       -25.1124
  16   2.0000      -0.922134       -25.0925
  17   2.0000      -0.912262       -24.8239
  18   2.0000      -0.712162       -19.3789
  19   2.0000      -0.682874       -18.5819
  20   2.0000      -0.628235       -17.0951
  21   2.0000      -0.596737       -16.2380
  22   2.0000      -0.576034       -15.6747
  23   2.0000      -0.519849       -14.1458
  24   2.0000      -0.511683       -13.9236
  25   2.0000      -0.496382       -13.5072
  26   2.0000      -0.480868       -13.0851
  27   2.0000      -0.474185       -12.9032
  28   2.0000      -0.471793       -12.8381
  29   2.0000      -0.436816       -11.8864
  30   2.0000      -0.414107       -11.2684
  31   2.0000      -0.404998       -11.0206
  32   2.0000      -0.395567       -10.7639
  33   2.0000      -0.374729       -10.1969
  34   2.0000      -0.362603        -9.8669
  35   2.0000      -0.351374        -9.5614
  36   2.0000      -0.343914        -9.3584
  37   2.0000      -0.321935        -8.7603
  38   2.0000      -0.313781        -8.5384
  39   2.0000      -0.300416        -8.1747
  40   2.0000      -0.298768        -8.1299
  41   2.0000      -0.275648        -7.5008
  42   2.0000      -0.254418        -6.9231
  43   2.0000      -0.249840        -6.7985
  44   2.0000      -0.245437        -6.6787
  45   2.0000      -0.237325        -6.4579
  46   2.0000      -0.222448        -6.0531
  47   2.0000      -0.191307        -5.2057
  48   0.0000       0.003765         0.1025
  49   0.0000       0.014836         0.4037
  50   0.0000       0.035695         0.9713
  51   0.0000       0.050999         1.3877
  52   0.0000       0.057379         1.5614

MULLIKEN ATOMIC CHARGES
-----------------------
   0 C :    0.054532
   1 C :    0.016133
   2 H :    0.077584
   3 C :   -0.037327
   4 H :    0.084587
   5 C :    0.043694
   6 H :    0.063017
   7 C :    0.088704
   8 H :    0.085351
   9 C :    0.192250
  10 H :    0.036564
  11 O :   -0.332115
  12 O :   -0.372256
  13 O :   -0.430523
  14 O :   -0.416626
  15 O :   -0.417028
  16 O :   -0.426384
  17 H :    0.105854
  18 H :    0.093450
  19 H :    0.298577
  20 H :    0.283909
  21 H :    0.279772
  22 H :    0.310601
  23 H :    0.317680
Sum of atomic charges:    0.0000000

LOEWDIN ATOMIC CHARGES
----------------------
   0 C :   -0.122133
   1 C :   -0.074641
   2 H :    0.114078
   3 C :   -0.080579
   4 H :    0.108703
   5 C :   -0.081724
   6 H :    0.107645
   7 C :   -0.081698
   8 H :    0.128657
   9 C :    0.004471
  10 H :    0.078955
  11 O :   -0.167496
  12 O :   -0.287614
  13 O :   -0.315724
  14 O :   -0.320336
  15 O :   -0.312374
  16 O :   -0.311941
  17 H :    0.121479
  18 H :    0.108257
  19 H :    0.284640
  20 H :    0.262648
  21 H :    0.258599
  22 H :    0.290768
  23 H :    0.287361

  Mayer bond orders larger than 0.100000
B(  0-C ,  1-C ) :   1.0334 B(  0-C , 16-O ) :   1.0464 B(  0-C , 17-H ) :   0.9252
B(  0-C , 18-H ) :   0.9223 B(  1-C ,  2-H ) :   0.8787 B(  1-C ,  3-C ) :   0.9648
B(  1-C , 11-O ) :   1.0149 B(  3-C ,  4-H ) :   0.9024 B(  3-C ,  5-C ) :   1.0135
B(  3-C , 15-O ) :   1.0223 B(  5-C ,  6-H ) :   0.8974 B(  5-C ,  7-C ) :   0.9438
B(  5-C , 14-O ) :   1.0984 B(  7-C ,  8-H ) :   0.8797 B(  7-C ,  9-C ) :   0.9699
B(  7-C , 13-O ) :   1.0313 B(  9-C , 10-H ) :   0.8894 B(  9-C , 11-O ) :   1.0000
B(  9-C , 12-O ) :   1.1755 B( 12-O , 19-H ) :   0.8428 B( 13-O , 20-H ) :   0.8222
B( 14-O , 21-H ) :   0.7905 B( 15-O , 22-H ) :   0.8379 B( 16-O , 21-H ) :   0.1495
B( 16-O , 23-H ) :   0.8179

Dispersion correction           -0.025496807
FINAL SINGLE POINT ENERGY      -685.694069192139

DIPOLE MOMENT
-------------

Method             : SCF
Type of density    : Electron Density
Multiplicity       :   1
Irrep              :   0
Energy             :  -685.8281020511058159 Eh
Relativity type    :
Basis              : AO
                                X                 Y                 Z
Electronic contribution:      2.692095447      -0.868557971      -1.273510742
Nuclear contribution   :     -3.843434398       0.393104193       2.253009589
                        -----------------------------------------
Total Dipole Moment    :     -1.151338952      -0.475453777       0.979498847
                        -----------------------------------------
Magnitude (a.u.)       :      1.584631083
Magnitude (Debye)      :      4.027812116

Rotational constants in cm-1:             0.040499             0.028466             0.023856
Rotational constants in MHz :          1214.141328           853.380750           715.172567

                             ****ORCA TERMINATED NORMALLY****
TOTAL RUN TIME: 0 days 0 hours 0 minutes 8 seconds 445 msec
