                         Program Version 6.0.1  -  RELEASE   -
|  1> ! pbe def2-sv(p) def2/J RI DEFGRID1 loosescf d4 GCP(DFT/SV(P)) printgap
|  2> %output
|  3>     printlevel normal
|  4> end
|  5> * xyz 0 1
|  6> C -2.4160317962 -0.8401361522 0.3205950504
|  7> C -0.9793526865 -0.4170770004 0.6576271684
|  8> H -0.7977712694 -0.5319674299 1.7371209222
|  9> C -0.7479707897 1.0636451153 0.2835647958
| 10> H -1.5737869317 1.4020047988 -0.3635906557
| 11> C 0.5784747509 1.2205477252 -0.4894740214
| 12> H 0.8756348333 2.284540754 -0.4613625058
| 13> C 1.6564944757 0.3785655741 0.2107071158
| 14> H 2.6068776771 0.4775148011 -0.3253325585
| 15> C 1.2442967722 -1.1181118582 0.1154593548
| 16> H 1.5582665355 -1.6319848016 1.0373635913
| 17> O -0.1491899611 -1.2793498585 -0.0830062943
| 18> O 1.8722482329 -1.7508184073 -0.9351370958
| 19> O 1.8982843162 0.809695988 1.5185797262
| 20> O 0.4834543125 0.7740089565 -1.8188829316
| 21> O -0.7352459229 1.79623433 1.4906882339
| 22> O -2.6569493019 -0.7034675137 -1.0539938299
| 23> H -3.1269180699 -0.1941983788 0.8384433851
| 24> H -2.563316889 -1.8779202196 0.6435413712
| 25> H 1.5740045629 -1.320715818 -1.7499014184
| 26> H 1.053635904 0.997520179 1.956466628
| 27> H -0.3509768557 1.0721665259 -2.20075199
| 28> H -0.6724974258 2.7395536746 1.2994861301
| 29> H -1.9811310265 -1.2272401008 -1.5049751381
| 30> *
| 31>
| 32>                          ****END OF INPUT****

CARTESIAN COORDINATES (ANGSTROEM)
---------------------------------
  C     -2.416032   -0.840136    0.320595
  C     -0.979353   -0.417077    0.657627
  H     -0.797771   -0.531967    1.737121
  C     -0.747971    1.063645    0.283565
  H     -1.573787    1.402005   -0.363591
  C      0.578475    1.220548   -0.489474
  H      0.875635    2.284541   -0.461363
  C      1.656494    0.378566    0.210707
  H      2.606878    0.477515   -0.325333
  C      1.244297   -1.118112    0.115459
  H      1.558267   -1.631985    1.037364
  O     -0.149190   -1.279350   -0.083006
  O      1.872248   -1.750818   -0.935137
  O      1.898284    0.809696    1.518580
  O      0.483454    0.774009   -1.818883
  O     -0.735246    1.796234    1.490688
  O     -2.656949   -0.703468   -1.053994
  H     -3.126918   -0.194198    0.838443
  H     -2.563317   -1.877920    0.643541
  H      1.574005   -1.320716   -1.749901
  H      1.053636    0.997520    1.956467
  H     -0.350977    1.072167   -2.200752
  H     -0.672497    2.739554    1.299486
  H     -1.981131   -1.227240   -1.504975

 Total Charge           Charge          ....    0
 Multiplicity           Mult            ....    1
 Number of Electrons    NEL             ....   96
 Basis Dimension        Dim             ....  192

ORBITAL ENERGIES
----------------

  NO   OCC          E(Eh)            E(eV)
   0   2.0000     -18.788110      -511.2505
   1   2.0000     -18.776059      -510.9225
   2   2.0000     -18.771298      -510.7930
   3   2.0000     -18.757677      -510.4223
   4   2.0000     -18.747620      -510.1487
   5   2.0000     -18.745628      -510.0945
   6   2.0000      -9.979609      -271.5590
   7   2.0000      -9.960378      -271.0357
   8   2.0000      -9.956280      -270.9241
   9   2.0000      -9.953889      -270.8591
  10   2.0000      -9.940639      -270.4985
  11   2.0000      -9.939575      -270.4696
  12   2.0000      -0.987292       -26.8656
  13   2.0000      -0.962772       -26.1983
  14   2.0000      -0.948737       -25.8164
  15   2.0000      -0.938057       -25.5258
  16   2.0000      -0.924181       -25.1482
  17   2.0000      -0.909547       -24.7500
  18   2.0000      -0.710350       -19.3296
  19   2.0000      -0.688762       -18.7422
  20   2.0000      -0.624132       -16.9835
  21   2.0000      -0.599783       -16.3209
  22   2.0000      -0.572174       -15.5697
  23   2.0000      -0.526438       -14.3251
  24   2.0000      -0.518548       -14.1104
  25   2.0000      -0.496341       -13.5061
  26   2.0000      -0.486286       -13.2325
  27   2.0000      -0.463658       -12.6168
  28   2.0000      -0.455973       -12.4077
  29   2.0000      -0.445262       -12.1162
  30   2.0000      -0.421952       -11.4819
  31   2.0000      -0.398097       -10.8328
  32   2.0000      -0.384410       -10.4603
  33   2.0000      -0.381530       -10.3820
  34   2.0000      -0.368207       -10.0194
  35   2.0000      -0.358356        -9.7514
  36   2.0000      -0.351711        -9.5706
  37   2.0000      -0.323107        -8.7922
  38   2.0000      -0.306986        -8.3535
  39   2.0000      -0.297660        -8.0997
  40   2.0000      -0.292240        -7.9523
  41   2.0000      -0.287303        -7.8179
  42   2.0000      -0.257140        -6.9971
  43   2.0000      -0.252021        -6.8578
  44   2.0000      -0.241688        -6.5767
  45   2.0000      -0.230869        -6.2823
  46   2.0000      -0.225579        -6.1383
  47   2.0000      -0.196807        -5.3554
  48   0.0000       0.001553         0.0423
  49   0.0000       0.005562         0.1514
  50   0.0000       0.041175         1.1204
  51   0.0000       0.050882         1.3846
  52   0.0000       0.064407         1.7526

MULLIKEN ATOMIC CHARGES
-----------------------
   0 C :    0.060728
   1 C :    0.019255
   2 H :    0.068436
   3 C :   -0.031058
   4 H :    0.073712
   5 C :    0.052385
   6 H :    0.060410
   7 C :   -0.002937
   8 H :    0.087015
   9 C :    0.233968
  10 H :    0.065821
  11 O :   -0.309429
  12 O :   -0.391122
  13 O :   -0.422658
  14 O :   -0.414887
  15 O :   -0.409508
  16 O :   -0.441174
  17 H :    0.097291
  18 H :    0.090602
  19 H :    0.299003
  20 H :    0.298551
  21 H :    0.304727
  22 H :    0.310185
  23 H :    0.300684
Sum of atomic charges:    0.0000000

LOEWDIN ATOMIC CHARGES
----------------------
   0 C :   -0.121458
   1 C :   -0.075564
   2 H :    0.108441
   3 C :   -0.087770
   4 H :    0.104329
   5 C :   -0.082196
   6 H :    0.096739
   7 C :   -0.088045
   8 H :    0.122866
   9 C :    0.003979
  10 H :    0.101540
  11 O :   -0.155741
  12 O :   -0.291027
  13 O :   -0.315099
  14 O :   -0.312832
  15 O :   -0.303430
  16 O :   -0.332879
  17 H :    0.118679
  18 H :    0.107093
  19 H :    0.278205
  20 H :    0.268107
  21 H :    0.284944
  22 H :    0.291188
  23 H :    0.279930

  Mayer bond orders larger than 0.100000
B(  0-C ,  1-C ) :   1.0488 B(  0-C , 16-O ) :   1.0559 B(  0-C , 17-H ) :   0.9252
B(  0-C , 18-H ) :   0.9137 B(  1-C ,  2-H ) :   0.8751 B(  1-C ,  3-C ) :   0.9701
B(  1-C , 11-O ) :   1.0542 B(  3-C ,  4-H ) :   0.8821 B(  3-C ,  5-C ) :   0.9943
B(  3-C , 15-O ) :   1.0310 B(  5-C ,  6-H ) :   0.8958 B(  5-C ,  7-C ) :   0.9964
B(  5-C , 14-O ) :   1.0421 B(  7-C ,  8-H ) :   0.8968 B(  7-C ,  9-C ) :   0.9431
B(  7-C , 13-O ) :   1.0834 B(  9-C , 10-H ) :   0.9004 B(  9-C , 11-O ) :   0.9798
B(  9-C , 12-O ) :   1.1414 B( 12-O , 19-H ) :   0.8343 B( 13-O , 20-H ) :   0.8088
B( 14-O , 21-H ) :   0.8344 B( 15-O , 20-H ) :   0.1067 B( 15-O , 22-H ) :   0.8375
B( 16-O , 23-H ) :   0.8349

Dispersion correction           -0.025614870
FINAL SINGLE POINT ENERGY      -685.694143328582

DIPOLE MOMENT
-------------

Method             : SCF
Type of density    : Electron Density
Multiplicity       :   1
Irrep              :   0
Energy             :  -685.8273576476401558 Eh
Relativity type    :
Basis              : AO
                                X                 Y                 Z
Electronic contribution:      2.296573082      -0.956650224      -1.054793833
Nuclear contribution   :     -3.177325486       2.048671599       0.837395783
                        -----------------------------------------
Total Dipole Moment    :     -0.880752404       1.092021374      -0.217398049
                        -----------------------------------------
Magnitude (a.u.)       :      1.419682144
Magnitude (Debye)      :      3.608545235

Rotational constants in cm-1:             0.039370             0.029919             0.023692
Rotational constants in MHz :          1180.291265           896.934254           710.262082

                             ****ORCA TERMINATED NORMALLY****
TOTAL RUN TIME: 0 days 0 hours 0 minutes 9 seconds 62 msec
