                         Program Version 6.0.1  -  RELEASE   -
|  1> ! pbe def2-sv(p) def2/J RI DEFGRID1 loosescf d4 GCP(DFT/SV(P)) printgap
|  2> %output
|  3>     printlevel normal
|  4> end
|  5> * xyz 0 1
|  6> C -2.2515437619 -1.0026435949 0.7479396014
|  7> C -0.8045358586 -0.4681788154 0.7522709519
|  8> H -0.5455685905 -0.1452174191 1.7694401285
|  9> C -0.6209016718 0.7143207466 -0.2023068257
| 10> H -0.7462613868 0.3448778528 -1.2345493464
| 11> C 0.8051109123 1.2827562495 -0.0681748011
| 12> H 0.8137982353 2.0437031261 0.7200831479
| 13> C 1.7986545777 0.178203892 0.3440532087
| 14> H 2.7658705253 0.3901262812 -0.138229335
| 15> C 1.2876296843 -1.1728914882 -0.1789937808
| 16> H 1.9847739076 -1.9849582213 0.0992155572
| 17> O 0.0626574481 -1.5378288022 0.3749570723
| 18> O 1.2255952169 -1.0670384853 -1.5796834423
| 19> O 1.9204209268 0.1852475841 1.7410754632
| 20> O 1.197580232 1.9249025596 -1.2512192045
| 21> O -1.6026066377 1.688928216 0.0711808369
| 22> O -2.9281472453 -0.8150618604 -0.4626554038
| 23> H -2.7973863635 -0.527335899 1.5717996678
| 24> H -2.2095441165 -2.0801764251 0.9179473414
| 25> H 0.7246419111 -1.8222480766 -1.913343096
| 26> H 2.4800080671 -0.5483794578 2.020762693
| 27> H 1.3150296039 1.2463890893 -1.9303854854
| 28> H -1.3284181537 2.5095839647 -0.3554121885
| 29> H -3.0357698022 0.1372714457 -0.5867118431
| 30> *
| 31>
| 32>                          ****END OF INPUT****

CARTESIAN COORDINATES (ANGSTROEM)
---------------------------------
  C     -2.251544   -1.002644    0.747940
  C     -0.804536   -0.468179    0.752271
  H     -0.545569   -0.145217    1.769440
  C     -0.620902    0.714321   -0.202307
  H     -0.746261    0.344878   -1.234549
  C      0.805111    1.282756   -0.068175
  H      0.813798    2.043703    0.720083
  C      1.798655    0.178204    0.344053
  H      2.765871    0.390126   -0.138229
  C      1.287630   -1.172891   -0.178994
  H      1.984774   -1.984958    0.099216
  O      0.062657   -1.537829    0.374957
  O      1.225595   -1.067038   -1.579683
  O      1.920421    0.185248    1.741075
  O      1.197580    1.924903   -1.251219
  O     -1.602607    1.688928    0.071181
  O     -2.928147   -0.815062   -0.462655
  H     -2.797386   -0.527336    1.571800
  H     -2.209544   -2.080176    0.917947
  H      0.724642   -1.822248   -1.913343
  H      2.480008   -0.548379    2.020763
  H      1.315030    1.246389   -1.930385
  H     -1.328418    2.509584   -0.355412
  H     -3.035770    0.137271   -0.586712

 Total Charge           Charge          ....    0
 Multiplicity           Mult            ....    1
 Number of Electrons    NEL             ....   96
 Basis Dimension        Dim             ....  192

ORBITAL ENERGIES
----------------

  NO   OCC          E(Eh)            E(eV)
   0   2.0000     -18.776530      -510.9354
   1   2.0000     -18.773820      -510.8616
   2   2.0000     -18.767506      -510.6898
   3   2.0000     -18.764074      -510.5964
   4   2.0000     -18.750819      -510.2357
   5   2.0000     -18.735718      -509.8248
   6   2.0000      -9.995312      -271.9863
   7   2.0000      -9.950791      -270.7748
   8   2.0000      -9.944326      -270.5989
   9   2.0000      -9.940990      -270.5081
  10   2.0000      -9.938344      -270.4361
  11   2.0000      -9.923502      -270.0322
  12   2.0000      -0.991783       -26.9878
  13   2.0000      -0.948388       -25.8069
  14   2.0000      -0.943172       -25.6650
  15   2.0000      -0.929945       -25.3051
  16   2.0000      -0.919565       -25.0226
  17   2.0000      -0.911677       -24.8080
  18   2.0000      -0.704941       -19.1824
  19   2.0000      -0.693161       -18.8619
  20   2.0000      -0.618521       -16.8308
  21   2.0000      -0.595555       -16.2059
  22   2.0000      -0.565725       -15.3942
  23   2.0000      -0.527297       -14.3485
  24   2.0000      -0.507769       -13.8171
  25   2.0000      -0.488494       -13.2926
  26   2.0000      -0.472576       -12.8594
  27   2.0000      -0.455911       -12.4060
  28   2.0000      -0.448410       -12.2019
  29   2.0000      -0.437303       -11.8996
  30   2.0000      -0.427551       -11.6343
  31   2.0000      -0.394128       -10.7248
  32   2.0000      -0.383803       -10.4438
  33   2.0000      -0.372085       -10.1249
  34   2.0000      -0.365357        -9.9419
  35   2.0000      -0.357995        -9.7415
  36   2.0000      -0.345337        -9.3971
  37   2.0000      -0.319429        -8.6921
  38   2.0000      -0.305331        -8.3085
  39   2.0000      -0.304523        -8.2865
  40   2.0000      -0.282336        -7.6828
  41   2.0000      -0.267013        -7.2658
  42   2.0000      -0.259171        -7.0524
  43   2.0000      -0.245891        -6.6910
  44   2.0000      -0.234874        -6.3912
  45   2.0000      -0.221564        -6.0291
  46   2.0000      -0.216187        -5.8827
  47   2.0000      -0.207385        -5.6432
  48   0.0000       0.010058         0.2737
  49   0.0000       0.021533         0.5859
  50   0.0000       0.028917         0.7869
  51   0.0000       0.058281         1.5859
  52   0.0000       0.065174         1.7735

MULLIKEN ATOMIC CHARGES
-----------------------
   0 C :    0.073980
   1 C :    0.042946
   2 H :    0.069871
   3 C :    0.037051
   4 H :    0.039531
   5 C :    0.068598
   6 H :    0.076670
   7 C :    0.018409
   8 H :    0.077022
   9 C :    0.145634
  10 H :    0.056169
  11 O :   -0.303758
  12 O :   -0.406949
  13 O :   -0.403763
  14 O :   -0.429963
  15 O :   -0.422891
  16 O :   -0.439223
  17 H :    0.076264
  18 H :    0.088024
  19 H :    0.309609
  20 H :    0.304373
  21 H :    0.305227
  22 H :    0.312690
  23 H :    0.304479
Sum of atomic charges:   -0.0000000

LOEWDIN ATOMIC CHARGES
----------------------
   0 C :   -0.125151
   1 C :   -0.065347
   2 H :    0.112512
   3 C :   -0.090319
   4 H :    0.099312
   5 C :   -0.069328
   6 H :    0.123794
   7 C :   -0.086814
   8 H :    0.109296
   9 C :   -0.011515
  10 H :    0.090546
  11 O :   -0.137125
  12 O :   -0.322175
  13 O :   -0.304135
  14 O :   -0.315628
  15 O :   -0.320105
  16 O :   -0.336110
  17 H :    0.102094
  18 H :    0.118786
  19 H :    0.289538
  20 H :    0.289348
  21 H :    0.279610
  22 H :    0.292490
  23 H :    0.276425

  Mayer bond orders larger than 0.100000
B(  0-C ,  1-C ) :   0.9973 B(  0-C , 16-O ) :   1.1106 B(  0-C , 17-H ) :   0.9186
B(  0-C , 18-H ) :   0.9205 B(  1-C ,  2-H ) :   0.8683 B(  1-C ,  3-C ) :   1.0853
B(  1-C , 11-O ) :   0.9609 B(  3-C ,  4-H ) :   0.8247 B(  3-C ,  5-C ) :   1.0507
B(  3-C , 15-O ) :   1.0433 B(  5-C ,  6-H ) :   0.8535 B(  5-C ,  7-C ) :   1.0008
B(  5-C , 14-O ) :   1.0348 B(  7-C ,  8-H ) :   0.8826 B(  7-C ,  9-C ) :   1.0287
B(  7-C , 13-O ) :   1.0359 B(  9-C , 10-H ) :   0.8940 B(  9-C , 11-O ) :   1.1030
B(  9-C , 12-O ) :   1.0888 B( 12-O , 19-H ) :   0.8348 B( 13-O , 20-H ) :   0.8442
B( 14-O , 21-H ) :   0.8356 B( 15-O , 22-H ) :   0.8403 B( 16-O , 23-H ) :   0.8264

Dispersion correction           -0.025209142
FINAL SINGLE POINT ENERGY      -685.693102576456

DIPOLE MOMENT
-------------

Method             : SCF
Type of density    : Electron Density
Multiplicity       :   1
Irrep              :   0
Energy             :  -685.8258308582807103 Eh
Relativity type    :
Basis              : AO
                                X                 Y                 Z
Electronic contribution:      1.294828374       0.087339896      -0.955248236
Nuclear contribution   :     -0.544881815      -0.403766518       0.866069055
                        -----------------------------------------
Total Dipole Moment    :      0.749946559      -0.316426622      -0.089179181
                        -----------------------------------------
Magnitude (a.u.)       :      0.818839774
Magnitude (Debye)      :      2.081325300

Rotational constants in cm-1:             0.041851             0.026874             0.023109
Rotational constants in MHz :          1254.657798           805.650440           692.785467

                             ****ORCA TERMINATED NORMALLY****
TOTAL RUN TIME: 0 days 0 hours 0 minutes 10 seconds 881 msec
