                         Program Version 6.0.0  -   RELEASE  -
|  1> ! r2SCAN-3c DEF2-TZVP FREQ
|  2> * xyzfile 0 1 censo.xyz
|  3>
|  4>                          ****END OF INPUT****

CARTESIAN COORDINATES (ANGSTROEM)
---------------------------------
  C      1.250306   -0.179134    0.000004
  C     -0.106570    0.444546    0.000006
  C     -1.256822   -0.228068   -0.000004
  H      1.825778    0.140427    0.877617
  H      1.825737    0.140350   -0.877665
  H      1.191502   -1.271536    0.000051
  H     -0.131998    1.534970    0.000004
  H     -2.214270    0.285917    0.000002
  H     -1.274821   -1.316440    0.000007

 Total Charge           Charge          ....    0
 Multiplicity           Mult            ....    1
 Number of Electrons    NEL             ....   24
 Basis Dimension        Dim             ....  129

ORBITAL ENERGIES
----------------

  NO   OCC          E(Eh)            E(eV)
   0   2.0000     -10.037932      -273.1460
   1   2.0000     -10.029640      -272.9204
   2   2.0000     -10.021584      -272.7012
   3   2.0000      -0.753481       -20.5033
   4   2.0000      -0.652389       -17.7524
   5   2.0000      -0.521775       -14.1982
   6   2.0000      -0.435102       -11.8397
   7   2.0000      -0.389918       -10.6102
   8   2.0000      -0.383113       -10.4250
   9   2.0000      -0.340649        -9.2695
  10   2.0000      -0.315542        -8.5863
  11   2.0000      -0.235784        -6.4160
  12   0.0000      -0.013215        -0.3596
  13   0.0000       0.065550         1.7837
  14   0.0000       0.091889         2.5004
  15   0.0000       0.103845         2.8258
  16   0.0000       0.126403         3.4396

MULLIKEN ATOMIC CHARGES
-----------------------
   0 C :   -0.258065
   1 C :   -0.106318
   2 C :   -0.283782
   3 H :    0.109329
   4 H :    0.109330
   5 H :    0.100001
   6 H :    0.101010
   7 H :    0.119141
   8 H :    0.109353
Sum of atomic charges:    0.0000000

LOEWDIN ATOMIC CHARGES
----------------------
   0 C :   -0.292743
   1 C :   -0.232655
   2 C :   -0.227338
   3 H :    0.126979
   4 H :    0.126980
   5 H :    0.123634
   6 H :    0.136175
   7 H :    0.120117
   8 H :    0.118851

  Mayer bond orders larger than 0.100000
B(  0-C ,  1-C ) :   0.9656 B(  0-C ,  3-H ) :   0.9597 B(  0-C ,  4-H ) :   0.9597
B(  0-C ,  5-H ) :   0.9779 B(  1-C ,  2-C ) :   1.9355 B(  1-C ,  6-H ) :   0.9572
B(  2-C ,  7-H ) :   0.9628 B(  2-C ,  8-H ) :   0.9617

Dispersion correction           -0.001354196
FINAL SINGLE POINT ENERGY      -117.869095866825

DIPOLE MOMENT
-------------

Method             : SCF
Type of density    : Electron Density
Multiplicity       :   1
Irrep              :   0
Energy             :  -117.8709658705869430 Eh
Relativity type    :
Basis              : AO
                                X                 Y                 Z
Electronic contribution:     -0.987614171       0.482659767      -0.000001421
Nuclear contribution   :      1.163314123      -0.450672096       0.000002856
                        -----------------------------------------
Total Dipole Moment    :      0.175699952       0.031987671       0.000001435
                        -----------------------------------------
Magnitude (a.u.)       :      0.178588029
Magnitude (Debye)      :      0.453934695

VIBRATIONAL FREQUENCIES
-----------------------

Scaling factor for frequencies =  1.000000000  (already applied!)

     0:       0.00 cm**-1
     1:       0.00 cm**-1
     2:       0.00 cm**-1
     3:       0.00 cm**-1
     4:       0.00 cm**-1
     5:       0.00 cm**-1
     6:     227.10 cm**-1
     7:     436.45 cm**-1
     8:     595.38 cm**-1
     9:     929.46 cm**-1
    10:     929.53 cm**-1
    11:     949.59 cm**-1
    12:    1027.85 cm**-1
    13:    1064.69 cm**-1
    14:    1194.25 cm**-1
    15:    1325.11 cm**-1
    16:    1396.18 cm**-1
    17:    1442.22 cm**-1
    18:    1469.74 cm**-1
    19:    1486.92 cm**-1
    20:    1689.99 cm**-1
    21:    2993.72 cm**-1
    22:    3049.46 cm**-1
    23:    3084.86 cm**-1
    24:    3102.92 cm**-1
    25:    3113.21 cm**-1
    26:    3192.83 cm**-1

IR SPECTRUM
-----------

 Mode   freq       eps      Int      T**2         TX        TY        TZ
       cm**-1   L/(mol*cm) km/mol    a.u.
----------------------------------------------------------------------------
  6:    227.10   0.000165    0.83  0.000226  ( 0.000000 -0.000001 -0.015040)
  7:    436.45   0.000214    1.08  0.000153  (-0.012370 -0.000493 -0.000000)
  8:    595.38   0.002681   13.55  0.001405  (-0.000000 -0.000001  0.037483)
  9:    929.46   0.009655   48.79  0.003242  (-0.000269 -0.000140 -0.056935)
 10:    929.53   0.000854    4.32  0.000287  ( 0.014999  0.007798 -0.001018)
 11:    949.59   0.000696    3.52  0.000229  ( 0.012483  0.008537 -0.000003)
 12:   1027.85   0.002550   12.89  0.000774  ( 0.000000 -0.000000 -0.027826)
 13:   1064.69   0.000352    1.78  0.000103  ( 0.000001  0.000000  0.010151)
 14:   1194.25   0.000080    0.41  0.000021  (-0.004539  0.000623  0.000000)
 15:   1325.11   0.000006    0.03  0.000001  (-0.000030 -0.001164 -0.000000)
 16:   1396.18   0.000523    2.64  0.000117  (-0.007656  0.007639  0.000001)
 17:   1442.22   0.000260    1.32  0.000056  ( 0.007265 -0.001890 -0.000001)
 18:   1469.74   0.001668    8.43  0.000354  (-0.000002 -0.000002 -0.018821)
 19:   1486.92   0.003261   16.48  0.000684  (-0.014581 -0.021719  0.000002)
 20:   1689.99   0.003461   17.49  0.000639  (-0.025183 -0.002203  0.000000)
 21:   2993.72   0.004972   25.13  0.000518  (-0.022455  0.003754  0.000001)
 22:   3049.46   0.003427   17.32  0.000351  ( 0.000001 -0.000001  0.018728)
 23:   3084.86   0.001188    6.00  0.000120  ( 0.004307  0.010081  0.000000)
 24:   3102.92   0.003565   18.02  0.000359  ( 0.008709  0.016815  0.000000)
 25:   3113.21   0.003812   19.26  0.000382  (-0.001734  0.019470 -0.000000)
 26:   3192.83   0.003313   16.74  0.000324  (-0.009497  0.015285 -0.000000)

--------------------------
THERMOCHEMISTRY AT 298.15K
--------------------------

Temperature         ...   298.15 K
Pressure            ...     1.00 atm
Total Mass          ...    42.08 AMU
Quasi RRHO          ...     True
Cut-Off Frequency   ...     1.00 cm^-1

Throughout the following assumptions are being made:
  (1) The electronic state is orbitally nondegenerate
  (2) There are no thermally accessible electronically excited states
  (3) Hindered rotations indicated by low frequency modes are not
      treated as such but are treated as vibrations and this may
      cause some error
  (4) All equations used are the standard statistical mechanics
      equations for an ideal gas
  (5) All vibrations are strictly harmonic

freq.     227.10  E(vib)   ...       0.33
freq.     436.45  E(vib)   ...       0.17
freq.     595.38  E(vib)   ...       0.10
freq.     929.46  E(vib)   ...       0.03
freq.     929.53  E(vib)   ...       0.03
freq.     949.59  E(vib)   ...       0.03
freq.    1027.85  E(vib)   ...       0.02
freq.    1064.69  E(vib)   ...       0.02
freq.    1194.25  E(vib)   ...       0.01
freq.    1325.11  E(vib)   ...       0.01
freq.    1396.18  E(vib)   ...       0.00
freq.    1442.22  E(vib)   ...       0.00
freq.    1469.74  E(vib)   ...       0.00
freq.    1486.92  E(vib)   ...       0.00
freq.    1689.99  E(vib)   ...       0.00
freq.    2993.72  E(vib)   ...       0.00
freq.    3049.46  E(vib)   ...       0.00
freq.    3084.86  E(vib)   ...       0.00
freq.    3102.92  E(vib)   ...       0.00
freq.    3113.21  E(vib)   ...       0.00
freq.    3192.83  E(vib)   ...       0.00

------------
INNER ENERGY
------------

The inner energy is: U= E(el) + E(ZPE) + E(vib) + E(rot) + E(trans)
    E(el)   - is the total energy from the electronic structure calculation
              = E(kin-el) + E(nuc-el) + E(el-el) + E(nuc-nuc)
    E(ZPE)  - the the zero temperature vibrational energy from the frequency calculation
    E(vib)  - the the finite temperature correction to E(ZPE) due to population
              of excited vibrational states
    E(rot)  - is the rotational thermal energy
    E(trans)- is the translational thermal energy

Summary of contributions to the inner energy U:
Electronic energy                ...   -117.86909587 Eh
Zero point energy                ...      0.07905573 Eh      49.61 kcal/mol
Thermal vibrational correction   ...      0.00121468 Eh       0.76 kcal/mol
Thermal rotational correction    ...      0.00141627 Eh       0.89 kcal/mol
Thermal translational correction ...      0.00141627 Eh       0.89 kcal/mol
-----------------------------------------------------------------------
Total thermal energy                   -117.78599292 Eh

Summary of corrections to the electronic energy:
(perhaps to be used in another calculation)
Total thermal correction                  0.00404722 Eh       2.54 kcal/mol
Non-thermal (ZPE) correction              0.07905573 Eh      49.61 kcal/mol
-----------------------------------------------------------------------
Total correction                          0.08310295 Eh      52.15 kcal/mol

--------
ENTHALPY
--------

The enthalpy is H = U + kB*T
                kB is Boltzmann's constant
Total thermal energy              ...   -117.78599292 Eh
Thermal Enthalpy correction       ...      0.00094421 Eh       0.59 kcal/mol
-----------------------------------------------------------------------
Total Enthalpy                    ...   -117.78504871 Eh

Note: Rotational entropy computed according to Herzberg
Infrared and Raman Spectra, Chapter V,1, Van Nostrand Reinhold, 1945
Point Group:  Cs, Symmetry Number:   1
Rotational constants in cm-1:     1.559403     0.311102     0.272374

Vibrational entropy computed according to the QRRHO of S. Grimme
Chem.Eur.J. 2012 18 9955 using a reference frequency of 100.0 cm-1

-------
ENTROPY
-------

The entropy contributions are T*S = T*(S(el)+S(vib)+S(rot)+S(trans))
     S(el)   - electronic entropy
     S(vib)  - vibrational entropy
     S(rot)  - rotational entropy
     S(trans)- translational entropy
The entropies will be listed as multiplied by the temperature to get
units of energy

Electronic entropy                ...      0.00000000 Eh      0.00 kcal/mol
Vibrational entropy               ...      0.00183136 Eh      1.15 kcal/mol
Rotational entropy                ...      0.01046628 Eh      6.57 kcal/mol
Translational entropy             ...      0.01764535 Eh     11.07 kcal/mol
-----------------------------------------------------------------------
Final entropy term                ...      0.02994300 Eh     18.79 kcal/mol

In case the symmetry of your molecule has not been determined correctly
or in case you have a reason to use a different symmetry number we print
out the resulting rotational entropy values for sn=1,12:

 non-linear molecules -----------------------------------
|  sn= 1 | S(rot)=       0.01046628 Eh      6.57 kcal/mol|
|  sn= 2 | S(rot)=       0.00981182 Eh      6.16 kcal/mol|
|  sn= 3 | S(rot)=       0.00942899 Eh      5.92 kcal/mol|
|  sn= 4 | S(rot)=       0.00915737 Eh      5.75 kcal/mol|
|  sn= 5 | S(rot)=       0.00894668 Eh      5.61 kcal/mol|
|  sn= 6 | S(rot)=       0.00877454 Eh      5.51 kcal/mol|
|  sn= 7 | S(rot)=       0.00862899 Eh      5.41 kcal/mol|
|  sn= 8 | S(rot)=       0.00850291 Eh      5.34 kcal/mol|
|  sn= 9 | S(rot)=       0.00839170 Eh      5.27 kcal/mol|
|  sn=10 | S(rot)=       0.00829222 Eh      5.20 kcal/mol|
|  sn=11 | S(rot)=       0.00820223 Eh      5.15 kcal/mol|
|  sn=12 | S(rot)=       0.00812008 Eh      5.10 kcal/mol|
 linear molecules ---------------------------------------
|  Dinfh | S(rot)=       0.00655379 Eh      4.11 kcal/mol|
|  Cinfv | S(rot)=       0.00720825 Eh      4.52 kcal/mol|
 --------------------------------------------------------

-------------------
GIBBS FREE ENERGY
-------------------

The Gibbs free energy is G = H - T*S

Total enthalpy                    ...   -117.78504871 Eh
Total entropy correction          ...     -0.02994300 Eh    -18.79 kcal/mol
-----------------------------------------------------------------------
Final Gibbs free energy         ...   -117.81499170 Eh

For completeness - the Gibbs free energy minus the electronic energy
G-E(el)                           ...      0.05410416 Eh     33.95 kcal/mol

                             ****ORCA TERMINATED NORMALLY****
TOTAL RUN TIME: 0 days 0 hours 1 minutes 41 seconds 349 msec
