                         Program Version 6.0.0  -   RELEASE  -
|  1> ! r2SCAN-3c DEF2-TZVP FREQ
|  2> * xyzfile 0 1 vacuum_censo.xyz
|  3>
|  4>                          ****END OF INPUT****

CARTESIAN COORDINATES (ANGSTROEM)
---------------------------------
  C      1.251742    0.177788    0.000026
  C     -0.107404   -0.445131   -0.000009
  C     -1.255054    0.227050    0.000002
  H      1.190656    1.269599    0.000531
  H      1.826929   -0.136015   -0.879446
  H      1.827297   -0.136833    0.878959
  H     -0.135260   -1.535028   -0.000090
  H     -2.212894   -0.283133   -0.000028
  H     -1.272583    1.314273    0.000116

 Total Charge           Charge          ....    0
 Multiplicity           Mult            ....    1
 Number of Electrons    NEL             ....   24
 Basis Dimension        Dim             ....  129

ORBITAL ENERGIES
----------------

  NO   OCC          E(Eh)            E(eV)
   0   2.0000     -10.037625      -273.1377
   1   2.0000     -10.029545      -272.9178
   2   2.0000     -10.021054      -272.6867
   3   2.0000      -0.753599       -20.5065
   4   2.0000      -0.652601       -17.7582
   5   2.0000      -0.521955       -14.2031
   6   2.0000      -0.435222       -11.8430
   7   2.0000      -0.389888       -10.6094
   8   2.0000      -0.383384       -10.4324
   9   2.0000      -0.340584        -9.2678
  10   2.0000      -0.315195        -8.5769
  11   2.0000      -0.236329        -6.4308
  12   0.0000      -0.012831        -0.3491
  13   0.0000       0.065801         1.7905
  14   0.0000       0.092028         2.5042
  15   0.0000       0.104086         2.8323
  16   0.0000       0.126844         3.4516

MULLIKEN ATOMIC CHARGES
-----------------------
   0 C :   -0.258658
   1 C :   -0.105904
   2 C :   -0.282928
   3 H :    0.099697
   4 H :    0.109474
   5 H :    0.109466
   6 H :    0.100841
   7 H :    0.119012
   8 H :    0.109000
Sum of atomic charges:   -0.0000000

LOEWDIN ATOMIC CHARGES
----------------------
   0 C :   -0.292323
   1 C :   -0.232441
   2 C :   -0.226873
   3 H :    0.123502
   4 H :    0.126690
   5 H :    0.126682
   6 H :    0.136125
   7 H :    0.119919
   8 H :    0.118718

  Mayer bond orders larger than 0.100000
B(  0-C ,  1-C ) :   0.9647 B(  0-C ,  3-H ) :   0.9783 B(  0-C ,  4-H ) :   0.9598
B(  0-C ,  5-H ) :   0.9599 B(  1-C ,  2-C ) :   1.9373 B(  1-C ,  6-H ) :   0.9572
B(  2-C ,  7-H ) :   0.9629 B(  2-C ,  8-H ) :   0.9617

Dispersion correction           -0.001354308
FINAL SINGLE POINT ENERGY      -117.869119162587

DIPOLE MOMENT
-------------

Method             : SCF
Type of density    : Electron Density
Multiplicity       :   1
Irrep              :   0
Energy             :  -117.8709933489288346 Eh
Relativity type    :
Basis              : AO
                                X                 Y                 Z
Electronic contribution:     -0.988932886      -0.490891473      -0.000017635
Nuclear contribution   :      1.161287404       0.460674025       0.000002923
                        -----------------------------------------
Total Dipole Moment    :      0.172354518      -0.030217448      -0.000014712
                        -----------------------------------------
Magnitude (a.u.)       :      0.174983354
Magnitude (Debye)      :      0.444772339

VIBRATIONAL FREQUENCIES
-----------------------

Scaling factor for frequencies =  1.000000000  (already applied!)

     0:       0.00 cm**-1
     1:       0.00 cm**-1
     2:       0.00 cm**-1
     3:       0.00 cm**-1
     4:       0.00 cm**-1
     5:       0.00 cm**-1
     6:     218.55 cm**-1
     7:     432.88 cm**-1
     8:     589.73 cm**-1
     9:     925.97 cm**-1
    10:     926.36 cm**-1
    11:     946.28 cm**-1
    12:    1026.44 cm**-1
    13:    1064.31 cm**-1
    14:    1191.60 cm**-1
    15:    1326.32 cm**-1
    16:    1395.42 cm**-1
    17:    1441.62 cm**-1
    18:    1470.53 cm**-1
    19:    1485.85 cm**-1
    20:    1697.66 cm**-1
    21:    2996.91 cm**-1
    22:    3053.82 cm**-1
    23:    3087.90 cm**-1
    24:    3112.77 cm**-1
    25:    3118.58 cm**-1
    26:    3204.23 cm**-1

IR SPECTRUM
-----------

 Mode   freq       eps      Int      T**2         TX        TY        TZ
       cm**-1   L/(mol*cm) km/mol    a.u.
----------------------------------------------------------------------------
  6:    218.55   0.000151    0.77  0.000216  ( 0.000003  0.000012 -0.014702)
  7:    432.88   0.000216    1.09  0.000155  ( 0.012454 -0.000625  0.000000)
  8:    589.73   0.002704   13.67  0.001431  (-0.000004  0.000004 -0.037827)
  9:    925.97   0.000821    4.15  0.000277  ( 0.014690 -0.007750  0.001000)
 10:    926.36   0.009583   48.43  0.003228  (-0.000258  0.000130  0.056818)
 11:    946.28   0.000724    3.66  0.000239  (-0.012695  0.008813  0.000024)
 12:   1026.44   0.002592   13.10  0.000788  ( 0.000016 -0.000005 -0.028074)
 13:   1064.31   0.000348    1.76  0.000102  ( 0.000008  0.000001  0.010100)
 14:   1191.60   0.000083    0.42  0.000022  ( 0.004566  0.000934 -0.000002)
 15:   1326.32   0.000006    0.03  0.000002  ( 0.000517 -0.001111  0.000000)
 16:   1395.42   0.000528    2.67  0.000118  (-0.007526 -0.007832  0.000004)
 17:   1441.62   0.000232    1.17  0.000050  (-0.006785 -0.002049  0.000006)
 18:   1470.53   0.001640    8.29  0.000348  (-0.000015  0.000017 -0.018655)
 19:   1485.85   0.003276   16.56  0.000688  ( 0.014423 -0.021909 -0.000017)
 20:   1697.66   0.003424   17.30  0.000629  (-0.024994  0.002160  0.000000)
 21:   2996.91   0.004950   25.01  0.000515  (-0.022402 -0.003686  0.000008)
 22:   3053.82   0.003396   17.16  0.000347  ( 0.000010  0.000003  0.018628)
 23:   3087.90   0.001365    6.90  0.000138  (-0.004387  0.010896 -0.000000)
 24:   3112.77   0.005882   29.73  0.000590  (-0.006971  0.023261  0.000002)
 25:   3118.58   0.001524    7.70  0.000152  (-0.005074 -0.011258 -0.000002)
 26:   3204.23   0.003241   16.38  0.000316  ( 0.009595  0.014953  0.000002)

--------------------------
THERMOCHEMISTRY AT 298.15K
--------------------------

Temperature         ...   298.15 K
Pressure            ...     1.00 atm
Total Mass          ...    42.08 AMU
Quasi RRHO          ...     True
Cut-Off Frequency   ...     1.00 cm^-1

Throughout the following assumptions are being made:
  (1) The electronic state is orbitally nondegenerate
  (2) There are no thermally accessible electronically excited states
  (3) Hindered rotations indicated by low frequency modes are not
      treated as such but are treated as vibrations and this may
      cause some error
  (4) All equations used are the standard statistical mechanics
      equations for an ideal gas
  (5) All vibrations are strictly harmonic

freq.     218.55  E(vib)   ...       0.33
freq.     432.88  E(vib)   ...       0.17
freq.     589.73  E(vib)   ...       0.10
freq.     925.97  E(vib)   ...       0.03
freq.     926.36  E(vib)   ...       0.03
freq.     946.28  E(vib)   ...       0.03
freq.    1026.44  E(vib)   ...       0.02
freq.    1064.31  E(vib)   ...       0.02
freq.    1191.60  E(vib)   ...       0.01
freq.    1326.32  E(vib)   ...       0.01
freq.    1395.42  E(vib)   ...       0.00
freq.    1441.62  E(vib)   ...       0.00
freq.    1470.53  E(vib)   ...       0.00
freq.    1485.85  E(vib)   ...       0.00
freq.    1697.66  E(vib)   ...       0.00
freq.    2996.91  E(vib)   ...       0.00
freq.    3053.82  E(vib)   ...       0.00
freq.    3087.90  E(vib)   ...       0.00
freq.    3112.77  E(vib)   ...       0.00
freq.    3118.58  E(vib)   ...       0.00
freq.    3204.23  E(vib)   ...       0.00

------------
INNER ENERGY
------------

The inner energy is: U= E(el) + E(ZPE) + E(vib) + E(rot) + E(trans)
    E(el)   - is the total energy from the electronic structure calculation
              = E(kin-el) + E(nuc-el) + E(el-el) + E(nuc-nuc)
    E(ZPE)  - the the zero temperature vibrational energy from the frequency calculation
    E(vib)  - the the finite temperature correction to E(ZPE) due to population
              of excited vibrational states
    E(rot)  - is the rotational thermal energy
    E(trans)- is the translational thermal energy

Summary of contributions to the inner energy U:
Electronic energy                ...   -117.86911916 Eh
Zero point energy                ...      0.07908373 Eh      49.63 kcal/mol
Thermal vibrational correction   ...      0.00123592 Eh       0.78 kcal/mol
Thermal rotational correction    ...      0.00141627 Eh       0.89 kcal/mol
Thermal translational correction ...      0.00141627 Eh       0.89 kcal/mol
-----------------------------------------------------------------------
Total thermal energy                   -117.78596697 Eh

Summary of corrections to the electronic energy:
(perhaps to be used in another calculation)
Total thermal correction                  0.00406846 Eh       2.55 kcal/mol
Non-thermal (ZPE) correction              0.07908373 Eh      49.63 kcal/mol
-----------------------------------------------------------------------
Total correction                          0.08315219 Eh      52.18 kcal/mol

--------
ENTHALPY
--------

The enthalpy is H = U + kB*T
                kB is Boltzmann's constant
Total thermal energy              ...   -117.78596697 Eh
Thermal Enthalpy correction       ...      0.00094421 Eh       0.59 kcal/mol
-----------------------------------------------------------------------
Total Enthalpy                    ...   -117.78502276 Eh

Note: Only C1 symmetry has been detected, increase convergence thresholds
      if your molecule has a higher symmetry. Symmetry factor of 1.0 is
      used for the rotational entropy correction.

Note: Rotational entropy computed according to Herzberg
Infrared and Raman Spectra, Chapter V,1, Van Nostrand Reinhold, 1945
Point Group:  C1, Symmetry Number:   1
Rotational constants in cm-1:     1.561403     0.311133     0.272507

Vibrational entropy computed according to the QRRHO of S. Grimme
Chem.Eur.J. 2012 18 9955 using a reference frequency of 100.0 cm-1

-------
ENTROPY
-------

The entropy contributions are T*S = T*(S(el)+S(vib)+S(rot)+S(trans))
     S(el)   - electronic entropy
     S(vib)  - vibrational entropy
     S(rot)  - rotational entropy
     S(trans)- translational entropy
The entropies will be listed as multiplied by the temperature to get
units of energy

Electronic entropy                ...      0.00000000 Eh      0.00 kcal/mol
Vibrational entropy               ...      0.00187700 Eh      1.18 kcal/mol
Rotational entropy                ...      0.01046540 Eh      6.57 kcal/mol
Translational entropy             ...      0.01764535 Eh     11.07 kcal/mol
-----------------------------------------------------------------------
Final entropy term                ...      0.02998776 Eh     18.82 kcal/mol

In case the symmetry of your molecule has not been determined correctly
or in case you have a reason to use a different symmetry number we print
out the resulting rotational entropy values for sn=1,12:

 non-linear molecules -----------------------------------
|  sn= 1 | S(rot)=       0.01046540 Eh      6.57 kcal/mol|
|  sn= 2 | S(rot)=       0.00981094 Eh      6.16 kcal/mol|
|  sn= 3 | S(rot)=       0.00942811 Eh      5.92 kcal/mol|
|  sn= 4 | S(rot)=       0.00915648 Eh      5.75 kcal/mol|
|  sn= 5 | S(rot)=       0.00894580 Eh      5.61 kcal/mol|
|  sn= 6 | S(rot)=       0.00877365 Eh      5.51 kcal/mol|
|  sn= 7 | S(rot)=       0.00862811 Eh      5.41 kcal/mol|
|  sn= 8 | S(rot)=       0.00850203 Eh      5.34 kcal/mol|
|  sn= 9 | S(rot)=       0.00839082 Eh      5.27 kcal/mol|
|  sn=10 | S(rot)=       0.00829134 Eh      5.20 kcal/mol|
|  sn=11 | S(rot)=       0.00820135 Eh      5.15 kcal/mol|
|  sn=12 | S(rot)=       0.00811920 Eh      5.09 kcal/mol|
 linear molecules ---------------------------------------
|  Dinfh | S(rot)=       0.00655333 Eh      4.11 kcal/mol|
|  Cinfv | S(rot)=       0.00720778 Eh      4.52 kcal/mol|
 --------------------------------------------------------

-------------------
GIBBS FREE ENERGY
-------------------

The Gibbs free energy is G = H - T*S

Total enthalpy                    ...   -117.78502276 Eh
Total entropy correction          ...     -0.02998776 Eh    -18.82 kcal/mol
-----------------------------------------------------------------------
Final Gibbs free energy         ...   -117.81501052 Eh

For completeness - the Gibbs free energy minus the electronic energy
G-E(el)                           ...      0.05410864 Eh     33.95 kcal/mol

                             ****ORCA TERMINATED NORMALLY****
TOTAL RUN TIME: 0 days 0 hours 1 minutes 42 seconds 563 msec
