                         Program Version 6.0.0  -   RELEASE  -
|  1> ! r2SCAN-3c DEF2-TZVP FREQ
|  2> * xyzfile 0 1 censo.xyz
|  3>
|  4>                          ****END OF INPUT****

CARTESIAN COORDINATES (ANGSTROEM)
---------------------------------
  C      1.197062   -1.214883   -0.000016
  C      1.866409   -0.000006   -0.000059
  C      1.197070    1.214875   -0.000043
  C     -0.191738    1.200544    0.000002
  C     -0.910477    0.000003    0.000014
  C     -0.191746   -1.200543    0.000013
  Cl    -1.031567   -2.725349    0.000050
  Cl    -2.641149    0.000007    0.000051
  Cl    -1.031548    2.725356   -0.000013
  Cl     3.616171   -0.000012   -0.000087
  H      1.734560   -2.154708   -0.000013
  H      1.734574    2.154696   -0.000075

 Total Charge           Charge          ....    0
 Multiplicity           Mult            ....    1
 Number of Electrons    NEL             ....  106
 Basis Dimension        Dim             ....  346

ORBITAL ENERGIES
----------------

  NO   OCC          E(Eh)            E(eV)
   0   2.0000    -101.214647     -2754.1906
   1   2.0000    -101.214645     -2754.1905
   2   2.0000    -101.214636     -2754.1903
   3   2.0000    -101.212465     -2754.1312
   4   2.0000     -10.137653      -275.8596
   5   2.0000     -10.137628      -275.8589
   6   2.0000     -10.135493      -275.8008
   7   2.0000     -10.131852      -275.7017
   8   2.0000     -10.080300      -274.2989
   9   2.0000     -10.080288      -274.2986
  10   2.0000      -9.390445      -255.5270
  11   2.0000      -9.390443      -255.5269
  12   2.0000      -9.390348      -255.5244
  13   2.0000      -9.388282      -255.4682
  14   2.0000      -7.135796      -194.1749
  15   2.0000      -7.135617      -194.1700
  16   2.0000      -7.135616      -194.1700
  17   2.0000      -7.133325      -194.1077
  18   2.0000      -7.125446      -193.8933
  19   2.0000      -7.125446      -193.8932
  20   2.0000      -7.125323      -193.8899
  21   2.0000      -7.124658      -193.8718
  22   2.0000      -7.124658      -193.8718
  23   2.0000      -7.124269      -193.8612
  24   2.0000      -7.123216      -193.8326
  25   2.0000      -7.122714      -193.8189
  26   2.0000      -0.915958       -24.9245
  27   2.0000      -0.866148       -23.5691
  28   2.0000      -0.861132       -23.4326
  29   2.0000      -0.828639       -22.5484
  30   2.0000      -0.794049       -21.6072
  31   2.0000      -0.731808       -19.9135
  32   2.0000      -0.710207       -19.3257
  33   2.0000      -0.608362       -16.5544
  34   2.0000      -0.592424       -16.1207
  35   2.0000      -0.510950       -13.9037
  36   2.0000      -0.502194       -13.6654
  37   2.0000      -0.463963       -12.6251
  38   2.0000      -0.438345       -11.9280
  39   2.0000      -0.438165       -11.9231
  40   2.0000      -0.428810       -11.6685
  41   2.0000      -0.390300       -10.6206
  42   2.0000      -0.387647       -10.5484
  43   2.0000      -0.368347       -10.0232
  44   2.0000      -0.361296        -9.8314
  45   2.0000      -0.328137        -8.9291
  46   2.0000      -0.322275        -8.7696
  47   2.0000      -0.312159        -8.4943
  48   2.0000      -0.306283        -8.3344
  49   2.0000      -0.298352        -8.1186
  50   2.0000      -0.288582        -7.8527
  51   2.0000      -0.254606        -6.9282
  52   2.0000      -0.242471        -6.5980
  53   0.0000      -0.077695        -2.1142
  54   0.0000      -0.074162        -2.0181
  55   0.0000      -0.063338        -1.7235
  56   0.0000      -0.008340        -0.2269
  57   0.0000       0.006536         0.1778

MULLIKEN ATOMIC CHARGES
-----------------------
   0 C :   -0.259850
   1 C :    0.201292
   2 C :   -0.259839
   3 C :    0.132461
   4 C :    0.030389
   5 C :    0.132479
   6 Cl:   -0.065450
   7 Cl:   -0.044842
   8 Cl:   -0.065448
   9 Cl:   -0.091432
  10 H :    0.145120
  11 H :    0.145121
Sum of atomic charges:    0.0000000

LOEWDIN ATOMIC CHARGES
----------------------
   0 C :   -0.144512
   1 C :   -0.415203
   2 C :   -0.144512
   3 C :   -0.426205
   4 C :   -0.452044
   5 C :   -0.426206
   6 Cl:    0.425579
   7 Cl:    0.439644
   8 Cl:    0.425579
   9 Cl:    0.402486
  10 H :    0.157698
  11 H :    0.157697

  Mayer bond orders larger than 0.100000
B(  0-C ,  1-C ) :   1.3364 B(  0-C ,  5-C ) :   1.3412 B(  0-C , 10-H ) :   0.9662
B(  1-C ,  2-C ) :   1.3364 B(  1-C ,  9-Cl) :   0.9810 B(  2-C ,  3-C ) :   1.3412
B(  2-C , 11-H ) :   0.9662 B(  3-C ,  4-C ) :   1.2650 B(  3-C ,  8-Cl) :   1.0783
B(  4-C ,  5-C ) :   1.2650 B(  4-C ,  7-Cl) :   1.1756 B(  5-C ,  6-Cl) :   1.0783

Dispersion correction           -0.006354170
FINAL SINGLE POINT ENERGY     -2070.536167287603

DIPOLE MOMENT
-------------

Method             : SCF
Type of density    : Electron Density
Multiplicity       :   1
Irrep              :   0
Energy             : -2070.5372442599118585 Eh
Relativity type    :
Basis              : AO
                                X                 Y                 Z
Electronic contribution:     -4.397442259       0.000013876       0.000094588
Nuclear contribution   :      4.724040747      -0.000015017      -0.000102407
                        -----------------------------------------
Total Dipole Moment    :      0.326598487      -0.000001141      -0.000007819
                        -----------------------------------------
Magnitude (a.u.)       :      0.326598487
Magnitude (Debye)      :      0.830147382

VIBRATIONAL FREQUENCIES
-----------------------

Scaling factor for frequencies =  1.000000000  (already applied!)

     0:       0.00 cm**-1
     1:       0.00 cm**-1
     2:       0.00 cm**-1
     3:       0.00 cm**-1
     4:       0.00 cm**-1
     5:       0.00 cm**-1
     6:      80.63 cm**-1
     7:     148.91 cm**-1
     8:     195.20 cm**-1
     9:     207.33 cm**-1
    10:     208.65 cm**-1
    11:     219.80 cm**-1
    12:     317.49 cm**-1
    13:     324.01 cm**-1
    14:     370.77 cm**-1
    15:     436.09 cm**-1
    16:     527.48 cm**-1
    17:     534.80 cm**-1
    18:     574.02 cm**-1
    19:     586.08 cm**-1
    20:     710.79 cm**-1
    21:     794.44 cm**-1
    22:     817.75 cm**-1
    23:     868.54 cm**-1
    24:     872.67 cm**-1
    25:    1047.01 cm**-1
    26:    1125.61 cm**-1
    27:    1160.81 cm**-1
    28:    1208.45 cm**-1
    29:    1317.23 cm**-1
    30:    1394.80 cm**-1
    31:    1429.29 cm**-1
    32:    1575.12 cm**-1
    33:    1583.60 cm**-1
    34:    3210.95 cm**-1
    35:    3211.21 cm**-1

IR SPECTRUM
-----------

 Mode   freq       eps      Int      T**2         TX        TY        TZ
       cm**-1   L/(mol*cm) km/mol    a.u.
----------------------------------------------------------------------------
  6:     80.63   0.000005    0.03  0.000020  (-0.000001 -0.000001 -0.004438)
  7:    148.91   0.000024    0.12  0.000050  ( 0.000001  0.000000  0.007074)
  8:    195.20   0.000030    0.15  0.000048  ( 0.000000 -0.006928  0.000000)
  9:    207.33   0.000016    0.08  0.000024  ( 0.004906 -0.000000 -0.000000)
 10:    208.65   0.000000    0.00  0.000000  (-0.000002 -0.000004  0.000000)
 11:    219.80   0.000005    0.02  0.000007  (-0.000000 -0.002641  0.000000)
 12:    317.49   0.000141    0.71  0.000138  (-0.000003 -0.000000 -0.011759)
 13:    324.01   0.000059    0.30  0.000057  (-0.007569  0.000000 -0.000002)
 14:    370.77   0.000004    0.02  0.000003  ( 0.001867  0.000000 -0.000000)
 15:    436.09   0.001118    5.65  0.000800  (-0.000000 -0.028283  0.000000)
 16:    527.48   0.000359    1.82  0.000212  ( 0.000000  0.014577 -0.000000)
 17:    534.80   0.000000    0.00  0.000000  (-0.000001 -0.000003  0.000000)
 18:    574.02   0.000734    3.71  0.000399  ( 0.000001  0.000003 -0.019972)
 19:    586.08   0.009063   45.80  0.004826  ( 0.069468 -0.000000  0.000000)
 20:    710.79   0.000738    3.73  0.000324  ( 0.000002 -0.000001  0.017995)
 21:    794.44   0.016013   80.92  0.006290  ( 0.000000  0.079309 -0.000001)
 22:    817.75   0.007033   35.54  0.002684  (-0.051805  0.000000  0.000000)
 23:    868.54   0.005736   28.99  0.002061  (-0.000003 -0.000001  0.045395)
 24:    872.67   0.000000    0.00  0.000000  ( 0.000000  0.000001  0.000001)
 25:   1047.01   0.003891   19.67  0.001160  (-0.034056  0.000000  0.000001)
 26:   1125.61   0.007298   36.88  0.002023  (-0.044981  0.000000  0.000001)
 27:   1160.81   0.003359   16.97  0.000903  (-0.030048  0.000000  0.000000)
 28:   1208.45   0.003335   16.85  0.000861  ( 0.000000  0.029346 -0.000001)
 29:   1317.23   0.001747    8.83  0.000414  (-0.000000  0.020346 -0.000000)
 30:   1394.80   0.010423   52.67  0.002332  ( 0.000000 -0.048291  0.000001)
 31:   1429.29   0.020213  102.15  0.004413  (-0.066432  0.000000  0.000001)
 32:   1575.12   0.015177   76.70  0.003007  ( 0.000001  0.054835 -0.000001)
 33:   1583.60   0.010993   55.56  0.002166  (-0.046544  0.000001  0.000001)
 34:   3210.95   0.000970    4.90  0.000094  (-0.000011  0.009708 -0.000000)
 35:   3211.21   0.000287    1.45  0.000028  ( 0.005280  0.000020 -0.000000)

--------------------------
THERMOCHEMISTRY AT 298.15K
--------------------------

Temperature         ...   298.15 K
Pressure            ...     1.00 atm
Total Mass          ...   215.89 AMU
Quasi RRHO          ...     True
Cut-Off Frequency   ...     1.00 cm^-1

Throughout the following assumptions are being made:
  (1) The electronic state is orbitally nondegenerate
  (2) There are no thermally accessible electronically excited states
  (3) Hindered rotations indicated by low frequency modes are not
      treated as such but are treated as vibrations and this may
      cause some error
  (4) All equations used are the standard statistical mechanics
      equations for an ideal gas
  (5) All vibrations are strictly harmonic

freq.      80.63  E(vib)   ...       0.48
freq.     148.91  E(vib)   ...       0.40
freq.     195.20  E(vib)   ...       0.36
freq.     207.33  E(vib)   ...       0.34
freq.     208.65  E(vib)   ...       0.34
freq.     219.80  E(vib)   ...       0.33
freq.     317.49  E(vib)   ...       0.25
freq.     324.01  E(vib)   ...       0.25
freq.     370.77  E(vib)   ...       0.21
freq.     436.09  E(vib)   ...       0.17
freq.     527.48  E(vib)   ...       0.13
freq.     534.80  E(vib)   ...       0.13
freq.     574.02  E(vib)   ...       0.11
freq.     586.08  E(vib)   ...       0.11
freq.     710.79  E(vib)   ...       0.07
freq.     794.44  E(vib)   ...       0.05
freq.     817.75  E(vib)   ...       0.05
freq.     868.54  E(vib)   ...       0.04
freq.     872.67  E(vib)   ...       0.04
freq.    1047.01  E(vib)   ...       0.02
freq.    1125.61  E(vib)   ...       0.01
freq.    1160.81  E(vib)   ...       0.01
freq.    1208.45  E(vib)   ...       0.01
freq.    1317.23  E(vib)   ...       0.01
freq.    1394.80  E(vib)   ...       0.00
freq.    1429.29  E(vib)   ...       0.00
freq.    1575.12  E(vib)   ...       0.00
freq.    1583.60  E(vib)   ...       0.00
freq.    3210.95  E(vib)   ...       0.00
freq.    3211.21  E(vib)   ...       0.00

------------
INNER ENERGY
------------

The inner energy is: U= E(el) + E(ZPE) + E(vib) + E(rot) + E(trans)
    E(el)   - is the total energy from the electronic structure calculation
              = E(kin-el) + E(nuc-el) + E(el-el) + E(nuc-nuc)
    E(ZPE)  - the the zero temperature vibrational energy from the frequency calculation
    E(vib)  - the the finite temperature correction to E(ZPE) due to population
              of excited vibrational states
    E(rot)  - is the rotational thermal energy
    E(trans)- is the translational thermal energy

Summary of contributions to the inner energy U:
Electronic energy                ...  -2070.53616729 Eh
Zero point energy                ...      0.06164617 Eh      38.68 kcal/mol
Thermal vibrational correction   ...      0.00626767 Eh       3.93 kcal/mol
Thermal rotational correction    ...      0.00141627 Eh       0.89 kcal/mol
Thermal translational correction ...      0.00141627 Eh       0.89 kcal/mol
-----------------------------------------------------------------------
Total thermal energy                  -2070.46542091 Eh

Summary of corrections to the electronic energy:
(perhaps to be used in another calculation)
Total thermal correction                  0.00910021 Eh       5.71 kcal/mol
Non-thermal (ZPE) correction              0.06164617 Eh      38.68 kcal/mol
-----------------------------------------------------------------------
Total correction                          0.07074638 Eh      44.39 kcal/mol

--------
ENTHALPY
--------

The enthalpy is H = U + kB*T
                kB is Boltzmann's constant
Total thermal energy              ...  -2070.46542091 Eh
Thermal Enthalpy correction       ...      0.00094421 Eh       0.59 kcal/mol
-----------------------------------------------------------------------
Total Enthalpy                    ...  -2070.46447670 Eh

Note: Rotational entropy computed according to Herzberg
Infrared and Raman Spectra, Chapter V,1, Van Nostrand Reinhold, 1945
Point Group:  C2v, Symmetry Number:   2
Rotational constants in cm-1:     0.027814     0.019167     0.011347

Vibrational entropy computed according to the QRRHO of S. Grimme
Chem.Eur.J. 2012 18 9955 using a reference frequency of 100.0 cm-1

-------
ENTROPY
-------

The entropy contributions are T*S = T*(S(el)+S(vib)+S(rot)+S(trans))
     S(el)   - electronic entropy
     S(vib)  - vibrational entropy
     S(rot)  - rotational entropy
     S(trans)- translational entropy
The entropies will be listed as multiplied by the temperature to get
units of energy

Electronic entropy                ...      0.00000000 Eh      0.00 kcal/mol
Vibrational entropy               ...      0.01055962 Eh      6.63 kcal/mol
Rotational entropy                ...      0.01452881 Eh      9.12 kcal/mol
Translational entropy             ...      0.01996123 Eh     12.53 kcal/mol
-----------------------------------------------------------------------
Final entropy term                ...      0.04504966 Eh     28.27 kcal/mol

In case the symmetry of your molecule has not been determined correctly
or in case you have a reason to use a different symmetry number we print
out the resulting rotational entropy values for sn=1,12:

 non-linear molecules -----------------------------------
|  sn= 1 | S(rot)=       0.01518327 Eh      9.53 kcal/mol|
|  sn= 2 | S(rot)=       0.01452881 Eh      9.12 kcal/mol|
|  sn= 3 | S(rot)=       0.01414598 Eh      8.88 kcal/mol|
|  sn= 4 | S(rot)=       0.01387435 Eh      8.71 kcal/mol|
|  sn= 5 | S(rot)=       0.01366367 Eh      8.57 kcal/mol|
|  sn= 6 | S(rot)=       0.01349152 Eh      8.47 kcal/mol|
|  sn= 7 | S(rot)=       0.01334597 Eh      8.37 kcal/mol|
|  sn= 8 | S(rot)=       0.01321990 Eh      8.30 kcal/mol|
|  sn= 9 | S(rot)=       0.01310869 Eh      8.23 kcal/mol|
|  sn=10 | S(rot)=       0.01300921 Eh      8.16 kcal/mol|
|  sn=11 | S(rot)=       0.01291922 Eh      8.11 kcal/mol|
|  sn=12 | S(rot)=       0.01283706 Eh      8.06 kcal/mol|
 linear molecules ---------------------------------------
|  Dinfh | S(rot)=       0.00955459 Eh      6.00 kcal/mol|
|  Cinfv | S(rot)=       0.01020905 Eh      6.41 kcal/mol|
 --------------------------------------------------------

-------------------
GIBBS FREE ENERGY
-------------------

The Gibbs free energy is G = H - T*S

Total enthalpy                    ...  -2070.46447670 Eh
Total entropy correction          ...     -0.04504966 Eh    -28.27 kcal/mol
-----------------------------------------------------------------------
Final Gibbs free energy         ...  -2070.50952636 Eh

For completeness - the Gibbs free energy minus the electronic energy
G-E(el)                           ...      0.02664093 Eh     16.72 kcal/mol

                             ****ORCA TERMINATED NORMALLY****
TOTAL RUN TIME: 0 days 0 hours 10 minutes 20 seconds 778 msec
