                         Program Version 6.0.0  -   RELEASE  -
|  1> ! r2SCAN-3c DEF2-TZVP FREQ
|  2> * xyzfile 0 1 vacuum_censo.xyz
|  3>
|  4>                          ****END OF INPUT****

CARTESIAN COORDINATES (ANGSTROEM)
---------------------------------
  C      1.194745   -1.211881   -0.000046
  C      1.869658    0.000058   -0.000012
  C      1.194696    1.211970    0.000026
  C     -0.195219    1.201499    0.000047
  C     -0.915332    0.000003    0.000014
  C     -0.195171   -1.201464   -0.000040
  Cl    -1.029194   -2.725229   -0.000128
  Cl    -2.642021   -0.000036    0.000020
  Cl    -1.029297    2.725235    0.000110
  Cl     3.615381    0.000094   -0.000037
  H      1.730988   -2.151524   -0.000088
  H      1.730904    2.151633    0.000051

 Total Charge           Charge          ....    0
 Multiplicity           Mult            ....    1
 Number of Electrons    NEL             ....  106
 Basis Dimension        Dim             ....  346

ORBITAL ENERGIES
----------------

  NO   OCC          E(Eh)            E(eV)
   0   2.0000    -101.214717     -2754.1925
   1   2.0000    -101.214715     -2754.1924
   2   2.0000    -101.214662     -2754.1910
   3   2.0000    -101.212895     -2754.1429
   4   2.0000     -10.137251      -275.8486
   5   2.0000     -10.137224      -275.8479
   6   2.0000     -10.135207      -275.7930
   7   2.0000     -10.131273      -275.6860
   8   2.0000     -10.079656      -274.2814
   9   2.0000     -10.079644      -274.2810
  10   2.0000      -9.390565      -255.5303
  11   2.0000      -9.390563      -255.5302
  12   2.0000      -9.390432      -255.5266
  13   2.0000      -9.388741      -255.4806
  14   2.0000      -7.135850      -194.1763
  15   2.0000      -7.135719      -194.1728
  16   2.0000      -7.135718      -194.1728
  17   2.0000      -7.133784      -194.1201
  18   2.0000      -7.125567      -193.8965
  19   2.0000      -7.125567      -193.8965
  20   2.0000      -7.125418      -193.8925
  21   2.0000      -7.124780      -193.8751
  22   2.0000      -7.124780      -193.8751
  23   2.0000      -7.124356      -193.8636
  24   2.0000      -7.123671      -193.8450
  25   2.0000      -7.123164      -193.8312
  26   2.0000      -0.915894       -24.9227
  27   2.0000      -0.866888       -23.5892
  28   2.0000      -0.861780       -23.4502
  29   2.0000      -0.829544       -22.5730
  30   2.0000      -0.794033       -21.6067
  31   2.0000      -0.730859       -19.8877
  32   2.0000      -0.709826       -19.3154
  33   2.0000      -0.607927       -16.5425
  34   2.0000      -0.592220       -16.1151
  35   2.0000      -0.510633       -13.8950
  36   2.0000      -0.501939       -13.6585
  37   2.0000      -0.464477       -12.6391
  38   2.0000      -0.438750       -11.9390
  39   2.0000      -0.437655       -11.9092
  40   2.0000      -0.428574       -11.6621
  41   2.0000      -0.390857       -10.6358
  42   2.0000      -0.387107       -10.5337
  43   2.0000      -0.368785       -10.0351
  44   2.0000      -0.361580        -9.8391
  45   2.0000      -0.328606        -8.9418
  46   2.0000      -0.321967        -8.7612
  47   2.0000      -0.312247        -8.4967
  48   2.0000      -0.306505        -8.3404
  49   2.0000      -0.298224        -8.1151
  50   2.0000      -0.288906        -7.8615
  51   2.0000      -0.253859        -6.9079
  52   2.0000      -0.242001        -6.5852
  53   0.0000      -0.077383        -2.1057
  54   0.0000      -0.074008        -2.0139
  55   0.0000      -0.061664        -1.6780
  56   0.0000      -0.007277        -0.1980
  57   0.0000       0.007772         0.2115

MULLIKEN ATOMIC CHARGES
-----------------------
   0 C :   -0.251389
   1 C :    0.191068
   2 C :   -0.251413
   3 C :    0.123394
   4 C :    0.037032
   5 C :    0.123371
   6 Cl:   -0.063977
   7 Cl:   -0.044108
   8 Cl:   -0.063976
   9 Cl:   -0.088502
  10 H :    0.144253
  11 H :    0.144246
Sum of atomic charges:    0.0000000

LOEWDIN ATOMIC CHARGES
----------------------
   0 C :   -0.144715
   1 C :   -0.419869
   2 C :   -0.144715
   3 C :   -0.429452
   4 C :   -0.455308
   5 C :   -0.429454
   6 Cl:    0.429311
   7 Cl:    0.443432
   8 Cl:    0.429309
   9 Cl:    0.407214
  10 H :    0.157124
  11 H :    0.157124

  Mayer bond orders larger than 0.100000
B(  0-C ,  1-C ) :   1.3350 B(  0-C ,  5-C ) :   1.3404 B(  0-C , 10-H ) :   0.9662
B(  1-C ,  2-C ) :   1.3349 B(  1-C ,  9-Cl) :   0.9858 B(  2-C ,  3-C ) :   1.3404
B(  2-C , 11-H ) :   0.9662 B(  3-C ,  4-C ) :   1.2645 B(  3-C ,  8-Cl) :   1.0813
B(  4-C ,  5-C ) :   1.2645 B(  4-C ,  7-Cl) :   1.1765 B(  5-C ,  6-Cl) :   1.0813

Dispersion correction           -0.006355128
FINAL SINGLE POINT ENERGY     -2070.536396401360

DIPOLE MOMENT
-------------

Method             : SCF
Type of density    : Electron Density
Multiplicity       :   1
Irrep              :   0
Energy             : -2070.5374884463371927 Eh
Relativity type    :
Basis              : AO
                                X                 Y                 Z
Electronic contribution:     -4.387913018      -0.000087304       0.000007944
Nuclear contribution   :      4.712286333       0.000090055      -0.000010555
                        -----------------------------------------
Total Dipole Moment    :      0.324373315       0.000002751      -0.000002611
                        -----------------------------------------
Magnitude (a.u.)       :      0.324373315
Magnitude (Debye)      :      0.824491443

VIBRATIONAL FREQUENCIES
-----------------------

Scaling factor for frequencies =  1.000000000  (already applied!)

     0:       0.00 cm**-1
     1:       0.00 cm**-1
     2:       0.00 cm**-1
     3:       0.00 cm**-1
     4:       0.00 cm**-1
     5:       0.00 cm**-1
     6:      79.61 cm**-1
     7:     146.88 cm**-1
     8:     194.40 cm**-1
     9:     206.30 cm**-1
    10:     206.80 cm**-1
    11:     218.77 cm**-1
    12:     317.63 cm**-1
    13:     324.96 cm**-1
    14:     372.58 cm**-1
    15:     437.20 cm**-1
    16:     528.53 cm**-1
    17:     534.44 cm**-1
    18:     573.20 cm**-1
    19:     589.85 cm**-1
    20:     710.87 cm**-1
    21:     799.04 cm**-1
    22:     822.72 cm**-1
    23:     867.34 cm**-1
    24:     871.07 cm**-1
    25:    1050.31 cm**-1
    26:    1129.23 cm**-1
    27:    1162.87 cm**-1
    28:    1208.36 cm**-1
    29:    1312.29 cm**-1
    30:    1393.11 cm**-1
    31:    1428.63 cm**-1
    32:    1572.00 cm**-1
    33:    1582.11 cm**-1
    34:    3217.38 cm**-1
    35:    3217.64 cm**-1

IR SPECTRUM
-----------

 Mode   freq       eps      Int      T**2         TX        TY        TZ
       cm**-1   L/(mol*cm) km/mol    a.u.
----------------------------------------------------------------------------
  6:     79.61   0.000005    0.02  0.000019  ( 0.000000 -0.000003  0.004382)
  7:    146.88   0.000020    0.10  0.000042  (-0.000002 -0.000005 -0.006456)
  8:    194.40   0.000030    0.15  0.000048  ( 0.000000 -0.006942 -0.000000)
  9:    206.30   0.000000    0.00  0.000000  ( 0.000008  0.000000 -0.000000)
 10:    206.80   0.000016    0.08  0.000025  (-0.004965  0.000000 -0.000000)
 11:    218.77   0.000004    0.02  0.000006  (-0.000000 -0.002489 -0.000000)
 12:    317.63   0.000144    0.73  0.000141  (-0.000003 -0.000009  0.011887)
 13:    324.96   0.000056    0.28  0.000053  ( 0.007301  0.000000 -0.000000)
 14:    372.58   0.000003    0.02  0.000003  (-0.001636 -0.000000 -0.000000)
 15:    437.20   0.001034    5.22  0.000738  ( 0.000001 -0.027160 -0.000001)
 16:    528.53   0.000345    1.74  0.000204  (-0.000000  0.014267  0.000001)
 17:    534.44   0.000000    0.00  0.000000  (-0.000004 -0.000001  0.000000)
 18:    573.20   0.000759    3.84  0.000413  (-0.000000  0.000001  0.020330)
 19:    589.85   0.008727   44.10  0.004617  (-0.067951 -0.000001  0.000001)
 20:    710.87   0.000755    3.82  0.000332  ( 0.000000 -0.000003 -0.018209)
 21:    799.04   0.015831   80.00  0.006183  ( 0.000002 -0.078629 -0.000003)
 22:    822.72   0.007064   35.70  0.002679  ( 0.051763  0.000002 -0.000000)
 23:    867.34   0.005623   28.42  0.002023  ( 0.000000 -0.000004 -0.044979)
 24:    871.07   0.000000    0.00  0.000000  ( 0.000001 -0.000001  0.000003)
 25:   1050.31   0.003772   19.06  0.001121  ( 0.033477  0.000001 -0.000001)
 26:   1129.23   0.007687   38.85  0.002124  ( 0.046090  0.000001 -0.000001)
 27:   1162.87   0.003184   16.09  0.000854  ( 0.029231  0.000001  0.000000)
 28:   1208.36   0.003535   17.87  0.000913  ( 0.000001 -0.030217 -0.000002)
 29:   1312.29   0.001709    8.64  0.000407  (-0.000000  0.020162  0.000001)
 30:   1393.11   0.010320   52.15  0.002312  ( 0.000001 -0.048080 -0.000002)
 31:   1428.63   0.019951  100.83  0.004358  ( 0.066016  0.000001 -0.000000)
 32:   1572.00   0.015249   77.06  0.003027  (-0.000001  0.055020  0.000002)
 33:   1582.11   0.011380   57.51  0.002245  ( 0.047378  0.000001 -0.000000)
 34:   3217.38   0.000843    4.26  0.000082  (-0.000000  0.009040  0.000000)
 35:   3217.64   0.000247    1.25  0.000024  ( 0.004898  0.000001 -0.000000)

--------------------------
THERMOCHEMISTRY AT 298.15K
--------------------------

Temperature         ...   298.15 K
Pressure            ...     1.00 atm
Total Mass          ...   215.89 AMU
Quasi RRHO          ...     True
Cut-Off Frequency   ...     1.00 cm^-1

Throughout the following assumptions are being made:
  (1) The electronic state is orbitally nondegenerate
  (2) There are no thermally accessible electronically excited states
  (3) Hindered rotations indicated by low frequency modes are not
      treated as such but are treated as vibrations and this may
      cause some error
  (4) All equations used are the standard statistical mechanics
      equations for an ideal gas
  (5) All vibrations are strictly harmonic

freq.      79.61  E(vib)   ...       0.49
freq.     146.88  E(vib)   ...       0.41
freq.     194.40  E(vib)   ...       0.36
freq.     206.30  E(vib)   ...       0.35
freq.     206.80  E(vib)   ...       0.35
freq.     218.77  E(vib)   ...       0.33
freq.     317.63  E(vib)   ...       0.25
freq.     324.96  E(vib)   ...       0.24
freq.     372.58  E(vib)   ...       0.21
freq.     437.20  E(vib)   ...       0.17
freq.     528.53  E(vib)   ...       0.13
freq.     534.44  E(vib)   ...       0.13
freq.     573.20  E(vib)   ...       0.11
freq.     589.85  E(vib)   ...       0.10
freq.     710.87  E(vib)   ...       0.07
freq.     799.04  E(vib)   ...       0.05
freq.     822.72  E(vib)   ...       0.05
freq.     867.34  E(vib)   ...       0.04
freq.     871.07  E(vib)   ...       0.04
freq.    1050.31  E(vib)   ...       0.02
freq.    1129.23  E(vib)   ...       0.01
freq.    1162.87  E(vib)   ...       0.01
freq.    1208.36  E(vib)   ...       0.01
freq.    1312.29  E(vib)   ...       0.01
freq.    1393.11  E(vib)   ...       0.00
freq.    1428.63  E(vib)   ...       0.00
freq.    1572.00  E(vib)   ...       0.00
freq.    1582.11  E(vib)   ...       0.00
freq.    3217.38  E(vib)   ...       0.00
freq.    3217.64  E(vib)   ...       0.00

------------
INNER ENERGY
------------

The inner energy is: U= E(el) + E(ZPE) + E(vib) + E(rot) + E(trans)
    E(el)   - is the total energy from the electronic structure calculation
              = E(kin-el) + E(nuc-el) + E(el-el) + E(nuc-nuc)
    E(ZPE)  - the the zero temperature vibrational energy from the frequency calculation
    E(vib)  - the the finite temperature correction to E(ZPE) due to population
              of excited vibrational states
    E(rot)  - is the rotational thermal energy
    E(trans)- is the translational thermal energy

Summary of contributions to the inner energy U:
Electronic energy                ...  -2070.53639640 Eh
Zero point energy                ...      0.06168401 Eh      38.71 kcal/mol
Thermal vibrational correction   ...      0.00627158 Eh       3.94 kcal/mol
Thermal rotational correction    ...      0.00141627 Eh       0.89 kcal/mol
Thermal translational correction ...      0.00141627 Eh       0.89 kcal/mol
-----------------------------------------------------------------------
Total thermal energy                  -2070.46560827 Eh

Summary of corrections to the electronic energy:
(perhaps to be used in another calculation)
Total thermal correction                  0.00910412 Eh       5.71 kcal/mol
Non-thermal (ZPE) correction              0.06168401 Eh      38.71 kcal/mol
-----------------------------------------------------------------------
Total correction                          0.07078813 Eh      44.42 kcal/mol

--------
ENTHALPY
--------

The enthalpy is H = U + kB*T
                kB is Boltzmann's constant
Total thermal energy              ...  -2070.46560827 Eh
Thermal Enthalpy correction       ...      0.00094421 Eh       0.59 kcal/mol
-----------------------------------------------------------------------
Total Enthalpy                    ...  -2070.46466406 Eh

Note: Rotational entropy computed according to Herzberg
Infrared and Raman Spectra, Chapter V,1, Van Nostrand Reinhold, 1945
Point Group:  C2v, Symmetry Number:   2
Rotational constants in cm-1:     0.027822     0.019172     0.011351

Vibrational entropy computed according to the QRRHO of S. Grimme
Chem.Eur.J. 2012 18 9955 using a reference frequency of 100.0 cm-1

-------
ENTROPY
-------

The entropy contributions are T*S = T*(S(el)+S(vib)+S(rot)+S(trans))
     S(el)   - electronic entropy
     S(vib)  - vibrational entropy
     S(rot)  - rotational entropy
     S(trans)- translational entropy
The entropies will be listed as multiplied by the temperature to get
units of energy

Electronic entropy                ...      0.00000000 Eh      0.00 kcal/mol
Vibrational entropy               ...      0.01057859 Eh      6.64 kcal/mol
Rotational entropy                ...      0.01452838 Eh      9.12 kcal/mol
Translational entropy             ...      0.01996123 Eh     12.53 kcal/mol
-----------------------------------------------------------------------
Final entropy term                ...      0.04506820 Eh     28.28 kcal/mol

In case the symmetry of your molecule has not been determined correctly
or in case you have a reason to use a different symmetry number we print
out the resulting rotational entropy values for sn=1,12:

 non-linear molecules -----------------------------------
|  sn= 1 | S(rot)=       0.01518284 Eh      9.53 kcal/mol|
|  sn= 2 | S(rot)=       0.01452838 Eh      9.12 kcal/mol|
|  sn= 3 | S(rot)=       0.01414555 Eh      8.88 kcal/mol|
|  sn= 4 | S(rot)=       0.01387393 Eh      8.71 kcal/mol|
|  sn= 5 | S(rot)=       0.01366324 Eh      8.57 kcal/mol|
|  sn= 6 | S(rot)=       0.01349110 Eh      8.47 kcal/mol|
|  sn= 7 | S(rot)=       0.01334555 Eh      8.37 kcal/mol|
|  sn= 8 | S(rot)=       0.01321947 Eh      8.30 kcal/mol|
|  sn= 9 | S(rot)=       0.01310826 Eh      8.23 kcal/mol|
|  sn=10 | S(rot)=       0.01300878 Eh      8.16 kcal/mol|
|  sn=11 | S(rot)=       0.01291879 Eh      8.11 kcal/mol|
|  sn=12 | S(rot)=       0.01283664 Eh      8.06 kcal/mol|
 linear molecules ---------------------------------------
|  Dinfh | S(rot)=       0.00955431 Eh      6.00 kcal/mol|
|  Cinfv | S(rot)=       0.01020877 Eh      6.41 kcal/mol|
 --------------------------------------------------------

-------------------
GIBBS FREE ENERGY
-------------------

The Gibbs free energy is G = H - T*S

Total enthalpy                    ...  -2070.46466406 Eh
Total entropy correction          ...     -0.04506820 Eh    -28.28 kcal/mol
-----------------------------------------------------------------------
Final Gibbs free energy         ...  -2070.50973227 Eh

For completeness - the Gibbs free energy minus the electronic energy
G-E(el)                           ...      0.02666414 Eh     16.73 kcal/mol

                             ****ORCA TERMINATED NORMALLY****
TOTAL RUN TIME: 0 days 0 hours 10 minutes 30 seconds 767 msec
