                         Program Version 6.0.1  -  RELEASE   -
|  1> ! r2scan-3c def2/J RI DEFGRID2 scfconv6 printgap
|  2> %output
|  3>     printlevel normal
|  4> end
|  5> * xyz 0 1
|  6> C -1.8342212555 1.4750015995 0.0002483654
|  7> C -0.5400166957 0.7191720108 -7.60201e-05
|  8> C 0.6695256334 1.4030402738 -0.0001984429
|  9> C 1.8643816701 0.7035641753 -5.64769e-05
| 10> C 1.8001323078 -0.6794987973 0.0002671394
| 11> N 0.6609534484 -1.3446785738 3.60972e-05
| 12> C -0.4875825459 -0.6806368567 -0.0002383859
| 13> C -1.7118032038 -1.5463971417 -7.37443e-05
| 14> H -2.4259196819 1.2271230637 0.8806925106
| 15> H -1.6456549423 2.5462158437 0.0043015861
| 16> H -2.4223958477 1.2333618848 -0.8843366713
| 17> H 0.6729799623 2.4849018367 -0.0002384946
| 18> H 2.8129371142 1.2177878399 -0.0003187011
| 19> H 2.6955083346 -1.2877303466 9.88615e-05
| 20> H -1.6895899032 -2.1985310683 -0.87103448
| 21> H -1.6998147289 -2.1840528188 0.8818421436
| 22> H -2.628174492 -0.9672144275 -0.0099882187
| 23> *
| 24>
| 25>                          ****END OF INPUT****

CARTESIAN COORDINATES (ANGSTROEM)
---------------------------------
  C     -1.834221    1.475002    0.000248
  C     -0.540017    0.719172   -0.000076
  C      0.669526    1.403040   -0.000198
  C      1.864382    0.703564   -0.000056
  C      1.800132   -0.679499    0.000267
  N      0.660953   -1.344679    0.000036
  C     -0.487583   -0.680637   -0.000238
  C     -1.711803   -1.546397   -0.000074
  H     -2.425920    1.227123    0.880693
  H     -1.645655    2.546216    0.004302
  H     -2.422396    1.233362   -0.884337
  H      0.672980    2.484902   -0.000238
  H      2.812937    1.217788   -0.000319
  H      2.695508   -1.287730    0.000099
  H     -1.689590   -2.198531   -0.871034
  H     -1.699815   -2.184053    0.881842
  H     -2.628174   -0.967214   -0.009988

 Total Charge           Charge          ....    0
 Multiplicity           Mult            ....    1
 Number of Electrons    NEL             ....   58
 Basis Dimension        Dim             ....  202

ORBITAL ENERGIES
----------------

  NO   OCC          E(Eh)            E(eV)
   0   2.0000     -14.144391      -384.8884
   1   2.0000     -10.069131      -273.9950
   2   2.0000     -10.058137      -273.6958
   3   2.0000     -10.047875      -273.4166
   4   2.0000     -10.045094      -273.3409
   5   2.0000     -10.036204      -273.0990
   6   2.0000     -10.035324      -273.0751
   7   2.0000     -10.022835      -272.7352
   8   2.0000      -0.910850       -24.7855
   9   2.0000      -0.782134       -21.2829
  10   2.0000      -0.756181       -20.5767
  11   2.0000      -0.688324       -18.7302
  12   2.0000      -0.653582       -17.7849
  13   2.0000      -0.580905       -15.8072
  14   2.0000      -0.567018       -15.4293
  15   2.0000      -0.474842       -12.9211
  16   2.0000      -0.464390       -12.6367
  17   2.0000      -0.414098       -11.2682
  18   2.0000      -0.413892       -11.2626
  19   2.0000      -0.382641       -10.4122
  20   2.0000      -0.378986       -10.3127
  21   2.0000      -0.374303       -10.1853
  22   2.0000      -0.368443       -10.0258
  23   2.0000      -0.346920        -9.4402
  24   2.0000      -0.345862        -9.4114
  25   2.0000      -0.317965        -8.6523
  26   2.0000      -0.260394        -7.0857
  27   2.0000      -0.227740        -6.1971
  28   2.0000      -0.216145        -5.8816
  29   0.0000      -0.047071        -1.2809
  30   0.0000      -0.031140        -0.8474
  31   0.0000       0.075081         2.0430
  32   0.0000       0.094808         2.5798
  33   0.0000       0.104838         2.8528

MULLIKEN ATOMIC CHARGES
-----------------------
   0 C :   -0.575299
   1 C :    0.140140
   2 C :   -0.225584
   3 C :   -0.108328
   4 C :   -0.102710
   5 N :   -0.152315
   6 C :    0.231675
   7 C :   -0.623150
   8 H :    0.171115
   9 H :    0.148939
  10 H :    0.171259
  11 H :    0.145707
  12 H :    0.146989
  13 H :    0.132365
  14 H :    0.173168
  15 H :    0.173254
  16 H :    0.152774
Sum of atomic charges:    0.0000000

LOEWDIN ATOMIC CHARGES
----------------------
   0 C :   -0.391976
   1 C :   -0.078407
   2 C :   -0.125869
   3 C :   -0.154350
   4 C :    0.077305
   5 N :   -0.619069
   6 C :    0.133558
   7 C :   -0.359405
   8 H :    0.165604
   9 H :    0.159744
  10 H :    0.165623
  11 H :    0.168679
  12 H :    0.168986
  13 H :    0.183188
  14 H :    0.175194
  15 H :    0.175100
  16 H :    0.156095

  Mayer bond orders larger than 0.100000
B(  0-C ,  1-C ) :   0.7473 B(  0-C ,  8-H ) :   0.9813 B(  0-C ,  9-H ) :   0.9831
B(  0-C , 10-H ) :   0.9813 B(  1-C ,  2-C ) :   1.3811 B(  1-C ,  6-C ) :   1.4127
B(  2-C ,  3-C ) :   1.4450 B(  2-C , 11-H ) :   0.9458 B(  3-C ,  4-C ) :   1.3553
B(  3-C , 12-H ) :   0.9347 B(  4-C ,  5-N ) :   1.4627 B(  4-C , 13-H ) :   0.9821
B(  5-N ,  6-C ) :   1.3363 B(  6-C ,  7-C ) :   0.8617 B(  7-C , 14-H ) :   0.9665
B(  7-C , 15-H ) :   0.9657 B(  7-C , 16-H ) :   0.9933

Dispersion correction           -0.005363489
FINAL SINGLE POINT ENERGY      -326.822230272072

DIPOLE MOMENT
-------------

Method             : SCF
Type of density    : Electron Density
Multiplicity       :   1
Irrep              :   0
Energy             :  -326.8247640420781863 Eh
Relativity type    :
Basis              : AO
                                X                 Y                 Z
Electronic contribution:      5.620809075      -1.197087689      -0.000808655
Nuclear contribution   :     -5.935099304       1.936382678       0.000955757
                        -----------------------------------------
Total Dipole Moment    :     -0.314290229       0.739294990       0.000147102
                        -----------------------------------------
Magnitude (a.u.)       :      0.803327736
Magnitude (Debye)      :      2.041896833

Rotational constants in cm-1:             0.105485             0.076507             0.045084
Rotational constants in MHz :          3162.346260          2293.618200          1351.587898

                             ****ORCA TERMINATED NORMALLY****
TOTAL RUN TIME: 0 days 0 hours 0 minutes 17 seconds 476 msec
