                         Program Version 6.0.1  -  RELEASE   -
|  1> ! pbe def2-sv(p) def2/J RI DEFGRID1 loosescf d4 GCP(DFT/SV(P)) printgap
|  2> %output
|  3>     printlevel normal
|  4> end
|  5> * xyz 0 1
|  6> C -2.0354053347 -1.4196788601 -0.0835359679
|  7> C -0.9857306478 -0.5339234785 0.6056095755
|  8> H -1.4137241424 -0.1711602249 1.5493223019
|  9> C -0.6440278831 0.6822752281 -0.2648357047
| 10> H -0.549176943 0.3761666294 -1.3184529466
| 11> C 0.7004494638 1.2630863316 0.1905079314
| 12> H 0.6333662184 1.4639832686 1.2761615911
| 13> C 1.8105798094 0.2325770315 -0.0604785842
| 14> H 2.1773078725 0.3568456908 -1.0831425369
| 15> C 1.2486867755 -1.2050201774 0.0761326818
| 16> H 2.0227636665 -1.8279478477 0.5503857566
| 17> O 0.1605459129 -1.2898890965 0.9645994151
| 18> O 0.9277133479 -1.6825185662 -1.1951384634
| 19> O 2.9202082124 0.4137497869 0.7711286732
| 20> O 0.9947880604 2.4448736752 -0.4970916471
| 21> O -1.6158673502 1.6919932686 -0.1363487563
| 22> O -3.215823261 -0.6552923487 -0.2293188956
| 23> H -2.2124439715 -2.305909973 0.539215929
| 24> H -1.6583144076 -1.7389204558 -1.0640566569
| 25> H 0.7293756947 -2.6253160366 -1.1408633419
| 26> H 2.6233517488 0.4786519223 1.6871025829
| 27> H 0.177557798 2.9601081983 -0.5313976343
| 28> H -2.4813823502 1.2744488905 -0.2451412855
| 29> H -3.8988668063 -1.2046559239 -0.6272844668
| 30> *
| 31>
| 32>                          ****END OF INPUT****

CARTESIAN COORDINATES (ANGSTROEM)
---------------------------------
  C     -2.035405   -1.419679   -0.083536
  C     -0.985731   -0.533923    0.605610
  H     -1.413724   -0.171160    1.549322
  C     -0.644028    0.682275   -0.264836
  H     -0.549177    0.376167   -1.318453
  C      0.700449    1.263086    0.190508
  H      0.633366    1.463983    1.276162
  C      1.810580    0.232577   -0.060479
  H      2.177308    0.356846   -1.083143
  C      1.248687   -1.205020    0.076133
  H      2.022764   -1.827948    0.550386
  O      0.160546   -1.289889    0.964599
  O      0.927713   -1.682519   -1.195138
  O      2.920208    0.413750    0.771129
  O      0.994788    2.444874   -0.497092
  O     -1.615867    1.691993   -0.136349
  O     -3.215823   -0.655292   -0.229319
  H     -2.212444   -2.305910    0.539216
  H     -1.658314   -1.738920   -1.064057
  H      0.729376   -2.625316   -1.140863
  H      2.623352    0.478652    1.687103
  H      0.177558    2.960108   -0.531398
  H     -2.481382    1.274449   -0.245141
  H     -3.898867   -1.204656   -0.627284

 Total Charge           Charge          ....    0
 Multiplicity           Mult            ....    1
 Number of Electrons    NEL             ....   96
 Basis Dimension        Dim             ....  192

ORBITAL ENERGIES
----------------

  NO   OCC          E(Eh)            E(eV)
   0   2.0000     -18.779344      -511.0119
   1   2.0000     -18.774044      -510.8677
   2   2.0000     -18.768863      -510.7267
   3   2.0000     -18.747705      -510.1510
   4   2.0000     -18.743721      -510.0426
   5   2.0000     -18.735986      -509.8321
   6   2.0000      -9.984102      -271.6812
   7   2.0000      -9.947472      -270.6845
   8   2.0000      -9.945005      -270.6173
   9   2.0000      -9.936636      -270.3896
  10   2.0000      -9.935835      -270.3678
  11   2.0000      -9.934022      -270.3185
  12   2.0000      -0.986061       -26.8321
  13   2.0000      -0.952730       -25.9251
  14   2.0000      -0.937200       -25.5025
  15   2.0000      -0.925247       -25.1773
  16   2.0000      -0.917990       -24.9798
  17   2.0000      -0.906538       -24.6682
  18   2.0000      -0.704410       -19.1680
  19   2.0000      -0.690855       -18.7991
  20   2.0000      -0.624904       -17.0045
  21   2.0000      -0.581318       -15.8185
  22   2.0000      -0.563702       -15.3391
  23   2.0000      -0.517378       -14.0786
  24   2.0000      -0.509550       -13.8656
  25   2.0000      -0.495227       -13.4758
  26   2.0000      -0.476201       -12.9581
  27   2.0000      -0.470382       -12.7997
  28   2.0000      -0.442707       -12.0467
  29   2.0000      -0.419094       -11.4041
  30   2.0000      -0.410812       -11.1788
  31   2.0000      -0.400791       -10.9061
  32   2.0000      -0.385408       -10.4875
  33   2.0000      -0.380572       -10.3559
  34   2.0000      -0.368660       -10.0317
  35   2.0000      -0.353369        -9.6157
  36   2.0000      -0.332220        -9.0402
  37   2.0000      -0.321881        -8.7588
  38   2.0000      -0.307086        -8.3562
  39   2.0000      -0.291171        -7.9232
  40   2.0000      -0.284147        -7.7320
  41   2.0000      -0.267444        -7.2775
  42   2.0000      -0.256133        -6.9697
  43   2.0000      -0.243219        -6.6183
  44   2.0000      -0.229523        -6.2457
  45   2.0000      -0.225226        -6.1287
  46   2.0000      -0.211681        -5.7601
  47   2.0000      -0.201925        -5.4947
  48   0.0000       0.001657         0.0451
  49   0.0000       0.018083         0.4921
  50   0.0000       0.036931         1.0049
  51   0.0000       0.057273         1.5585
  52   0.0000       0.065614         1.7855

MULLIKEN ATOMIC CHARGES
-----------------------
   0 C :    0.048566
   1 C :    0.038047
   2 H :    0.077234
   3 C :   -0.003700
   4 H :    0.071011
   5 C :    0.069860
   6 H :    0.031872
   7 C :    0.113862
   8 H :    0.085475
   9 C :    0.125352
  10 H :    0.067718
  11 O :   -0.316055
  12 O :   -0.388745
  13 O :   -0.412200
  14 O :   -0.408531
  15 O :   -0.433327
  16 O :   -0.447639
  17 H :    0.082386
  18 H :    0.069998
  19 H :    0.303280
  20 H :    0.295219
  21 H :    0.305943
  22 H :    0.310058
  23 H :    0.314317
Sum of atomic charges:   -0.0000000

LOEWDIN ATOMIC CHARGES
----------------------
   0 C :   -0.134123
   1 C :   -0.068870
   2 H :    0.117854
   3 C :   -0.084821
   4 H :    0.108529
   5 C :   -0.065038
   6 H :    0.095884
   7 C :   -0.071202
   8 H :    0.130634
   9 C :   -0.012654
  10 H :    0.099984
  11 O :   -0.146881
  12 O :   -0.306358
  13 O :   -0.304782
  14 O :   -0.313782
  15 O :   -0.328954
  16 O :   -0.337825
  17 H :    0.100592
  18 H :    0.097497
  19 H :    0.284564
  20 H :    0.281363
  21 H :    0.284351
  22 H :    0.278666
  23 H :    0.295373

  Mayer bond orders larger than 0.100000
B(  0-C ,  1-C ) :   1.0732 B(  0-C , 16-O ) :   1.0449 B(  0-C , 17-H ) :   0.9163
B(  0-C , 18-H ) :   0.9030 B(  1-C ,  2-H ) :   0.8822 B(  1-C ,  3-C ) :   0.9749
B(  1-C , 11-O ) :   0.9834 B(  3-C ,  4-H ) :   0.8790 B(  3-C ,  5-C ) :   1.0510
B(  3-C , 15-O ) :   1.0682 B(  5-C ,  6-H ) :   0.8488 B(  5-C ,  7-C ) :   1.0275
B(  5-C , 14-O ) :   1.1131 B(  7-C ,  8-H ) :   0.8629 B(  7-C ,  9-C ) :   0.9805
B(  7-C , 13-O ) :   1.0494 B(  9-C , 10-H ) :   0.8986 B(  9-C , 11-O ) :   1.0605
B(  9-C , 12-O ) :   1.0920 B( 12-O , 19-H ) :   0.8356 B( 13-O , 20-H ) :   0.8508
B( 14-O , 21-H ) :   0.8318 B( 15-O , 22-H ) :   0.8112 B( 16-O , 23-H ) :   0.8430

Dispersion correction           -0.024675238
FINAL SINGLE POINT ENERGY      -685.693420898639

DIPOLE MOMENT
-------------

Method             : SCF
Type of density    : Electron Density
Multiplicity       :   1
Irrep              :   0
Energy             :  -685.8252819546571573 Eh
Relativity type    :
Basis              : AO
                                X                 Y                 Z
Electronic contribution:      2.115460133       1.337111612       0.449866969
Nuclear contribution   :     -3.609587452      -2.766787737      -0.387687577
                        -----------------------------------------
Total Dipole Moment    :     -1.494127319      -1.429676124       0.062179392
                        -----------------------------------------
Magnitude (a.u.)       :      2.068878088
Magnitude (Debye)      :      5.258670186

Rotational constants in cm-1:             0.044185             0.026375             0.019123
Rotational constants in MHz :          1324.637941           790.689620           573.293143

                             ****ORCA TERMINATED NORMALLY****
TOTAL RUN TIME: 0 days 0 hours 0 minutes 7 seconds 873 msec
