                         Program Version 6.0.1  -  RELEASE   -
|  1> ! r2scan-3c def2/J RI DEFGRID2 scfconv6 printgap
|  2> %output
|  3>     printlevel normal
|  4> end
|  5> * xyz 0 1
|  6> C -1.8544703235 0.0926691839 1.1203626531
|  7> O -1.2528147171 0.0520542141 -0.1550866388
|  8> S 0.3558297026 0.0824134324 -0.1984538602
|  9> O 0.8369702641 0.8150710992 0.933081269
| 10> O 0.7202050046 0.5013456816 -1.5079814445
| 11> C 0.7871598163 -1.6634219669 0.0082138537
| 12> H -2.0584788942 -0.9209831417 1.477222165
| 13> H -2.7906122712 0.6422064826 1.0275084351
| 14> H -1.1878625011 0.6046838743 1.8170509129
| 15> H 1.457966067 -1.7392284583 0.8527579279
| 16> H -0.12004249 -2.2251928207 0.1805782882
| 17> H 1.2681143535 -1.9876172992 -0.9038335039
| 18> *
| 19>
| 20>                          ****END OF INPUT****

CARTESIAN COORDINATES (ANGSTROEM)
---------------------------------
  C     -1.854470    0.092669    1.120363
  O     -1.252815    0.052054   -0.155087
  S      0.355830    0.082413   -0.198454
  O      0.836970    0.815071    0.933081
  O      0.720205    0.501346   -1.507981
  C      0.787160   -1.663422    0.008214
  H     -2.058479   -0.920983    1.477222
  H     -2.790612    0.642206    1.027508
  H     -1.187863    0.604684    1.817051
  H      1.457966   -1.739228    0.852758
  H     -0.120042   -2.225193    0.180578
  H      1.268114   -1.987617   -0.903834

 Total Charge           Charge          ....    0
 Multiplicity           Mult            ....    1
 Number of Electrons    NEL             ....   58
 Basis Dimension        Dim             ....  167

ORBITAL ENERGIES
----------------

  NO   OCC          E(Eh)            E(eV)
   0   2.0000     -88.790873     -2416.1225
   1   2.0000     -19.012460      -517.3553
   2   2.0000     -18.954212      -515.7703
   3   2.0000     -18.953196      -515.7427
   4   2.0000     -10.100698      -274.8540
   5   2.0000     -10.077919      -274.2341
   6   2.0000      -8.058576      -219.2850
   7   2.0000      -6.005991      -163.4313
   8   2.0000      -6.002608      -163.3393
   9   2.0000      -6.001942      -163.3211
  10   2.0000      -1.125772       -30.6338
  11   2.0000      -1.025105       -27.8945
  12   2.0000      -0.992125       -26.9971
  13   2.0000      -0.753412       -20.5014
  14   2.0000      -0.702285       -19.1101
  15   2.0000      -0.580852       -15.8058
  16   2.0000      -0.516957       -14.0671
  17   2.0000      -0.479271       -13.0416
  18   2.0000      -0.469884       -12.7862
  19   2.0000      -0.443921       -12.0797
  20   2.0000      -0.432630       -11.7725
  21   2.0000      -0.418383       -11.3848
  22   2.0000      -0.406400       -11.0587
  23   2.0000      -0.356420        -9.6987
  24   2.0000      -0.330527        -8.9941
  25   2.0000      -0.299594        -8.1524
  26   2.0000      -0.294461        -8.0127
  27   2.0000      -0.293918        -7.9979
  28   2.0000      -0.282838        -7.6964
  29   0.0000       0.017745         0.4829
  30   0.0000       0.042109         1.1458
  31   0.0000       0.054794         1.4910
  32   0.0000       0.057762         1.5718
  33   0.0000       0.091785         2.4976

MULLIKEN ATOMIC CHARGES
-----------------------
   0 C :   -0.282954
   1 O :   -0.261984
   2 S :    1.100381
   3 O :   -0.566468
   4 O :   -0.531175
   5 C :   -0.514498
   6 H :    0.139943
   7 H :    0.158345
   8 H :    0.188774
   9 H :    0.194227
  10 H :    0.178730
  11 H :    0.196680
Sum of atomic charges:    0.0000000

LOEWDIN ATOMIC CHARGES
----------------------
   0 C :   -0.054820
   1 O :   -0.615132
   2 S :    0.825498
   3 O :   -0.467147
   4 O :   -0.418644
   5 C :   -0.356615
   6 H :    0.160706
   7 H :    0.180686
   8 H :    0.193596
   9 H :    0.184211
  10 H :    0.180767
  11 H :    0.186894

  Mayer bond orders larger than 0.100000
B(  0-C ,  1-O ) :   0.8183 B(  0-C ,  6-H ) :   0.9620 B(  0-C ,  7-H ) :   0.9648
B(  0-C ,  8-H ) :   0.9610 B(  1-O ,  2-S ) :   0.9021 B(  2-S ,  3-O ) :   1.6733
B(  2-S ,  4-O ) :   1.8002 B(  2-S ,  5-C ) :   0.8426 B(  5-C ,  9-H ) :   0.9379
B(  5-C , 10-H ) :   0.9373 B(  5-C , 11-H ) :   0.9362

Dispersion correction           -0.003117056
FINAL SINGLE POINT ENERGY      -703.548240427306

DIPOLE MOMENT
-------------

Method             : SCF
Type of density    : Electron Density
Multiplicity       :   1
Irrep              :   0
Energy             :  -703.5647870646448609 Eh
Relativity type    :
Basis              : AO
                                X                 Y                 Z
Electronic contribution:      2.564260083       3.921711818      -3.371493136
Nuclear contribution   :     -3.224580134      -5.260393951       4.171001203
                        -----------------------------------------
Total Dipole Moment    :     -0.660320051      -1.338682133       0.799508067
                        -----------------------------------------
Magnitude (a.u.)       :      1.693312012
Magnitude (Debye)      :      4.304057086

Rotational constants in cm-1:             0.147262             0.088885             0.084450
Rotational constants in MHz :          4414.789394          2664.695070          2531.747362

                             ****ORCA TERMINATED NORMALLY****
TOTAL RUN TIME: 0 days 0 hours 0 minutes 18 seconds 357 msec
