                         Program Version 6.0.0  -   RELEASE  -
|  1> ! r2SCAN-3c DEF2-TZVP FREQ
|  2> * xyzfile 0 1 censo.xyz
|  3>
|  4>                          ****END OF INPUT****

CARTESIAN COORDINATES (ANGSTROEM)
---------------------------------
  C     -0.669121   -2.187850   -0.000003
  C      0.204119   -0.971044   -0.000005
  C      1.599519   -1.082480   -0.000005
  C      2.426079    0.036506   -0.000001
  C      1.869340    1.311975    0.000001
  C      0.485780    1.462684    0.000001
  C     -0.315110    0.327580   -0.000000
  Cl    -2.068033    0.550622    0.000008
  H     -1.320275   -2.209452    0.880496
  H     -1.320389   -2.209377   -0.880418
  H     -0.057945   -3.092724   -0.000079
  H      2.035943   -2.077153   -0.000008
  H      3.503907   -0.089056    0.000000
  H      2.502707    2.193022    0.000002
  H      0.035815    2.449169    0.000002

 Total Charge           Charge          ....    0
 Multiplicity           Mult            ....    1
 Number of Electrons    NEL             ....   66
 Basis Dimension        Dim             ....  296

ORBITAL ENERGIES
----------------

  NO   OCC          E(Eh)            E(eV)
   0   2.0000    -101.188138     -2753.4692
   1   2.0000     -10.098903      -274.8051
   2   2.0000     -10.060391      -273.7572
   3   2.0000     -10.047768      -273.4137
   4   2.0000     -10.046510      -273.3794
   5   2.0000     -10.046459      -273.3781
   6   2.0000     -10.044801      -273.3329
   7   2.0000     -10.034986      -273.0659
   8   2.0000      -9.364189      -254.8125
   9   2.0000      -7.108974      -193.4450
  10   2.0000      -7.099310      -193.1821
  11   2.0000      -7.098659      -193.1643
  12   2.0000      -0.856820       -23.3152
  13   2.0000      -0.799174       -21.7466
  14   2.0000      -0.750611       -20.4252
  15   2.0000      -0.704767       -19.1777
  16   2.0000      -0.660521       -17.9737
  17   2.0000      -0.581906       -15.8345
  18   2.0000      -0.559375       -15.2214
  19   2.0000      -0.484112       -13.1734
  20   2.0000      -0.449146       -12.2219
  21   2.0000      -0.431569       -11.7436
  22   2.0000      -0.403465       -10.9789
  23   2.0000      -0.399938       -10.8829
  24   2.0000      -0.390043       -10.6136
  25   2.0000      -0.364911        -9.9297
  26   2.0000      -0.352499        -9.5920
  27   2.0000      -0.331283        -9.0147
  28   2.0000      -0.325378        -8.8540
  29   2.0000      -0.309835        -8.4310
  30   2.0000      -0.282697        -7.6926
  31   2.0000      -0.241344        -6.5673
  32   2.0000      -0.227233        -6.1833
  33   0.0000      -0.044201        -1.2028
  34   0.0000      -0.041168        -1.1202
  35   0.0000       0.001744         0.0474
  36   0.0000       0.060310         1.6411
  37   0.0000       0.073233         1.9928

MULLIKEN ATOMIC CHARGES
-----------------------
   0 C :   -0.315911
   1 C :    0.093447
   2 C :   -0.164931
   3 C :   -0.109763
   4 C :   -0.108745
   5 C :   -0.178103
   6 C :    0.100401
   7 Cl:   -0.127086
   8 H :    0.124932
   9 H :    0.124932
  10 H :    0.107293
  11 H :    0.105079
  12 H :    0.111985
  13 H :    0.113408
  14 H :    0.123063
Sum of atomic charges:    0.0000000

LOEWDIN ATOMIC CHARGES
----------------------
   0 C :   -0.259335
   1 C :   -0.176718
   2 C :   -0.112388
   3 C :   -0.142432
   4 C :   -0.139775
   5 C :   -0.144548
   6 C :   -0.373702
   7 Cl:    0.371245
   8 H :    0.132711
   9 H :    0.132710
  10 H :    0.126982
  11 H :    0.146991
  12 H :    0.144538
  13 H :    0.145259
  14 H :    0.148462

  Mayer bond orders larger than 0.100000
B(  0-C ,  1-C ) :   0.9479 B(  0-C ,  8-H ) :   0.9584 B(  0-C ,  9-H ) :   0.9584
B(  0-C , 10-H ) :   0.9781 B(  1-C ,  2-C ) :   1.3452 B(  1-C ,  6-C ) :   1.2666
B(  2-C ,  3-C ) :   1.4107 B(  2-C , 11-H ) :   0.9681 B(  3-C ,  4-C ) :   1.3870
B(  3-C , 12-H ) :   0.9719 B(  4-C ,  5-C ) :   1.3834 B(  4-C , 13-H ) :   0.9692
B(  5-C ,  6-C ) :   1.3805 B(  5-C , 14-H ) :   0.9689 B(  6-C ,  7-Cl) :   1.0382

Dispersion correction           -0.005253045
FINAL SINGLE POINT ENERGY      -731.092126181058

DIPOLE MOMENT
-------------

Method             : SCF
Type of density    : Electron Density
Multiplicity       :   1
Irrep              :   0
Energy             :  -731.0923253687760734 Eh
Relativity type    :
Basis              : AO
                                X                 Y                 Z
Electronic contribution:     -7.296795002       5.274118948       0.000023478
Nuclear contribution   :      7.848749629      -5.512904005      -0.000021620
                        -----------------------------------------
Total Dipole Moment    :      0.551954627      -0.238785057       0.000001857
                        -----------------------------------------
Magnitude (a.u.)       :      0.601391897
Magnitude (Debye)      :      1.528616721

VIBRATIONAL FREQUENCIES
-----------------------

Scaling factor for frequencies =  1.000000000  (already applied!)

     0:       0.00 cm**-1
     1:       0.00 cm**-1
     2:       0.00 cm**-1
     3:       0.00 cm**-1
     4:       0.00 cm**-1
     5:       0.00 cm**-1
     6:     156.67 cm**-1
     7:     180.76 cm**-1
     8:     245.03 cm**-1
     9:     253.57 cm**-1
    10:     370.05 cm**-1
    11:     444.20 cm**-1
    12:     444.72 cm**-1
    13:     520.45 cm**-1
    14:     557.28 cm**-1
    15:     684.85 cm**-1
    16:     710.86 cm**-1
    17:     753.62 cm**-1
    18:     815.33 cm**-1
    19:     862.79 cm**-1
    20:     935.33 cm**-1
    21:     962.75 cm**-1
    22:    1008.71 cm**-1
    23:    1047.15 cm**-1
    24:    1056.84 cm**-1
    25:    1064.39 cm**-1
    26:    1149.61 cm**-1
    27:    1182.49 cm**-1
    28:    1228.70 cm**-1
    29:    1296.64 cm**-1
    30:    1331.27 cm**-1
    31:    1407.76 cm**-1
    32:    1451.98 cm**-1
    33:    1474.64 cm**-1
    34:    1490.00 cm**-1
    35:    1500.61 cm**-1
    36:    1596.10 cm**-1
    37:    1623.66 cm**-1
    38:    3011.95 cm**-1
    39:    3074.58 cm**-1
    40:    3109.43 cm**-1
    41:    3155.66 cm**-1
    42:    3167.79 cm**-1
    43:    3180.43 cm**-1
    44:    3191.24 cm**-1

IR SPECTRUM
-----------

 Mode   freq       eps      Int      T**2         TX        TY        TZ
       cm**-1   L/(mol*cm) km/mol    a.u.
----------------------------------------------------------------------------
  6:    156.67   0.000074    0.38  0.000148  ( 0.000000 -0.000001  0.012177)
  7:    180.76   0.000078    0.39  0.000134  (-0.000002  0.000006 -0.011567)
  8:    245.03   0.000544    2.75  0.000693  (-0.000003  0.000005  0.026325)
  9:    253.57   0.000168    0.85  0.000207  ( 0.008965 -0.011245  0.000006)
 10:    370.05   0.000734    3.71  0.000619  ( 0.024850 -0.001144 -0.000000)
 11:    444.20   0.000348    1.76  0.000244  (-0.015634 -0.000188  0.000007)
 12:    444.72   0.000915    4.62  0.000642  ( 0.000004  0.000001  0.025334)
 13:    520.45   0.000000    0.00  0.000000  (-0.000000 -0.000001 -0.000354)
 14:    557.28   0.000641    3.24  0.000359  (-0.015248  0.011250 -0.000000)
 15:    684.85   0.003690   18.65  0.001681  ( 0.040596 -0.005784  0.000000)
 16:    710.86   0.000567    2.87  0.000249  ( 0.000000 -0.000001 -0.015779)
 17:    753.62   0.011583   58.54  0.004797  (-0.000000  0.000000 -0.069257)
 18:    815.33   0.000887    4.48  0.000340  (-0.015853  0.009396 -0.000001)
 19:    862.79   0.000019    0.10  0.000007  (-0.000000 -0.000000  0.002642)
 20:    935.33   0.000222    1.12  0.000074  (-0.000000 -0.000000 -0.008601)
 21:    962.75   0.000001    0.01  0.000000  ( 0.000000 -0.000000  0.000628)
 22:   1008.71   0.000812    4.10  0.000251  (-0.013801 -0.007794 -0.000000)
 23:   1047.15   0.013033   65.86  0.003884  (-0.061836  0.007764  0.000001)
 24:   1056.84   0.000408    2.06  0.000120  ( 0.000002 -0.000002  0.010970)
 25:   1064.39   0.000799    4.04  0.000234  (-0.007417  0.013391  0.000000)
 26:   1149.61   0.000436    2.20  0.000118  (-0.008203 -0.007152  0.000000)
 27:   1182.49   0.000003    0.02  0.000001  ( 0.000892 -0.000023  0.000000)
 28:   1228.70   0.000263    1.33  0.000067  (-0.008148 -0.000695  0.000000)
 29:   1296.64   0.000176    0.89  0.000042  (-0.000774 -0.006464  0.000000)
 30:   1331.27   0.000215    1.09  0.000050  (-0.004240  0.005695  0.000000)
 31:   1407.76   0.000547    2.77  0.000121  (-0.007386 -0.008172  0.000001)
 32:   1451.98   0.001203    6.08  0.000259  ( 0.015777 -0.003112 -0.000001)
 33:   1474.64   0.001845    9.33  0.000391  (-0.000002 -0.000001 -0.019761)
 34:   1490.00   0.002729   13.79  0.000572  (-0.000235  0.023908  0.000001)
 35:   1500.61   0.007657   38.70  0.001592  (-0.039889  0.001084  0.000001)
 36:   1596.10   0.001808    9.14  0.000354  ( 0.016341 -0.009301 -0.000000)
 37:   1623.66   0.000339    1.71  0.000065  (-0.005836  0.005569  0.000000)
 38:   3011.95   0.003546   17.92  0.000367  ( 0.009331  0.016744 -0.000001)
 39:   3074.58   0.001788    9.04  0.000181  (-0.000000 -0.000002 -0.013471)
 40:   3109.43   0.003057   15.45  0.000307  ( 0.009350 -0.014811 -0.000000)
 41:   3155.66   0.000896    4.53  0.000089  (-0.000456  0.009404  0.000000)
 42:   3167.79   0.001630    8.24  0.000161  ( 0.001598 -0.012570 -0.000000)
 43:   3180.43   0.002446   12.36  0.000240  (-0.015250  0.002737  0.000000)
 44:   3191.24   0.001006    5.09  0.000098  (-0.006358 -0.007615 -0.000000)

--------------------------
THERMOCHEMISTRY AT 298.15K
--------------------------

Temperature         ...   298.15 K
Pressure            ...     1.00 atm
Total Mass          ...   126.59 AMU
Quasi RRHO          ...     True
Cut-Off Frequency   ...     1.00 cm^-1

Throughout the following assumptions are being made:
  (1) The electronic state is orbitally nondegenerate
  (2) There are no thermally accessible electronically excited states
  (3) Hindered rotations indicated by low frequency modes are not
      treated as such but are treated as vibrations and this may
      cause some error
  (4) All equations used are the standard statistical mechanics
      equations for an ideal gas
  (5) All vibrations are strictly harmonic

freq.     156.67  E(vib)   ...       0.40
freq.     180.76  E(vib)   ...       0.37
freq.     245.03  E(vib)   ...       0.31
freq.     253.57  E(vib)   ...       0.30
freq.     370.05  E(vib)   ...       0.21
freq.     444.20  E(vib)   ...       0.17
freq.     444.72  E(vib)   ...       0.17
freq.     520.45  E(vib)   ...       0.13
freq.     557.28  E(vib)   ...       0.12
freq.     684.85  E(vib)   ...       0.07
freq.     710.86  E(vib)   ...       0.07
freq.     753.62  E(vib)   ...       0.06
freq.     815.33  E(vib)   ...       0.05
freq.     862.79  E(vib)   ...       0.04
freq.     935.33  E(vib)   ...       0.03
freq.     962.75  E(vib)   ...       0.03
freq.    1008.71  E(vib)   ...       0.02
freq.    1047.15  E(vib)   ...       0.02
freq.    1056.84  E(vib)   ...       0.02
freq.    1064.39  E(vib)   ...       0.02
freq.    1149.61  E(vib)   ...       0.01
freq.    1182.49  E(vib)   ...       0.01
freq.    1228.70  E(vib)   ...       0.01
freq.    1296.64  E(vib)   ...       0.01
freq.    1331.27  E(vib)   ...       0.01
freq.    1407.76  E(vib)   ...       0.00
freq.    1451.98  E(vib)   ...       0.00
freq.    1474.64  E(vib)   ...       0.00
freq.    1490.00  E(vib)   ...       0.00
freq.    1500.61  E(vib)   ...       0.00
freq.    1596.10  E(vib)   ...       0.00
freq.    1623.66  E(vib)   ...       0.00
freq.    3011.95  E(vib)   ...       0.00
freq.    3074.58  E(vib)   ...       0.00
freq.    3109.43  E(vib)   ...       0.00
freq.    3155.66  E(vib)   ...       0.00
freq.    3167.79  E(vib)   ...       0.00
freq.    3180.43  E(vib)   ...       0.00
freq.    3191.24  E(vib)   ...       0.00

------------
INNER ENERGY
------------

The inner energy is: U= E(el) + E(ZPE) + E(vib) + E(rot) + E(trans)
    E(el)   - is the total energy from the electronic structure calculation
              = E(kin-el) + E(nuc-el) + E(el-el) + E(nuc-nuc)
    E(ZPE)  - the the zero temperature vibrational energy from the frequency calculation
    E(vib)  - the the finite temperature correction to E(ZPE) due to population
              of excited vibrational states
    E(rot)  - is the rotational thermal energy
    E(trans)- is the translational thermal energy

Summary of contributions to the inner energy U:
Electronic energy                ...   -731.09212618 Eh
Zero point energy                ...      0.11778104 Eh      73.91 kcal/mol
Thermal vibrational correction   ...      0.00424994 Eh       2.67 kcal/mol
Thermal rotational correction    ...      0.00141627 Eh       0.89 kcal/mol
Thermal translational correction ...      0.00141627 Eh       0.89 kcal/mol
-----------------------------------------------------------------------
Total thermal energy                   -730.96726266 Eh

Summary of corrections to the electronic energy:
(perhaps to be used in another calculation)
Total thermal correction                  0.00708248 Eh       4.44 kcal/mol
Non-thermal (ZPE) correction              0.11778104 Eh      73.91 kcal/mol
-----------------------------------------------------------------------
Total correction                          0.12486352 Eh      78.35 kcal/mol

--------
ENTHALPY
--------

The enthalpy is H = U + kB*T
                kB is Boltzmann's constant
Total thermal energy              ...   -730.96726266 Eh
Thermal Enthalpy correction       ...      0.00094421 Eh       0.59 kcal/mol
-----------------------------------------------------------------------
Total Enthalpy                    ...   -730.96631845 Eh

Note: Only C1 symmetry has been detected, increase convergence thresholds
      if your molecule has a higher symmetry. Symmetry factor of 1.0 is
      used for the rotational entropy correction.

Note: Rotational entropy computed according to Herzberg
Infrared and Raman Spectra, Chapter V,1, Van Nostrand Reinhold, 1945
Point Group:  C1, Symmetry Number:   1
Rotational constants in cm-1:     0.094921     0.050642     0.033227

Vibrational entropy computed according to the QRRHO of S. Grimme
Chem.Eur.J. 2012 18 9955 using a reference frequency of 100.0 cm-1

-------
ENTROPY
-------

The entropy contributions are T*S = T*(S(el)+S(vib)+S(rot)+S(trans))
     S(el)   - electronic entropy
     S(vib)  - vibrational entropy
     S(rot)  - rotational entropy
     S(trans)- translational entropy
The entropies will be listed as multiplied by the temperature to get
units of energy

Electronic entropy                ...      0.00000000 Eh      0.00 kcal/mol
Vibrational entropy               ...      0.00677017 Eh      4.25 kcal/mol
Rotational entropy                ...      0.01363786 Eh      8.56 kcal/mol
Translational entropy             ...      0.01920513 Eh     12.05 kcal/mol
-----------------------------------------------------------------------
Final entropy term                ...      0.03961316 Eh     24.86 kcal/mol

In case the symmetry of your molecule has not been determined correctly
or in case you have a reason to use a different symmetry number we print
out the resulting rotational entropy values for sn=1,12:

 non-linear molecules -----------------------------------
|  sn= 1 | S(rot)=       0.01363786 Eh      8.56 kcal/mol|
|  sn= 2 | S(rot)=       0.01298340 Eh      8.15 kcal/mol|
|  sn= 3 | S(rot)=       0.01260057 Eh      7.91 kcal/mol|
|  sn= 4 | S(rot)=       0.01232895 Eh      7.74 kcal/mol|
|  sn= 5 | S(rot)=       0.01211826 Eh      7.60 kcal/mol|
|  sn= 6 | S(rot)=       0.01194611 Eh      7.50 kcal/mol|
|  sn= 7 | S(rot)=       0.01180057 Eh      7.40 kcal/mol|
|  sn= 8 | S(rot)=       0.01167449 Eh      7.33 kcal/mol|
|  sn= 9 | S(rot)=       0.01156328 Eh      7.26 kcal/mol|
|  sn=10 | S(rot)=       0.01146380 Eh      7.19 kcal/mol|
|  sn=11 | S(rot)=       0.01137381 Eh      7.14 kcal/mol|
|  sn=12 | S(rot)=       0.01129166 Eh      7.09 kcal/mol|
 linear molecules ---------------------------------------
|  Dinfh | S(rot)=       0.00854017 Eh      5.36 kcal/mol|
|  Cinfv | S(rot)=       0.00919463 Eh      5.77 kcal/mol|
 --------------------------------------------------------

-------------------
GIBBS FREE ENERGY
-------------------

                             ****ORCA TERMINATED NORMALLY****
TOTAL RUN TIME: 0 days 0 hours 10 minutes 17 seconds 287 msec
