                         Program Version 6.0.0  -   RELEASE  -
|  1> ! r2SCAN-3c DEF2-TZVP FREQ
|  2> * xyzfile 0 1 vacuum_censo.xyz
|  3>
|  4>                          ****END OF INPUT****

CARTESIAN COORDINATES (ANGSTROEM)
---------------------------------
  C     -0.679398   -2.182096   -0.000005
  C      0.202189   -0.969391   -0.000019
  C      1.595380   -1.085774   -0.000032
  C      2.425788    0.029275   -0.000083
  C      1.872019    1.304860   -0.000104
  C      0.490124    1.458598   -0.000085
  C     -0.318157    0.328777   -0.000052
  Cl    -2.063098    0.555454   -0.000086
  H     -1.331809   -2.195600   -0.879220
  H     -0.077533   -3.093245    0.000373
  H     -1.332347   -2.195209    0.878811
  H      2.030225   -2.081191   -0.000009
  H      3.503054   -0.099297   -0.000103
  H      2.508548    2.183468   -0.000140
  H      0.038119    2.443673   -0.000104

 Total Charge           Charge          ....    0
 Multiplicity           Mult            ....    1
 Number of Electrons    NEL             ....   66
 Basis Dimension        Dim             ....  296

ORBITAL ENERGIES
----------------

  NO   OCC          E(Eh)            E(eV)
   0   2.0000    -101.188879     -2753.4894
   1   2.0000     -10.098056      -274.7821
   2   2.0000     -10.059784      -273.7406
   3   2.0000     -10.047090      -273.3952
   4   2.0000     -10.045946      -273.3641
   5   2.0000     -10.045876      -273.3622
   6   2.0000     -10.044317      -273.3198
   7   2.0000     -10.034622      -273.0559
   8   2.0000      -9.365006      -254.8348
   9   2.0000      -7.109783      -193.4670
  10   2.0000      -7.100126      -193.2043
  11   2.0000      -7.099462      -193.1862
  12   2.0000      -0.857775       -23.3412
  13   2.0000      -0.800287       -21.7769
  14   2.0000      -0.750212       -20.4143
  15   2.0000      -0.704790       -19.1783
  16   2.0000      -0.660290       -17.9674
  17   2.0000      -0.581656       -15.8277
  18   2.0000      -0.559378       -15.2214
  19   2.0000      -0.484245       -13.1770
  20   2.0000      -0.449132       -12.2215
  21   2.0000      -0.431605       -11.7446
  22   2.0000      -0.403314       -10.9747
  23   2.0000      -0.400354       -10.8942
  24   2.0000      -0.389661       -10.6032
  25   2.0000      -0.365074        -9.9342
  26   2.0000      -0.352603        -9.5948
  27   2.0000      -0.330587        -8.9957
  28   2.0000      -0.325781        -8.8649
  29   2.0000      -0.310596        -8.4518
  30   2.0000      -0.283042        -7.7020
  31   2.0000      -0.241142        -6.5618
  32   2.0000      -0.226976        -6.1763
  33   0.0000      -0.043867        -1.1937
  34   0.0000      -0.040618        -1.1053
  35   0.0000       0.003470         0.0944
  36   0.0000       0.060553         1.6477
  37   0.0000       0.073345         1.9958

MULLIKEN ATOMIC CHARGES
-----------------------
   0 C :   -0.316184
   1 C :    0.094971
   2 C :   -0.167838
   3 C :   -0.106171
   4 C :   -0.112203
   5 C :   -0.175618
   6 C :    0.097509
   7 Cl:   -0.122959
   8 H :    0.124610
   9 H :    0.107468
  10 H :    0.124608
  11 H :    0.104819
  12 H :    0.111997
  13 H :    0.112919
  14 H :    0.122072
Sum of atomic charges:   -0.0000000

LOEWDIN ATOMIC CHARGES
----------------------
   0 C :   -0.259487
   1 C :   -0.176384
   2 C :   -0.113010
   3 C :   -0.142479
   4 C :   -0.140206
   5 C :   -0.144618
   6 C :   -0.380481
   7 Cl:    0.379983
   8 H :    0.132415
   9 H :    0.126649
  10 H :    0.132408
  11 H :    0.147142
  12 H :    0.144536
  13 H :    0.145352
  14 H :    0.148180

  Mayer bond orders larger than 0.100000
B(  0-C ,  1-C ) :   0.9478 B(  0-C ,  8-H ) :   0.9587 B(  0-C ,  9-H ) :   0.9777
B(  0-C , 10-H ) :   0.9587 B(  1-C ,  2-C ) :   1.3463 B(  1-C ,  6-C ) :   1.2670
B(  2-C ,  3-C ) :   1.4108 B(  2-C , 11-H ) :   0.9683 B(  3-C ,  4-C ) :   1.3870
B(  3-C , 12-H ) :   0.9719 B(  4-C ,  5-C ) :   1.3845 B(  4-C , 13-H ) :   0.9697
B(  5-C ,  6-C ) :   1.3813 B(  5-C , 14-H ) :   0.9690 B(  6-C ,  7-Cl) :   1.0426

Dispersion correction           -0.005256794
FINAL SINGLE POINT ENERGY      -731.092271683142

DIPOLE MOMENT
-------------

Method             : SCF
Type of density    : Electron Density
Multiplicity       :   1
Irrep              :   0
Energy             :  -731.0924897002009857 Eh
Relativity type    :
Basis              : AO
                                X                 Y                 Z
Electronic contribution:     -7.268203472       5.284700003      -0.000096577
Nuclear contribution   :      7.803965004      -5.521593279       0.000078717
                        -----------------------------------------
Total Dipole Moment    :      0.535761531      -0.236893276      -0.000017860
                        -----------------------------------------
Magnitude (a.u.)       :      0.585797613
Magnitude (Debye)      :      1.488979200

VIBRATIONAL FREQUENCIES
-----------------------

Scaling factor for frequencies =  1.000000000  (already applied!)

     0:       0.00 cm**-1
     1:       0.00 cm**-1
     2:       0.00 cm**-1
     3:       0.00 cm**-1
     4:       0.00 cm**-1
     5:       0.00 cm**-1
     6:     154.41 cm**-1
     7:     178.49 cm**-1
     8:     243.85 cm**-1
     9:     255.26 cm**-1
    10:     371.20 cm**-1
    11:     442.31 cm**-1
    12:     446.19 cm**-1
    13:     519.25 cm**-1
    14:     557.84 cm**-1
    15:     687.68 cm**-1
    16:     709.51 cm**-1
    17:     753.31 cm**-1
    18:     815.58 cm**-1
    19:     862.88 cm**-1
    20:     935.27 cm**-1
    21:     962.61 cm**-1
    22:    1008.61 cm**-1
    23:    1052.24 cm**-1
    24:    1055.58 cm**-1
    25:    1066.44 cm**-1
    26:    1150.88 cm**-1
    27:    1183.11 cm**-1
    28:    1228.11 cm**-1
    29:    1297.62 cm**-1
    30:    1335.54 cm**-1
    31:    1406.18 cm**-1
    32:    1453.36 cm**-1
    33:    1474.27 cm**-1
    34:    1490.81 cm**-1
    35:    1501.71 cm**-1
    36:    1600.35 cm**-1
    37:    1625.48 cm**-1
    38:    3014.59 cm**-1
    39:    3077.68 cm**-1
    40:    3110.65 cm**-1
    41:    3155.60 cm**-1
    42:    3168.77 cm**-1
    43:    3182.29 cm**-1
    44:    3193.96 cm**-1

IR SPECTRUM
-----------

 Mode   freq       eps      Int      T**2         TX        TY        TZ
       cm**-1   L/(mol*cm) km/mol    a.u.
----------------------------------------------------------------------------
  6:    154.41   0.000073    0.37  0.000148  ( 0.000001 -0.000004 -0.012183)
  7:    178.49   0.000085    0.43  0.000149  (-0.000012  0.000031  0.012189)
  8:    243.85   0.000545    2.75  0.000697  (-0.000009  0.000022 -0.026400)
  9:    255.26   0.000158    0.80  0.000193  (-0.008596  0.010924  0.000022)
 10:    371.20   0.000645    3.26  0.000542  (-0.023258  0.001122  0.000000)
 11:    442.31   0.000914    4.62  0.000645  (-0.000009  0.000005 -0.025390)
 12:    446.19   0.000321    1.62  0.000225  (-0.014984 -0.000528  0.000001)
 13:    519.25   0.000000    0.00  0.000000  ( 0.000002 -0.000011  0.000524)
 14:    557.84   0.000589    2.97  0.000329  ( 0.014477 -0.010939 -0.000001)
 15:    687.68   0.003533   17.86  0.001603  (-0.039621  0.005785  0.000000)
 16:    709.51   0.000601    3.04  0.000264  (-0.000004  0.000002  0.016259)
 17:    753.31   0.011506   58.15  0.004767  (-0.000002 -0.000002  0.069041)
 18:    815.58   0.000871    4.40  0.000333  ( 0.015569 -0.009524 -0.000003)
 19:    862.88   0.000019    0.09  0.000007  (-0.000002  0.000002 -0.002587)
 20:    935.27   0.000224    1.13  0.000075  (-0.000000 -0.000001  0.008642)
 21:    962.61   0.000001    0.00  0.000000  ( 0.000001 -0.000001 -0.000424)
 22:   1008.61   0.000810    4.09  0.000251  ( 0.013677  0.007976 -0.000001)
 23:   1052.24   0.012600   63.67  0.003737  (-0.060684  0.007361 -0.000009)
 24:   1055.58   0.000415    2.10  0.000123  ( 0.000043 -0.000013 -0.011081)
 25:   1066.44   0.001013    5.12  0.000296  ( 0.010104 -0.013941  0.000001)
 26:   1150.88   0.000502    2.54  0.000136  ( 0.009331  0.007001  0.000001)
 27:   1183.11   0.000003    0.01  0.000001  (-0.000838 -0.000078  0.000000)
 28:   1228.11   0.000327    1.65  0.000083  ( 0.009104  0.000527  0.000002)
 29:   1297.62   0.000172    0.87  0.000041  ( 0.000945  0.006365  0.000001)
 30:   1335.54   0.000211    1.07  0.000049  ( 0.004332 -0.005528  0.000000)
 31:   1406.18   0.000554    2.80  0.000123  ( 0.007616  0.008057  0.000003)
 32:   1453.36   0.001096    5.54  0.000235  (-0.015030  0.003052 -0.000004)
 33:   1474.27   0.001875    9.47  0.000397  (-0.000010 -0.000003  0.019920)
 34:   1490.81   0.002763   13.96  0.000578  ( 0.002276 -0.023942  0.000008)
 35:   1501.71   0.007689   38.86  0.001598  ( 0.039974  0.000123  0.000002)
 36:   1600.35   0.001704    8.61  0.000332  (-0.015872  0.008967 -0.000000)
 37:   1625.48   0.000437    2.21  0.000084  ( 0.006852 -0.006074  0.000001)
 38:   3014.59   0.003601   18.20  0.000373  (-0.009269 -0.016938 -0.000005)
 39:   3077.68   0.001820    9.20  0.000185  (-0.000000 -0.000007  0.013585)
 40:   3110.65   0.002997   15.14  0.000301  (-0.009383  0.014580 -0.000001)
 41:   3155.60   0.001068    5.40  0.000106  ( 0.001014 -0.010226  0.000001)
 42:   3168.77   0.001530    7.73  0.000151  (-0.001493  0.012184 -0.000000)
 43:   3182.29   0.002547   12.87  0.000250  ( 0.015671 -0.002050 -0.000000)
 44:   3193.96   0.000927    4.69  0.000091  ( 0.005248  0.007940 -0.000000)

--------------------------
THERMOCHEMISTRY AT 298.15K
--------------------------

Temperature         ...   298.15 K
Pressure            ...     1.00 atm
Total Mass          ...   126.59 AMU
Quasi RRHO          ...     True
Cut-Off Frequency   ...     1.00 cm^-1

Throughout the following assumptions are being made:
  (1) The electronic state is orbitally nondegenerate
  (2) There are no thermally accessible electronically excited states
  (3) Hindered rotations indicated by low frequency modes are not
      treated as such but are treated as vibrations and this may
      cause some error
  (4) All equations used are the standard statistical mechanics
      equations for an ideal gas
  (5) All vibrations are strictly harmonic

freq.     154.41  E(vib)   ...       0.40
freq.     178.49  E(vib)   ...       0.37
freq.     243.85  E(vib)   ...       0.31
freq.     255.26  E(vib)   ...       0.30
freq.     371.20  E(vib)   ...       0.21
freq.     442.31  E(vib)   ...       0.17
freq.     446.19  E(vib)   ...       0.17
freq.     519.25  E(vib)   ...       0.13
freq.     557.84  E(vib)   ...       0.12
freq.     687.68  E(vib)   ...       0.07
freq.     709.51  E(vib)   ...       0.07
freq.     753.31  E(vib)   ...       0.06
freq.     815.58  E(vib)   ...       0.05
freq.     862.88  E(vib)   ...       0.04
freq.     935.27  E(vib)   ...       0.03
freq.     962.61  E(vib)   ...       0.03
freq.    1008.61  E(vib)   ...       0.02
freq.    1052.24  E(vib)   ...       0.02
freq.    1055.58  E(vib)   ...       0.02
freq.    1066.44  E(vib)   ...       0.02
freq.    1150.88  E(vib)   ...       0.01
freq.    1183.11  E(vib)   ...       0.01
freq.    1228.11  E(vib)   ...       0.01
freq.    1297.62  E(vib)   ...       0.01
freq.    1335.54  E(vib)   ...       0.01
freq.    1406.18  E(vib)   ...       0.00
freq.    1453.36  E(vib)   ...       0.00
freq.    1474.27  E(vib)   ...       0.00
freq.    1490.81  E(vib)   ...       0.00
freq.    1501.71  E(vib)   ...       0.00
freq.    1600.35  E(vib)   ...       0.00
freq.    1625.48  E(vib)   ...       0.00
freq.    3014.59  E(vib)   ...       0.00
freq.    3077.68  E(vib)   ...       0.00
freq.    3110.65  E(vib)   ...       0.00
freq.    3155.60  E(vib)   ...       0.00
freq.    3168.77  E(vib)   ...       0.00
freq.    3182.29  E(vib)   ...       0.00
freq.    3193.96  E(vib)   ...       0.00

------------
INNER ENERGY
------------

The inner energy is: U= E(el) + E(ZPE) + E(vib) + E(rot) + E(trans)
    E(el)   - is the total energy from the electronic structure calculation
              = E(kin-el) + E(nuc-el) + E(el-el) + E(nuc-nuc)
    E(ZPE)  - the the zero temperature vibrational energy from the frequency calculation
    E(vib)  - the the finite temperature correction to E(ZPE) due to population
              of excited vibrational states
    E(rot)  - is the rotational thermal energy
    E(trans)- is the translational thermal energy

Summary of contributions to the inner energy U:
Electronic energy                ...   -731.09227168 Eh
Zero point energy                ...      0.11784846 Eh      73.95 kcal/mol
Thermal vibrational correction   ...      0.00425479 Eh       2.67 kcal/mol
Thermal rotational correction    ...      0.00141627 Eh       0.89 kcal/mol
Thermal translational correction ...      0.00141627 Eh       0.89 kcal/mol
-----------------------------------------------------------------------
Total thermal energy                   -730.96733590 Eh

Summary of corrections to the electronic energy:
(perhaps to be used in another calculation)
Total thermal correction                  0.00708733 Eh       4.45 kcal/mol
Non-thermal (ZPE) correction              0.11784846 Eh      73.95 kcal/mol
-----------------------------------------------------------------------
Total correction                          0.12493579 Eh      78.40 kcal/mol

--------
ENTHALPY
--------

The enthalpy is H = U + kB*T
                kB is Boltzmann's constant
Total thermal energy              ...   -730.96733590 Eh
Thermal Enthalpy correction       ...      0.00094421 Eh       0.59 kcal/mol
-----------------------------------------------------------------------
Total Enthalpy                    ...   -730.96639169 Eh

Note: Only C1 symmetry has been detected, increase convergence thresholds
      if your molecule has a higher symmetry. Symmetry factor of 1.0 is
      used for the rotational entropy correction.

Note: Rotational entropy computed according to Herzberg
Infrared and Raman Spectra, Chapter V,1, Van Nostrand Reinhold, 1945
Point Group:  C1, Symmetry Number:   1
Rotational constants in cm-1:     0.095248     0.050716     0.033298

Vibrational entropy computed according to the QRRHO of S. Grimme
Chem.Eur.J. 2012 18 9955 using a reference frequency of 100.0 cm-1

-------
ENTROPY
-------

The entropy contributions are T*S = T*(S(el)+S(vib)+S(rot)+S(trans))
     S(el)   - electronic entropy
     S(vib)  - vibrational entropy
     S(rot)  - rotational entropy
     S(trans)- translational entropy
The entropies will be listed as multiplied by the temperature to get
units of energy

Electronic entropy                ...      0.00000000 Eh      0.00 kcal/mol
Vibrational entropy               ...      0.00678778 Eh      4.26 kcal/mol
Rotational entropy                ...      0.01363454 Eh      8.56 kcal/mol
Translational entropy             ...      0.01920513 Eh     12.05 kcal/mol
-----------------------------------------------------------------------
Final entropy term                ...      0.03962745 Eh     24.87 kcal/mol

In case the symmetry of your molecule has not been determined correctly
or in case you have a reason to use a different symmetry number we print
out the resulting rotational entropy values for sn=1,12:

 non-linear molecules -----------------------------------
|  sn= 1 | S(rot)=       0.01363454 Eh      8.56 kcal/mol|
|  sn= 2 | S(rot)=       0.01298009 Eh      8.15 kcal/mol|
|  sn= 3 | S(rot)=       0.01259726 Eh      7.90 kcal/mol|
|  sn= 4 | S(rot)=       0.01232563 Eh      7.73 kcal/mol|
|  sn= 5 | S(rot)=       0.01211494 Eh      7.60 kcal/mol|
|  sn= 6 | S(rot)=       0.01194280 Eh      7.49 kcal/mol|
|  sn= 7 | S(rot)=       0.01179725 Eh      7.40 kcal/mol|
|  sn= 8 | S(rot)=       0.01167117 Eh      7.32 kcal/mol|
|  sn= 9 | S(rot)=       0.01155997 Eh      7.25 kcal/mol|
|  sn=10 | S(rot)=       0.01146049 Eh      7.19 kcal/mol|
|  sn=11 | S(rot)=       0.01137050 Eh      7.14 kcal/mol|
|  sn=12 | S(rot)=       0.01128834 Eh      7.08 kcal/mol|
 linear molecules ---------------------------------------
|  Dinfh | S(rot)=       0.00853816 Eh      5.36 kcal/mol|
|  Cinfv | S(rot)=       0.00919261 Eh      5.77 kcal/mol|
 --------------------------------------------------------

-------------------
GIBBS FREE ENERGY
-------------------

                             ****ORCA TERMINATED NORMALLY****
TOTAL RUN TIME: 0 days 0 hours 10 minutes 17 seconds 833 msec
