                         Program Version 6.0.1  -  RELEASE   -
|  1> ! pbe def2-sv(p) def2/J RI DEFGRID1 loosescf d4 GCP(DFT/SV(P)) printgap
|  2> %output
|  3>     printlevel normal
|  4> end
|  5> * xyz 0 1
|  6> C -0.7314523558 5.4283e-06 3.109e-06
|  7> F 0.6326785644 2.3645e-06 7.256e-07
|  8> H -1.0696584044 -0.0576005975 -1.0352204371
|  9> H -1.0696448858 -0.8677714236 0.5674366442
| 10> H -1.0697513705 0.9252627631 0.4677330661
| 11> *
| 12>
| 13>                          ****END OF INPUT****

CARTESIAN COORDINATES (ANGSTROEM)
---------------------------------
  C     -0.731452    0.000005    0.000003
  F      0.632679    0.000002    0.000001
  H     -1.069658   -0.057601   -1.035220
  H     -1.069645   -0.867771    0.567437
  H     -1.069751    0.925263    0.467733

 Total Charge           Charge          ....    0
 Multiplicity           Mult            ....    1
 Number of Electrons    NEL             ....   18
 Basis Dimension        Dim             ....   34

ORBITAL ENERGIES
----------------

  NO   OCC          E(Eh)            E(eV)
   0   2.0000     -24.228942      -659.3030
   1   2.0000      -9.946700      -270.6635
   2   2.0000      -1.061506       -28.8850
   3   2.0000      -0.616499       -16.7758
   4   2.0000      -0.424542       -11.5524
   5   2.0000      -0.421288       -11.4638
   6   2.0000      -0.421278       -11.4636
   7   2.0000      -0.274845        -7.4789
   8   2.0000      -0.274837        -7.4787
   9   0.0000       0.051957         1.4138
  10   0.0000       0.093652         2.5484
  11   0.0000       0.109540         2.9807
  12   0.0000       0.109560         2.9813
  13   0.0000       0.422745        11.5035

MULLIKEN ATOMIC CHARGES
-----------------------
   0 C :   -0.055048
   1 F :   -0.253996
   2 H :    0.103004
   3 H :    0.103015
   4 H :    0.103025
Sum of atomic charges:    0.0000000

LOEWDIN ATOMIC CHARGES
----------------------
   0 C :   -0.165476
   1 F :   -0.144842
   2 H :    0.103437
   3 H :    0.103440
   4 H :    0.103440

  Mayer bond orders larger than 0.100000
B(  0-C ,  1-F ) :   1.0214 B(  0-C ,  2-H ) :   0.9569 B(  0-C ,  3-H ) :   0.9569
B(  0-C ,  4-H ) :   0.9568

Dispersion correction           -0.001050988
FINAL SINGLE POINT ENERGY      -139.439978221029

DIPOLE MOMENT
-------------

Method             : SCF
Type of density    : Electron Density
Multiplicity       :   1
Irrep              :   0
Energy             :  -139.4640438974864765 Eh
Relativity type    :
Basis              : AO
                                X                 Y                 Z
Electronic contribution:      2.963613869       0.000104728       0.000067929
Nuclear contribution   :     -3.596825620      -0.000104693      -0.000048263
                        -----------------------------------------
Total Dipole Moment    :     -0.633211751       0.000000034       0.000019667
                        -----------------------------------------
Magnitude (a.u.)       :      0.633211751
Magnitude (Debye)      :      1.609496362

Rotational constants in cm-1:             5.185858             0.881852             0.881851
Rotational constants in MHz :        155468.115704         26437.242959         26437.220189

                             ****ORCA TERMINATED NORMALLY****
TOTAL RUN TIME: 0 days 0 hours 0 minutes 2 seconds 601 msec
