                         Program Version 6.0.1  -  RELEASE   -
|  1> ! pbe def2-sv(p) def2/J RI DEFGRID1 loosescf d4 GCP(DFT/SV(P)) printgap
|  2> %output
|  3>     printlevel normal
|  4> end
|  5> * xyz 0 1
|  6> C -2.1112356723 0.4024552228 -0.4011997994
|  7> C -1.0079965174 0.0755426219 0.6060767666
|  8> C 0.0052188332 -0.8465233555 0.0023102477
|  9> C 1.2736784533 -0.5594237193 -0.2463002559
| 10> C 1.9468339084 0.7469684134 0.0507326455
| 11> H -2.6047968514 -0.5076257948 -0.7354896279
| 12> H -1.691242828 0.9027122594 -1.271102027
| 13> H -2.8568838014 1.0550579275 0.0475188422
| 14> H -0.5356069112 0.9996518166 0.9381196417
| 15> H -1.4569097571 -0.4100819266 1.4777004069
| 16> H -0.3770936979 -1.8239561977 -0.2637097564
| 17> H 1.8985412972 -1.3132763969 -0.706442186
| 18> H 3.0154571453 0.6768554672 -0.1331567438
| 19> H 1.7956392397 1.0386879179 1.0889808559
| 20> H 1.5437627654 1.5386974096 -0.5808885684
| 21> *
| 22>
| 23>                          ****END OF INPUT****

CARTESIAN COORDINATES (ANGSTROEM)
---------------------------------
  C     -2.111236    0.402455   -0.401200
  C     -1.007997    0.075543    0.606077
  C      0.005219   -0.846523    0.002310
  C      1.273678   -0.559424   -0.246300
  C      1.946834    0.746968    0.050733
  H     -2.604797   -0.507626   -0.735490
  H     -1.691243    0.902712   -1.271102
  H     -2.856884    1.055058    0.047519
  H     -0.535607    0.999652    0.938120
  H     -1.456910   -0.410082    1.477700
  H     -0.377094   -1.823956   -0.263710
  H      1.898541   -1.313276   -0.706442
  H      3.015457    0.676855   -0.133157
  H      1.795639    1.038688    1.088981
  H      1.543763    1.538697   -0.580889

 Total Charge           Charge          ....    0
 Multiplicity           Mult            ....    1
 Number of Electrons    NEL             ....   40
 Basis Dimension        Dim             ....   90

ORBITAL ENERGIES
----------------

  NO   OCC          E(Eh)            E(eV)
   0   2.0000      -9.884959      -268.9834
   1   2.0000      -9.879730      -268.8411
   2   2.0000      -9.877556      -268.7820
   3   2.0000      -9.876641      -268.7571
   4   2.0000      -9.874926      -268.7104
   5   2.0000      -0.723304       -19.6821
   6   2.0000      -0.671678       -18.2773
   7   2.0000      -0.605319       -16.4716
   8   2.0000      -0.546582       -14.8733
   9   2.0000      -0.465048       -12.6546
  10   2.0000      -0.430736       -11.7209
  11   2.0000      -0.386521       -10.5178
  12   2.0000      -0.378910       -10.3107
  13   2.0000      -0.364564        -9.9203
  14   2.0000      -0.335979        -9.1425
  15   2.0000      -0.324335        -8.8256
  16   2.0000      -0.321860        -8.7583
  17   2.0000      -0.295852        -8.0505
  18   2.0000      -0.278183        -7.5697
  19   2.0000      -0.208641        -5.6774
  20   0.0000      -0.008721        -0.2373
  21   0.0000       0.042001         1.1429
  22   0.0000       0.063399         1.7252
  23   0.0000       0.073818         2.0087
  24   0.0000       0.091315         2.4848

MULLIKEN ATOMIC CHARGES
-----------------------
   0 C :   -0.289242
   1 C :   -0.125372
   2 C :   -0.129978
   3 C :   -0.165070
   4 C :   -0.242596
   5 H :    0.100726
   6 H :    0.106139
   7 H :    0.103094
   8 H :    0.084759
   9 H :    0.092065
  10 H :    0.058658
  11 H :    0.065553
  12 H :    0.101794
  13 H :    0.121166
  14 H :    0.118304
Sum of atomic charges:    0.0000000

LOEWDIN ATOMIC CHARGES
----------------------
   0 C :   -0.334652
   1 C :   -0.231018
   2 C :   -0.146643
   3 C :   -0.159463
   4 C :   -0.343448
   5 H :    0.117384
   6 H :    0.119514
   7 H :    0.117806
   8 H :    0.118149
   9 H :    0.123996
  10 H :    0.116772
  11 H :    0.117727
  12 H :    0.124252
  13 H :    0.129169
  14 H :    0.130455

  Mayer bond orders larger than 0.100000
B(  0-C ,  1-C ) :   1.1304 B(  0-C ,  5-H ) :   0.9578 B(  0-C ,  6-H ) :   0.9573
B(  0-C ,  7-H ) :   0.9505 B(  1-C ,  2-C ) :   1.0923 B(  1-C ,  8-H ) :   0.9113
B(  1-C ,  9-H ) :   0.9105 B(  2-C ,  3-C ) :   2.0090 B(  2-C , 10-H ) :   0.9273
B(  3-C ,  4-C ) :   1.1098 B(  3-C , 11-H ) :   0.9304 B(  4-C , 12-H ) :   0.9466
B(  4-C , 13-H ) :   0.9380 B(  4-C , 14-H ) :   0.9370

Dispersion correction           -0.009870540
FINAL SINGLE POINT ENERGY      -196.029289507487

DIPOLE MOMENT
-------------

Method             : SCF
Type of density    : Electron Density
Multiplicity       :   1
Irrep              :   0
Energy             :  -196.0772377490978045 Eh
Relativity type    :
Basis              : AO
                                X                 Y                 Z
Electronic contribution:      1.163736560      -1.914684767       0.164120173
Nuclear contribution   :     -1.190654047       2.023357319      -0.129906651
                        -----------------------------------------
Total Dipole Moment    :     -0.026917487       0.108672553       0.034213522
                        -----------------------------------------
Magnitude (a.u.)       :      0.117067672
Magnitude (Debye)      :      0.297562375

Rotational constants in cm-1:             0.351398             0.091597             0.082879
Rotational constants in MHz :         10534.634726          2746.014370          2484.642221

                             ****ORCA TERMINATED NORMALLY****
TOTAL RUN TIME: 0 days 0 hours 0 minutes 6 seconds 147 msec
