                         Program Version 6.0.1  -  RELEASE   -
|  1> ! pbe def2-sv(p) def2/J RI DEFGRID1 loosescf d4 GCP(DFT/SV(P)) printgap
|  2> %output
|  3>     printlevel normal
|  4> end
|  5> * xyz 0 1
|  6> C -2.1437004904 -1.2593049652 -0.012265741
|  7> C -1.1879828091 -0.3647082599 0.8104465544
|  8> H -1.6761944523 -0.1212404787 1.7614014511
|  9> C -0.8734841089 0.9490577718 0.067061398
| 10> H -1.0703399346 0.8195604481 -1.008352219
| 11> C 0.6063234819 1.2904600824 0.2469660262
| 12> H 0.8230250233 1.3826510253 1.3229532043
| 13> C 1.4417323704 0.1517297132 -0.3421323701
| 14> H 1.2308024937 0.0858570378 -1.4213401627
| 15> C 1.0411228953 -1.1774384593 0.318409141
| 16> H 1.8878254862 -1.5186031107 0.9292579005
| 17> O -0.0163330287 -1.062690786 1.2256317945
| 18> O 0.7597345687 -2.1070735028 -0.6972280804
| 19> O 2.8097952463 0.3554330858 -0.1244129168
| 20> O 0.9520461159 2.4759782544 -0.423019336
| 21> O -1.6199900336 2.0397366804 0.5656883898
| 22> O -1.8193742667 -1.3422591131 -1.3699317343
| 23> H -3.1507005019 -0.8354052047 0.0313779083
| 24> H -2.1654695728 -2.2537222721 0.4561262669
| 25> H 0.6714734416 -2.9854923918 -0.3062790295
| 26> H 3.0061816021 1.2613875283 -0.397421913
| 27> H 0.2815642008 3.1325783376 -0.1970053687
| 28> H -2.5515465771 1.8981442983 0.3692330217
| 29> H -0.9072961751 -1.6781140406 -1.4426569526
| 30> *
| 31>
| 32>                          ****END OF INPUT****

CARTESIAN COORDINATES (ANGSTROEM)
---------------------------------
  C     -2.143700   -1.259305   -0.012266
  C     -1.187983   -0.364708    0.810447
  H     -1.676194   -0.121240    1.761401
  C     -0.873484    0.949058    0.067061
  H     -1.070340    0.819560   -1.008352
  C      0.606323    1.290460    0.246966
  H      0.823025    1.382651    1.322953
  C      1.441732    0.151730   -0.342132
  H      1.230802    0.085857   -1.421340
  C      1.041123   -1.177438    0.318409
  H      1.887825   -1.518603    0.929258
  O     -0.016333   -1.062691    1.225632
  O      0.759735   -2.107074   -0.697228
  O      2.809795    0.355433   -0.124413
  O      0.952046    2.475978   -0.423019
  O     -1.619990    2.039737    0.565688
  O     -1.819374   -1.342259   -1.369932
  H     -3.150701   -0.835405    0.031378
  H     -2.165470   -2.253722    0.456126
  H      0.671473   -2.985492   -0.306279
  H      3.006182    1.261388   -0.397422
  H      0.281564    3.132578   -0.197005
  H     -2.551547    1.898144    0.369233
  H     -0.907296   -1.678114   -1.442657

 Total Charge           Charge          ....    0
 Multiplicity           Mult            ....    1
 Number of Electrons    NEL             ....   96
 Basis Dimension        Dim             ....  192

ORBITAL ENERGIES
----------------

  NO   OCC          E(Eh)            E(eV)
   0   2.0000     -18.788913      -511.2723
   1   2.0000     -18.774625      -510.8835
   2   2.0000     -18.766613      -510.6655
   3   2.0000     -18.754250      -510.3291
   4   2.0000     -18.749354      -510.1959
   5   2.0000     -18.739033      -509.9150
   6   2.0000      -9.995392      -271.9884
   7   2.0000      -9.946697      -270.6634
   8   2.0000      -9.943831      -270.5854
   9   2.0000      -9.943452      -270.5751
  10   2.0000      -9.941001      -270.5084
  11   2.0000      -9.934826      -270.3403
  12   2.0000      -0.994513       -27.0621
  13   2.0000      -0.952707       -25.9245
  14   2.0000      -0.936742       -25.4900
  15   2.0000      -0.927837       -25.2477
  16   2.0000      -0.917970       -24.9792
  17   2.0000      -0.917578       -24.9686
  18   2.0000      -0.707095       -19.2410
  19   2.0000      -0.698086       -18.9959
  20   2.0000      -0.627698       -17.0805
  21   2.0000      -0.585230       -15.9249
  22   2.0000      -0.572638       -15.5823
  23   2.0000      -0.521430       -14.1888
  24   2.0000      -0.506628       -13.7860
  25   2.0000      -0.502737       -13.6802
  26   2.0000      -0.478312       -13.0155
  27   2.0000      -0.461094       -12.5470
  28   2.0000      -0.445407       -12.1201
  29   2.0000      -0.435149       -11.8410
  30   2.0000      -0.407454       -11.0874
  31   2.0000      -0.404266       -11.0006
  32   2.0000      -0.389495       -10.5987
  33   2.0000      -0.386125       -10.5070
  34   2.0000      -0.370664       -10.0863
  35   2.0000      -0.354506        -9.6466
  36   2.0000      -0.346949        -9.4410
  37   2.0000      -0.316527        -8.6131
  38   2.0000      -0.308683        -8.3997
  39   2.0000      -0.292231        -7.9520
  40   2.0000      -0.286114        -7.7855
  41   2.0000      -0.277579        -7.5533
  42   2.0000      -0.270503        -7.3608
  43   2.0000      -0.243220        -6.6184
  44   2.0000      -0.238283        -6.4840
  45   2.0000      -0.224058        -6.0969
  46   2.0000      -0.219677        -5.9777
  47   2.0000      -0.203710        -5.5432
  48   0.0000       0.006843         0.1862
  49   0.0000       0.012004         0.3266
  50   0.0000       0.040072         1.0904
  51   0.0000       0.051064         1.3895
  52   0.0000       0.060695         1.6516

MULLIKEN ATOMIC CHARGES
-----------------------
   0 C :    0.042426
   1 C :    0.021619
   2 H :    0.070852
   3 C :   -0.004239
   4 H :    0.075620
   5 C :    0.061451
   6 H :    0.062827
   7 C :    0.050600
   8 H :    0.068704
   9 C :    0.190052
  10 H :    0.085387
  11 O :   -0.304593
  12 O :   -0.406113
  13 O :   -0.414525
  14 O :   -0.428463
  15 O :   -0.419282
  16 O :   -0.440166
  17 H :    0.072996
  18 H :    0.072534
  19 H :    0.313516
  20 H :    0.311130
  21 H :    0.310129
  22 H :    0.308560
  23 H :    0.298979
Sum of atomic charges:   -0.0000000

LOEWDIN ATOMIC CHARGES
----------------------
   0 C :   -0.138028
   1 C :   -0.080602
   2 H :    0.120890
   3 C :   -0.085846
   4 H :    0.108606
   5 C :   -0.076398
   6 H :    0.107756
   7 C :   -0.072555
   8 H :    0.109789
   9 C :    0.003677
  10 H :    0.114231
  11 O :   -0.140112
  12 O :   -0.299361
  13 O :   -0.314064
  14 O :   -0.323877
  15 O :   -0.321516
  16 O :   -0.344668
  17 H :    0.109783
  18 H :    0.097643
  19 H :    0.291854
  20 H :    0.289690
  21 H :    0.288519
  22 H :    0.291044
  23 H :    0.263544

  Mayer bond orders larger than 0.100000
B(  0-C ,  1-C ) :   1.0313 B(  0-C , 16-O ) :   1.1064 B(  0-C , 17-H ) :   0.9194
B(  0-C , 18-H ) :   0.9068 B(  1-C ,  2-H ) :   0.8798 B(  1-C ,  3-C ) :   0.9924
B(  1-C , 11-O ) :   0.9947 B(  3-C ,  4-H ) :   0.8700 B(  3-C ,  5-C ) :   1.0220
B(  3-C , 15-O ) :   1.0602 B(  5-C ,  6-H ) :   0.8675 B(  5-C ,  7-C ) :   1.0355
B(  5-C , 14-O ) :   1.0814 B(  7-C ,  8-H ) :   0.8793 B(  7-C ,  9-C ) :   1.0006
B(  7-C , 13-O ) :   1.0926 B(  9-C , 10-H ) :   0.8879 B(  9-C , 11-O ) :   1.0949
B(  9-C , 12-O ) :   1.0502 B( 12-O , 19-H ) :   0.8336 B( 12-O , 23-H ) :   0.1244
B( 13-O , 20-H ) :   0.8373 B( 14-O , 21-H ) :   0.8316 B( 15-O , 22-H ) :   0.8471
B( 16-O , 23-H ) :   0.7866

Dispersion correction           -0.025153700
FINAL SINGLE POINT ENERGY      -685.700076273682

DIPOLE MOMENT
-------------

Method             : SCF
Type of density    : Electron Density
Multiplicity       :   1
Irrep              :   0
Energy             :  -685.8332773858326163 Eh
Relativity type    :
Basis              : AO
                                X                 Y                 Z
Electronic contribution:      2.818123841       0.613505390       0.296279841
Nuclear contribution   :     -3.381018611      -0.756848051       0.079082070
                        -----------------------------------------
Total Dipole Moment    :     -0.562894770      -0.143342662       0.375361911
                        -----------------------------------------
Magnitude (a.u.)       :      0.691588176
Magnitude (Debye)      :      1.757877443

Rotational constants in cm-1:             0.037639             0.031499             0.020948
Rotational constants in MHz :          1128.375371           944.316085           627.994992

                             ****ORCA TERMINATED NORMALLY****
TOTAL RUN TIME: 0 days 0 hours 0 minutes 7 seconds 956 msec
