                         Program Version 6.0.1  -  RELEASE   -
|  1> ! r2scan-3c def2/J RI DEFGRID2 scfconv6 printgap
|  2> %output
|  3>     printlevel normal
|  4> end
|  5> * xyz 0 1
|  6> C -2.9597530779 0.3517632409 0.0211331613
|  7> C -1.9592986119 -0.5200504937 -0.016046392
|  8> C -0.5329497283 -0.2164651189 -0.0088462517
|  9> C 0.3795935203 -1.2730847694 0.0001081909
| 10> C 1.7412024432 -1.0395409503 0.0090043322
| 11> C 2.2225565466 0.2588722373 0.0075499353
| 12> C 1.3300976511 1.318633211 -0.0035113072
| 13> C -0.0313483757 1.0858394462 -0.0116737646
| 14> H -3.985870242 0.0259842777 0.0135213051
| 15> H -2.806269011 1.4164191804 0.0626495795
| 16> H -2.1906716241 -1.5782194418 -0.0521940274
| 17> H 0.010969062 -2.2896448507 0.0010530508
| 18> H 2.4302134671 -1.8718521655 0.0168863281
| 19> H 3.2865008654 0.444584 0.0143793634
| 20> H 1.700141004 2.3339110378 -0.0062518686
| 21> H -0.7104123841 1.9243866955 -0.0228483221
| 22> *
| 23>
| 24>                          ****END OF INPUT****

CARTESIAN COORDINATES (ANGSTROEM)
---------------------------------
  C     -2.959753    0.351763    0.021133
  C     -1.959299   -0.520050   -0.016046
  C     -0.532950   -0.216465   -0.008846
  C      0.379594   -1.273085    0.000108
  C      1.741202   -1.039541    0.009004
  C      2.222557    0.258872    0.007550
  C      1.330098    1.318633   -0.003511
  C     -0.031348    1.085839   -0.011674
  H     -3.985870    0.025984    0.013521
  H     -2.806269    1.416419    0.062650
  H     -2.190672   -1.578219   -0.052194
  H      0.010969   -2.289645    0.001053
  H      2.430213   -1.871852    0.016886
  H      3.286501    0.444584    0.014379
  H      1.700141    2.333911   -0.006252
  H     -0.710412    1.924387   -0.022848

 Total Charge           Charge          ....    0
 Multiplicity           Mult            ....    1
 Number of Electrons    NEL             ....   56
 Basis Dimension        Dim             ....  192

ORBITAL ENERGIES
----------------

  NO   OCC          E(Eh)            E(eV)
   0   2.0000     -10.047347      -273.4022
   1   2.0000     -10.040915      -273.2272
   2   2.0000     -10.038095      -273.1505
   3   2.0000     -10.037631      -273.1378
   4   2.0000     -10.037203      -273.1262
   5   2.0000     -10.036951      -273.1193
   6   2.0000     -10.036867      -273.1170
   7   2.0000     -10.028191      -272.8810
   8   2.0000      -0.833913       -22.6919
   9   2.0000      -0.763206       -20.7679
  10   2.0000      -0.720149       -19.5962
  11   2.0000      -0.697512       -18.9803
  12   2.0000      -0.597564       -16.2605
  13   2.0000      -0.577138       -15.7047
  14   2.0000      -0.531702       -14.4683
  15   2.0000      -0.487137       -13.2557
  16   2.0000      -0.446602       -12.1526
  17   2.0000      -0.427057       -11.6208
  18   2.0000      -0.410846       -11.1797
  19   2.0000      -0.392264       -10.6740
  20   2.0000      -0.382992       -10.4217
  21   2.0000      -0.357120        -9.7177
  22   2.0000      -0.341369        -9.2891
  23   2.0000      -0.315394        -8.5823
  24   2.0000      -0.308925        -8.4063
  25   2.0000      -0.285843        -7.7782
  26   2.0000      -0.240911        -6.5555
  27   2.0000      -0.213032        -5.7969
  28   0.0000      -0.065447        -1.7809
  29   0.0000      -0.033517        -0.9120
  30   0.0000       0.023916         0.6508
  31   0.0000       0.082571         2.2469
  32   0.0000       0.099526         2.7082

MULLIKEN ATOMIC CHARGES
-----------------------
   0 C :   -0.299331
   1 C :   -0.197731
   2 C :    0.256333
   3 C :   -0.208886
   4 C :   -0.156864
   5 C :   -0.146673
   6 C :   -0.152636
   7 C :   -0.220399
   8 H :    0.143552
   9 H :    0.126940
  10 H :    0.139543
  11 H :    0.143137
  12 H :    0.146016
  13 H :    0.147193
  14 H :    0.145873
  15 H :    0.133931
Sum of atomic charges:    0.0000000

LOEWDIN ATOMIC CHARGES
----------------------
   0 C :   -0.290358
   1 C :   -0.165752
   2 C :   -0.087351
   3 C :   -0.151526
   4 C :   -0.161466
   5 C :   -0.164983
   6 C :   -0.159428
   7 C :   -0.141805
   8 H :    0.159659
   9 H :    0.154969
  10 H :    0.167056
  11 H :    0.169357
  12 H :    0.167887
  13 H :    0.167285
  14 H :    0.167560
  15 H :    0.168896

  Mayer bond orders larger than 0.100000
B(  0-C ,  1-C ) :   1.8490 B(  0-C ,  8-H ) :   0.9592 B(  0-C ,  9-H ) :   0.9658
B(  1-C ,  2-C ) :   0.9699 B(  1-C , 10-H ) :   0.9656 B(  2-C ,  3-C ) :   1.3448
B(  2-C ,  7-C ) :   1.4058 B(  3-C ,  4-C ) :   1.4245 B(  3-C , 11-H ) :   0.9590
B(  4-C ,  5-C ) :   1.4233 B(  4-C , 12-H ) :   0.9475 B(  5-C ,  6-C ) :   1.4035
B(  5-C , 13-H ) :   0.9487 B(  6-C ,  7-C ) :   1.4737 B(  6-C , 14-H ) :   0.9492
B(  7-C , 15-H ) :   0.9457

Dispersion correction           -0.005138574
FINAL SINGLE POINT ENERGY      -309.554046053389

DIPOLE MOMENT
-------------

Method             : SCF
Type of density    : Electron Density
Multiplicity       :   1
Irrep              :   0
Energy             :  -309.5525428985383769 Eh
Relativity type    :
Basis              : AO
                                X                 Y                 Z
Electronic contribution:      2.207716478      -0.380215685      -0.024669170
Nuclear contribution   :     -2.125327462       0.380492098       0.025513895
                        -----------------------------------------
Total Dipole Moment    :      0.082389016       0.000276414       0.000844725
                        -----------------------------------------
Magnitude (a.u.)       :      0.082393810
Magnitude (Debye)      :      0.209428422

Rotational constants in cm-1:             0.174893             0.052264             0.040243
Rotational constants in MHz :          5243.151170          1566.826011          1206.453537

                             ****ORCA TERMINATED NORMALLY****
TOTAL RUN TIME: 0 days 0 hours 0 minutes 17 seconds 34 msec
