                         Program Version 6.0.1  -  RELEASE   -
|  1> ! pbe def2-sv(p) def2/J RI DEFGRID1 loosescf d4 GCP(DFT/SV(P)) printgap
|  2> %output
|  3>     printlevel normal
|  4> end
|  5> * xyz 0 1
|  6> C -0.6497700121 0.8876134865 0.4175274891
|  7> C 0.3969806458 0.1257751545 -0.3679681761
|  8> Cl 0.3852644957 -1.5964123383 0.0661782473
|  9> Cl 1.99877008 0.8190664446 -0.0123010353
| 10> Cl -2.2732447502 0.3528119116 -0.0777771923
| 11> H -0.5473631233 0.7042888203 1.4874117116
| 12> H -0.5746836729 1.955491325 0.2086271486
| 13> H 0.237456459 0.1968448172 -1.4459455047
| 14> *
| 15>
| 16>                          ****END OF INPUT****

CARTESIAN COORDINATES (ANGSTROEM)
---------------------------------
  C     -0.649770    0.887613    0.417527
  C      0.396981    0.125775   -0.367968
  Cl     0.385264   -1.596412    0.066178
  Cl     1.998770    0.819066   -0.012301
  Cl    -2.273245    0.352812   -0.077777
  H     -0.547363    0.704289    1.487412
  H     -0.574684    1.955491    0.208627
  H      0.237456    0.196845   -1.445946

 Total Charge           Charge          ....    0
 Multiplicity           Mult            ....    1
 Number of Electrons    NEL             ....   66
 Basis Dimension        Dim             ....   88

ORBITAL ENERGIES
----------------

  NO   OCC          E(Eh)            E(eV)
   0   2.0000    -100.649987     -2738.8254
   1   2.0000    -100.644350     -2738.6720
   2   2.0000    -100.639361     -2738.5362
   3   2.0000     -10.017906      -272.6011
   4   2.0000      -9.968710      -271.2624
   5   2.0000      -9.186251      -249.9706
   6   2.0000      -9.180662      -249.8185
   7   2.0000      -9.175248      -249.6712
   8   2.0000      -7.017961      -190.9684
   9   2.0000      -7.012538      -190.8209
  10   2.0000      -7.007130      -190.6737
  11   2.0000      -7.005893      -190.6401
  12   2.0000      -7.005606      -190.6322
  13   2.0000      -7.000173      -190.4844
  14   2.0000      -6.999967      -190.4788
  15   2.0000      -6.994910      -190.3412
  16   2.0000      -6.994475      -190.3293
  17   2.0000      -0.847894       -23.0724
  18   2.0000      -0.785572       -21.3765
  19   2.0000      -0.753621       -20.5071
  20   2.0000      -0.651335       -17.7237
  21   2.0000      -0.561231       -15.2719
  22   2.0000      -0.465064       -12.6550
  23   2.0000      -0.439387       -11.9563
  24   2.0000      -0.426044       -11.5933
  25   2.0000      -0.386364       -10.5135
  26   2.0000      -0.375230       -10.2105
  27   2.0000      -0.295363        -8.0372
  28   2.0000      -0.283428        -7.7125
  29   2.0000      -0.277883        -7.5616
  30   2.0000      -0.266603        -7.2546
  31   2.0000      -0.263712        -7.1760
  32   2.0000      -0.257735        -7.0133
  33   0.0000      -0.028723        -0.7816
  34   0.0000      -0.018630        -0.5070
  35   0.0000       0.013827         0.3763
  36   0.0000       0.057388         1.5616
  37   0.0000       0.063373         1.7245

MULLIKEN ATOMIC CHARGES
-----------------------
   0 C :   -0.110975
   1 C :   -0.121323
   2 Cl:   -0.066322
   3 Cl:   -0.072508
   4 Cl:   -0.118182
   5 H :    0.156460
   6 H :    0.156280
   7 H :    0.176570
Sum of atomic charges:    0.0000000

LOEWDIN ATOMIC CHARGES
----------------------
   0 C :   -0.318114
   1 C :   -0.296658
   2 Cl:    0.077763
   3 Cl:    0.075795
   4 Cl:    0.056431
   5 H :    0.135626
   6 H :    0.135858
   7 H :    0.133300

  Mayer bond orders larger than 0.100000
B(  0-C ,  1-C ) :   1.0108 B(  0-C ,  4-Cl) :   1.0523 B(  0-C ,  5-H ) :   0.9101
B(  0-C ,  6-H ) :   0.9111 B(  1-C ,  2-Cl) :   1.0625 B(  1-C ,  3-Cl) :   1.0400
B(  1-C ,  7-H ) :   0.8992

Dispersion correction           -0.008666871
FINAL SINGLE POINT ENERGY     -1457.421253550807

DIPOLE MOMENT
-------------

Method             : SCF
Type of density    : Electron Density
Multiplicity       :   1
Irrep              :   0
Energy             : -1457.4434353167225709 Eh
Relativity type    :
Basis              : AO
                                X                 Y                 Z
Electronic contribution:      1.013064017      -2.768344811      -0.316240325
Nuclear contribution   :     -0.978605525       3.249833438       0.266710647
                        -----------------------------------------
Total Dipole Moment    :      0.034458492       0.481488627      -0.049529678
                        -----------------------------------------
Magnitude (a.u.)       :      0.485254444
Magnitude (Debye)      :      1.233418774

Rotational constants in cm-1:             0.119495             0.048688             0.035840
Rotational constants in MHz :          3582.376894          1459.619130          1074.450190

                             ****ORCA TERMINATED NORMALLY****
TOTAL RUN TIME: 0 days 0 hours 0 minutes 10 seconds 320 msec
