                         Program Version 6.0.1  -  RELEASE   -
|  1> ! r2scan-3c def2/J RI DEFGRID2 scfconv6 printgap
|  2> %output
|  3>     printlevel normal
|  4> end
|  5> * xyz 0 1
|  6> C -3.1731434983 0.1767467231 -0.0080832762
|  7> O -1.9622029083 0.8894971362 0.0056952672
|  8> C -0.7923979871 0.1830051925 0.0022972989
|  9> C -0.7006792374 -1.2040484365 -0.0027992504
| 10> C 0.5521378739 -1.7976040531 -0.0006024819
| 11> C 1.7041651066 -1.0418139837 0.0071396867
| 12> C 1.6208027777 0.3528306579 0.0106193532
| 13> C 0.3670197719 0.9515047306 0.0116221995
| 14> N 2.7641738873 1.1245244827 -0.0565666036
| 15> H -3.9596183541 0.9302500513 -0.0080987862
| 16> H -3.2796699589 -0.455406418 0.8799312758
| 17> H -3.2667028004 -0.4422572329 -0.9065950154
| 18> H -1.5808718824 -1.826069562 -0.0070923513
| 19> H 0.6223144234 -2.8756970913 -0.002109414
| 20> H 2.6734854925 -1.5182278226 0.0081995816
| 21> H 0.2721702612 2.026529343 0.0156984788
| 22> H 2.6670252748 2.0857787377 0.2275956758
| 23> H 3.6164277015 0.6825269712 0.2475217515
| 24> *
| 25>
| 26>                          ****END OF INPUT****

CARTESIAN COORDINATES (ANGSTROEM)
---------------------------------
  C     -3.173143    0.176747   -0.008083
  O     -1.962203    0.889497    0.005695
  C     -0.792398    0.183005    0.002297
  C     -0.700679   -1.204048   -0.002799
  C      0.552138   -1.797604   -0.000602
  C      1.704165   -1.041814    0.007140
  C      1.620803    0.352831    0.010619
  C      0.367020    0.951505    0.011622
  N      2.764174    1.124524   -0.056567
  H     -3.959618    0.930250   -0.008099
  H     -3.279670   -0.455406    0.879931
  H     -3.266703   -0.442257   -0.906595
  H     -1.580872   -1.826070   -0.007092
  H      0.622314   -2.875697   -0.002109
  H      2.673485   -1.518228    0.008200
  H      0.272170    2.026529    0.015698
  H      2.667025    2.085779    0.227596
  H      3.616428    0.682527    0.247522

 Total Charge           Charge          ....    0
 Multiplicity           Mult            ....    1
 Number of Electrons    NEL             ....   66
 Basis Dimension        Dim             ....  226

ORBITAL ENERGIES
----------------

  NO   OCC          E(Eh)            E(eV)
   0   2.0000     -18.978802      -516.4395
   1   2.0000     -14.165541      -385.4640
   2   2.0000     -10.087087      -274.4836
   3   2.0000     -10.080729      -274.3106
   4   2.0000     -10.070145      -274.0226
   5   2.0000     -10.028885      -272.8998
   6   2.0000     -10.016407      -272.5603
   7   2.0000     -10.016325      -272.5581
   8   2.0000     -10.015815      -272.5442
   9   2.0000      -1.027923       -27.9712
  10   2.0000      -0.887780       -24.1577
  11   2.0000      -0.801201       -21.8018
  12   2.0000      -0.720515       -19.6062
  13   2.0000      -0.691900       -18.8276
  14   2.0000      -0.658391       -17.9157
  15   2.0000      -0.577504       -15.7147
  16   2.0000      -0.558659       -15.2019
  17   2.0000      -0.504659       -13.7325
  18   2.0000      -0.485953       -13.2235
  19   2.0000      -0.451595       -12.2885
  20   2.0000      -0.436340       -11.8734
  21   2.0000      -0.431879       -11.7520
  22   2.0000      -0.426902       -11.6166
  23   2.0000      -0.386876       -10.5274
  24   2.0000      -0.374314       -10.1856
  25   2.0000      -0.358518        -9.7558
  26   2.0000      -0.333659        -9.0793
  27   2.0000      -0.329256        -8.9595
  28   2.0000      -0.309379        -8.4186
  29   2.0000      -0.291445        -7.9306
  30   2.0000      -0.267825        -7.2879
  31   2.0000      -0.199642        -5.4325
  32   2.0000      -0.181036        -4.9262
  33   0.0000      -0.018298        -0.4979
  34   0.0000       0.002471         0.0672
  35   0.0000       0.072838         1.9820
  36   0.0000       0.074515         2.0276
  37   0.0000       0.094292         2.5658

MULLIKEN ATOMIC CHARGES
-----------------------
   0 C :   -0.338890
   1 O :   -0.186182
   2 C :    0.346441
   3 C :   -0.322610
   4 C :   -0.138361
   5 C :   -0.398212
   6 C :    0.573215
   7 C :   -0.543277
   8 N :   -0.534152
   9 H :    0.151365
  10 H :    0.151335
  11 H :    0.152061
  12 H :    0.146644
  13 H :    0.144598
  14 H :    0.137446
  15 H :    0.147627
  16 H :    0.255808
  17 H :    0.255144
Sum of atomic charges:    0.0000000

LOEWDIN ATOMIC CHARGES
----------------------
   0 C :   -0.058417
   1 O :   -0.685072
   2 C :    0.198050
   3 C :   -0.210642
   4 C :   -0.143979
   5 C :   -0.186988
   6 C :    0.132229
   7 C :   -0.135370
   8 N :   -0.606615
   9 H :    0.178349
  10 H :    0.163533
  11 H :    0.163982
  12 H :    0.172861
  13 H :    0.167181
  14 H :    0.167183
  15 H :    0.181156
  16 H :    0.251300
  17 H :    0.251259

  Mayer bond orders larger than 0.100000
B(  0-C ,  1-O ) :   0.8627 B(  0-C ,  9-H ) :   0.9686 B(  0-C , 10-H ) :   0.9646
B(  0-C , 11-H ) :   0.9645 B(  1-O ,  2-C ) :   1.0302 B(  2-C ,  3-C ) :   1.3807
B(  2-C ,  7-C ) :   1.4463 B(  3-C ,  4-C ) :   1.4042 B(  3-C , 12-H ) :   0.9256
B(  4-C ,  5-C ) :   1.4560 B(  4-C , 13-H ) :   0.9476 B(  5-C ,  6-C ) :   1.3065
B(  5-C , 14-H ) :   0.9454 B(  6-C ,  7-C ) :   1.2601 B(  6-C ,  8-N ) :   0.9246
B(  7-C , 15-H ) :   0.9377 B(  8-N , 16-H ) :   0.9274 B(  8-N , 17-H ) :   0.9277

Dispersion correction           -0.005705028
FINAL SINGLE POINT ENERGY      -402.030852998267

DIPOLE MOMENT
-------------

Method             : SCF
Type of density    : Electron Density
Multiplicity       :   1
Irrep              :   0
Energy             :  -402.0350703584628604 Eh
Relativity type    :
Basis              : AO
                                X                 Y                 Z
Electronic contribution:      2.233595733       1.295836029      -0.119592244
Nuclear contribution   :     -2.111130765      -1.287120926       0.426689233
                        -----------------------------------------
Total Dipole Moment    :      0.122464969       0.008715103       0.307096989
                        -----------------------------------------
Magnitude (a.u.)       :      0.330729772
Magnitude (Debye)      :      0.840648273

Rotational constants in cm-1:             0.121412             0.037931             0.029078
Rotational constants in MHz :          3639.852217          1137.138767           871.749067

                             ****ORCA TERMINATED NORMALLY****
TOTAL RUN TIME: 0 days 0 hours 0 minutes 45 seconds 286 msec
