                         Program Version 6.0.0  -   RELEASE  -
|  1> ! r2SCAN-3c DEF2-TZVP FREQ
|  2> * xyzfile 0 1 censo.xyz
|  3>
|  4>                          ****END OF INPUT****

CARTESIAN COORDINATES (ANGSTROEM)
---------------------------------
  C      0.969044    0.790613    0.084371
  C     -0.347559    0.043714    0.001450
  F     -1.391231    0.895912    0.145499
  F     -0.464854   -0.903177    0.966060
  F     -0.506814   -0.590209   -1.185494
  O      2.068820   -0.086064   -0.088350
  H      0.981047    1.522673   -0.728076
  H      0.995016    1.318608    1.044928
  H      2.220827   -0.548413    0.746325

 Total Charge           Charge          ....    0
 Multiplicity           Mult            ....    1
 Number of Electrons    NEL             ....   50
 Basis Dimension        Dim             ....  204

ORBITAL ENERGIES
----------------

  NO   OCC          E(Eh)            E(eV)
   0   2.0000     -24.524232      -667.3383
   1   2.0000     -24.524106      -667.3349
   2   2.0000     -24.518018      -667.1692
   3   2.0000     -18.985069      -516.6100
   4   2.0000     -10.281841      -279.7831
   5   2.0000     -10.119862      -275.3755
   6   2.0000      -1.271140       -34.5895
   7   2.0000      -1.188907       -32.3518
   8   2.0000      -1.184146       -32.2223
   9   2.0000      -1.019031       -27.7292
  10   2.0000      -0.744118       -20.2485
  11   2.0000      -0.638216       -17.3667
  12   2.0000      -0.560321       -15.2471
  13   2.0000      -0.558781       -15.2052
  14   2.0000      -0.537728       -14.6323
  15   2.0000      -0.492376       -13.3982
  16   2.0000      -0.441583       -12.0161
  17   2.0000      -0.429665       -11.6918
  18   2.0000      -0.425801       -11.5866
  19   2.0000      -0.395276       -10.7560
  20   2.0000      -0.388183       -10.5630
  21   2.0000      -0.377712       -10.2781
  22   2.0000      -0.372486       -10.1359
  23   2.0000      -0.337398        -9.1811
  24   2.0000      -0.278332        -7.5738
  25   0.0000       0.015044         0.4094
  26   0.0000       0.066722         1.8156
  27   0.0000       0.076280         2.0757
  28   0.0000       0.090382         2.4594
  29   0.0000       0.136343         3.7101

MULLIKEN ATOMIC CHARGES
-----------------------
   0 C :   -0.014176
   1 C :    0.439814
   2 F :   -0.176671
   3 F :   -0.185852
   4 F :   -0.170442
   5 O :   -0.446767
   6 H :    0.121442
   7 H :    0.114776
   8 H :    0.317876
Sum of atomic charges:   -0.0000000

LOEWDIN ATOMIC CHARGES
----------------------
   0 C :   -0.313939
   1 C :   -0.663091
   2 F :    0.179868
   3 F :    0.172667
   4 F :    0.183658
   5 O :   -0.017587
   6 H :    0.145145
   7 H :    0.132569
   8 H :    0.180709

  Mayer bond orders larger than 0.100000
B(  0-C ,  1-C ) :   0.9752 B(  0-C ,  5-O ) :   1.0078 B(  0-C ,  6-H ) :   0.9455
B(  0-C ,  7-H ) :   0.9460 B(  1-C ,  2-F ) :   1.1063 B(  1-C ,  3-F ) :   1.0954
B(  1-C ,  4-F ) :   1.1210 B(  5-O ,  8-H ) :   0.8889

Dispersion correction           -0.001548813
FINAL SINGLE POINT ENERGY      -452.769883784799

DIPOLE MOMENT
-------------

Method             : SCF
Type of density    : Electron Density
Multiplicity       :   1
Irrep              :   0
Energy             :  -452.7786332820281814 Eh
Relativity type    :
Basis              : AO
                                X                 Y                 Z
Electronic contribution:     -5.673697025      -2.269170412      -0.462933941
Nuclear contribution   :      6.157372932       2.703620000       1.064998831
                        -----------------------------------------
Total Dipole Moment    :      0.483675907       0.434449588       0.602064890
                        -----------------------------------------
Magnitude (a.u.)       :      0.886098730
Magnitude (Debye)      :      2.252283979

VIBRATIONAL FREQUENCIES
-----------------------

Scaling factor for frequencies =  1.000000000  (already applied!)

     0:       0.00 cm**-1
     1:       0.00 cm**-1
     2:       0.00 cm**-1
     3:       0.00 cm**-1
     4:       0.00 cm**-1
     5:       0.00 cm**-1
     6:     138.71 cm**-1
     7:     229.81 cm**-1
     8:     329.25 cm**-1
     9:     377.54 cm**-1
    10:     414.35 cm**-1
    11:     524.78 cm**-1
    12:     540.93 cm**-1
    13:     656.12 cm**-1
    14:     816.93 cm**-1
    15:     922.19 cm**-1
    16:    1058.48 cm**-1
    17:    1117.34 cm**-1
    18:    1129.47 cm**-1
    19:    1264.85 cm**-1
    20:    1268.48 cm**-1
    21:    1397.91 cm**-1
    22:    1414.90 cm**-1
    23:    1470.35 cm**-1
    24:    3028.38 cm**-1
    25:    3105.26 cm**-1
    26:    3778.05 cm**-1

IR SPECTRUM
-----------

 Mode   freq       eps      Int      T**2         TX        TY        TZ
       cm**-1   L/(mol*cm) km/mol    a.u.
----------------------------------------------------------------------------
  6:    138.71   0.000944    4.77  0.002124  (-0.027521  0.027735 -0.024438)
  7:    229.81   0.000268    1.35  0.000363  ( 0.015537 -0.009658  0.005362)
  8:    329.25   0.011731   59.28  0.011119  (-0.068827 -0.071251 -0.036120)
  9:    377.54   0.013194   66.68  0.010906  (-0.073187 -0.054964 -0.050287)
 10:    414.35   0.000544    2.75  0.000409  (-0.005326  0.017951  0.007673)
 11:    524.78   0.000065    0.33  0.000039  ( 0.003459  0.004222 -0.002973)
 12:    540.93   0.001555    7.86  0.000897  (-0.021945 -0.019800 -0.004868)
 13:    656.12   0.005485   27.72  0.002609  (-0.031237 -0.039740 -0.007323)
 14:    816.93   0.004305   21.76  0.001644  (-0.017360 -0.036443 -0.003879)
 15:    922.19   0.013652   68.99  0.004620  ( 0.023945 -0.022895  0.059347)
 16:   1058.48   0.020945  105.85  0.006175  ( 0.067538 -0.024313 -0.031980)
 17:   1117.34   0.025927  131.03  0.007241  ( 0.017040 -0.006554 -0.083114)
 18:   1129.47   0.056008  283.04  0.015475  (-0.080831  0.094444  0.004618)
 19:   1264.85   0.017603   88.96  0.004343  ( 0.013831 -0.031966  0.055946)
 20:   1268.48   0.028512  144.09  0.007014  ( 0.057243  0.058400  0.018082)
 21:   1397.91   0.006843   34.58  0.001528  ( 0.034347 -0.004726 -0.018045)
 22:   1414.90   0.002859   14.45  0.000631  ( 0.003039  0.021686  0.012287)
 23:   1470.35   0.000699    3.53  0.000148  (-0.008808 -0.008176 -0.001987)
 24:   3028.38   0.005130   25.93  0.000529  ( 0.008961 -0.018100 -0.010988)
 25:   3105.26   0.001920    9.70  0.000193  (-0.002688  0.002887 -0.013318)
 26:   3778.05   0.008583   43.38  0.000709  ( 0.012954 -0.015201  0.017610)

--------------------------
THERMOCHEMISTRY AT 298.15K
--------------------------

Temperature         ...   298.15 K
Pressure            ...     1.00 atm
Total Mass          ...   100.04 AMU
Quasi RRHO          ...     True
Cut-Off Frequency   ...     1.00 cm^-1

Throughout the following assumptions are being made:
  (1) The electronic state is orbitally nondegenerate
  (2) There are no thermally accessible electronically excited states
  (3) Hindered rotations indicated by low frequency modes are not
      treated as such but are treated as vibrations and this may
      cause some error
  (4) All equations used are the standard statistical mechanics
      equations for an ideal gas
  (5) All vibrations are strictly harmonic

freq.     138.71  E(vib)   ...       0.42
freq.     229.81  E(vib)   ...       0.32
freq.     329.25  E(vib)   ...       0.24
freq.     377.54  E(vib)   ...       0.21
freq.     414.35  E(vib)   ...       0.19
freq.     524.78  E(vib)   ...       0.13
freq.     540.93  E(vib)   ...       0.12
freq.     656.12  E(vib)   ...       0.08
freq.     816.93  E(vib)   ...       0.05
freq.     922.19  E(vib)   ...       0.03
freq.    1058.48  E(vib)   ...       0.02
freq.    1117.34  E(vib)   ...       0.01
freq.    1129.47  E(vib)   ...       0.01
freq.    1264.85  E(vib)   ...       0.01
freq.    1268.48  E(vib)   ...       0.01
freq.    1397.91  E(vib)   ...       0.00
freq.    1414.90  E(vib)   ...       0.00
freq.    1470.35  E(vib)   ...       0.00
freq.    3028.38  E(vib)   ...       0.00
freq.    3105.26  E(vib)   ...       0.00
freq.    3778.05  E(vib)   ...       0.00

------------
INNER ENERGY
------------

The inner energy is: U= E(el) + E(ZPE) + E(vib) + E(rot) + E(trans)
    E(el)   - is the total energy from the electronic structure calculation
              = E(kin-el) + E(nuc-el) + E(el-el) + E(nuc-nuc)
    E(ZPE)  - the the zero temperature vibrational energy from the frequency calculation
    E(vib)  - the the finite temperature correction to E(ZPE) due to population
              of excited vibrational states
    E(rot)  - is the rotational thermal energy
    E(trans)- is the translational thermal energy

Summary of contributions to the inner energy U:
Electronic energy                ...   -452.76988378 Eh
Zero point energy                ...      0.05691789 Eh      35.72 kcal/mol
Thermal vibrational correction   ...      0.00296856 Eh       1.86 kcal/mol
Thermal rotational correction    ...      0.00141627 Eh       0.89 kcal/mol
Thermal translational correction ...      0.00141627 Eh       0.89 kcal/mol
-----------------------------------------------------------------------
Total thermal energy                   -452.70716480 Eh

Summary of corrections to the electronic energy:
(perhaps to be used in another calculation)
Total thermal correction                  0.00580110 Eh       3.64 kcal/mol
Non-thermal (ZPE) correction              0.05691789 Eh      35.72 kcal/mol
-----------------------------------------------------------------------
Total correction                          0.06271899 Eh      39.36 kcal/mol

--------
ENTHALPY
--------

The enthalpy is H = U + kB*T
                kB is Boltzmann's constant
Total thermal energy              ...   -452.70716480 Eh
Thermal Enthalpy correction       ...      0.00094421 Eh       0.59 kcal/mol
-----------------------------------------------------------------------
Total Enthalpy                    ...   -452.70622059 Eh

Note: Only C1 symmetry has been detected, increase convergence thresholds
      if your molecule has a higher symmetry. Symmetry factor of 1.0 is
      used for the rotational entropy correction.

Note: Rotational entropy computed according to Herzberg
Infrared and Raman Spectra, Chapter V,1, Van Nostrand Reinhold, 1945
Point Group:  C1, Symmetry Number:   1
Rotational constants in cm-1:     0.174566     0.093036     0.091959

Vibrational entropy computed according to the QRRHO of S. Grimme
Chem.Eur.J. 2012 18 9955 using a reference frequency of 100.0 cm-1

-------
ENTROPY
-------

The entropy contributions are T*S = T*(S(el)+S(vib)+S(rot)+S(trans))
     S(el)   - electronic entropy
     S(vib)  - vibrational entropy
     S(rot)  - rotational entropy
     S(trans)- translational entropy
The entropies will be listed as multiplied by the temperature to get
units of energy

Electronic entropy                ...      0.00000000 Eh      0.00 kcal/mol
Vibrational entropy               ...      0.00476280 Eh      2.99 kcal/mol
Rotational entropy                ...      0.01258253 Eh      7.90 kcal/mol
Translational entropy             ...      0.01887179 Eh     11.84 kcal/mol
-----------------------------------------------------------------------
Final entropy term                ...      0.03621712 Eh     22.73 kcal/mol

In case the symmetry of your molecule has not been determined correctly
or in case you have a reason to use a different symmetry number we print
out the resulting rotational entropy values for sn=1,12:

 non-linear molecules -----------------------------------
|  sn= 1 | S(rot)=       0.01258253 Eh      7.90 kcal/mol|
|  sn= 2 | S(rot)=       0.01192807 Eh      7.48 kcal/mol|
|  sn= 3 | S(rot)=       0.01154524 Eh      7.24 kcal/mol|
|  sn= 4 | S(rot)=       0.01127361 Eh      7.07 kcal/mol|
|  sn= 5 | S(rot)=       0.01106293 Eh      6.94 kcal/mol|
|  sn= 6 | S(rot)=       0.01089078 Eh      6.83 kcal/mol|
|  sn= 7 | S(rot)=       0.01074524 Eh      6.74 kcal/mol|
|  sn= 8 | S(rot)=       0.01061916 Eh      6.66 kcal/mol|
|  sn= 9 | S(rot)=       0.01050795 Eh      6.59 kcal/mol|
|  sn=10 | S(rot)=       0.01040847 Eh      6.53 kcal/mol|
|  sn=11 | S(rot)=       0.01031848 Eh      6.47 kcal/mol|
|  sn=12 | S(rot)=       0.01023633 Eh      6.42 kcal/mol|
 linear molecules ---------------------------------------
|  Dinfh | S(rot)=       0.00757901 Eh      4.76 kcal/mol|
|  Cinfv | S(rot)=       0.00823347 Eh      5.17 kcal/mol|
 --------------------------------------------------------

-------------------
GIBBS FREE ENERGY
-------------------

The Gibbs free energy is G = H - T*S

Total enthalpy                    ...   -452.70622059 Eh
Total entropy correction          ...     -0.03621712 Eh    -22.73 kcal/mol
-----------------------------------------------------------------------
Final Gibbs free energy         ...   -452.74243770 Eh

For completeness - the Gibbs free energy minus the electronic energy
G-E(el)                           ...      0.02744608 Eh     17.22 kcal/mol

                             ****ORCA TERMINATED NORMALLY****
TOTAL RUN TIME: 0 days 0 hours 3 minutes 6 seconds 199 msec
