                         Program Version 6.0.0  -   RELEASE  -
|  1> ! r2SCAN-3c DEF2-TZVP FREQ
|  2> * xyzfile 0 1 vacuum_censo.xyz
|  3>
|  4>                          ****END OF INPUT****

CARTESIAN COORDINATES (ANGSTROEM)
---------------------------------
  C      1.064532    0.514152   -0.397445
  C     -0.315734   -0.054923   -0.112018
  F     -0.286507   -1.370741    0.165674
  F     -1.131207    0.128321   -1.176793
  F     -0.885291    0.570192    0.952386
  O      1.931527    0.371820    0.705699
  H      1.493911   -0.050196   -1.229811
  H      0.930206    1.559771   -0.710413
  H      1.600054    0.921345    1.425634

 Total Charge           Charge          ....    0
 Multiplicity           Mult            ....    1
 Number of Electrons    NEL             ....   50
 Basis Dimension        Dim             ....  204

ORBITAL ENERGIES
----------------

  NO   OCC          E(Eh)            E(eV)
   0   2.0000     -24.526203      -667.3919
   1   2.0000     -24.526059      -667.3880
   2   2.0000     -24.523664      -667.3228
   3   2.0000     -18.984032      -516.5818
   4   2.0000     -10.283555      -279.8298
   5   2.0000     -10.118013      -275.3251
   6   2.0000      -1.274886       -34.6914
   7   2.0000      -1.191331       -32.4178
   8   2.0000      -1.190289       -32.3894
   9   2.0000      -1.020258       -27.7626
  10   2.0000      -0.742525       -20.2051
  11   2.0000      -0.640484       -17.4285
  12   2.0000      -0.563821       -15.3424
  13   2.0000      -0.561276       -15.2731
  14   2.0000      -0.543730       -14.7957
  15   2.0000      -0.486318       -13.2334
  16   2.0000      -0.442346       -12.0369
  17   2.0000      -0.432587       -11.7713
  18   2.0000      -0.427706       -11.6385
  19   2.0000      -0.400219       -10.8905
  20   2.0000      -0.390767       -10.6333
  21   2.0000      -0.381546       -10.3824
  22   2.0000      -0.376324       -10.2403
  23   2.0000      -0.334657        -9.1065
  24   2.0000      -0.276973        -7.5368
  25   0.0000       0.019525         0.5313
  26   0.0000       0.068604         1.8668
  27   0.0000       0.079307         2.1581
  28   0.0000       0.089914         2.4467
  29   0.0000       0.135222         3.6796

MULLIKEN ATOMIC CHARGES
-----------------------
   0 C :    0.000901
   1 C :    0.432831
   2 F :   -0.164834
   3 F :   -0.175338
   4 F :   -0.189379
   5 O :   -0.446464
   6 H :    0.118463
   7 H :    0.108652
   8 H :    0.315167
Sum of atomic charges:    0.0000000

LOEWDIN ATOMIC CHARGES
----------------------
   0 C :   -0.319028
   1 C :   -0.671016
   2 F :    0.197147
   3 F :    0.182656
   4 F :    0.168324
   5 O :   -0.013212
   6 H :    0.144641
   7 H :    0.131654
   8 H :    0.178833

  Mayer bond orders larger than 0.100000
B(  0-C ,  1-C ) :   0.9826 B(  0-C ,  5-O ) :   1.0011 B(  0-C ,  6-H ) :   0.9456
B(  0-C ,  7-H ) :   0.9416 B(  1-C ,  2-F ) :   1.1283 B(  1-C ,  3-F ) :   1.1095
B(  1-C ,  4-F ) :   1.0860 B(  5-O ,  8-H ) :   0.8873

Dispersion correction           -0.001551703
FINAL SINGLE POINT ENERGY      -452.770563867079

DIPOLE MOMENT
-------------

Method             : SCF
Type of density    : Electron Density
Multiplicity       :   1
Irrep              :   0
Energy             :  -452.7793502819663445 Eh
Relativity type    :
Basis              : AO
                                X                 Y                 Z
Electronic contribution:     -5.659205851      -2.265423965       0.321407954
Nuclear contribution   :      5.937659929       2.908403841      -0.419678306
                        -----------------------------------------
Total Dipole Moment    :      0.278454078       0.642979876      -0.098270353
                        -----------------------------------------
Magnitude (a.u.)       :      0.707542831
Magnitude (Debye)      :      1.798430952

VIBRATIONAL FREQUENCIES
-----------------------

Scaling factor for frequencies =  1.000000000  (already applied!)

     0:       0.00 cm**-1
     1:       0.00 cm**-1
     2:       0.00 cm**-1
     3:       0.00 cm**-1
     4:       0.00 cm**-1
     5:       0.00 cm**-1
     6:     127.53 cm**-1
     7:     228.81 cm**-1
     8:     320.23 cm**-1
     9:     383.69 cm**-1
    10:     414.99 cm**-1
    11:     525.01 cm**-1
    12:     537.95 cm**-1
    13:     654.90 cm**-1
    14:     816.66 cm**-1
    15:     933.73 cm**-1
    16:    1073.64 cm**-1
    17:    1127.05 cm**-1
    18:    1141.51 cm**-1
    19:    1255.06 cm**-1
    20:    1275.84 cm**-1
    21:    1387.43 cm**-1
    22:    1426.37 cm**-1
    23:    1476.51 cm**-1
    24:    3002.96 cm**-1
    25:    3100.08 cm**-1
    26:    3796.98 cm**-1

IR SPECTRUM
-----------

 Mode   freq       eps      Int      T**2         TX        TY        TZ
       cm**-1   L/(mol*cm) km/mol    a.u.
----------------------------------------------------------------------------
  6:    127.53   0.000795    4.02  0.001946  (-0.005911 -0.014473 -0.041248)
  7:    228.81   0.000695    3.51  0.000948  ( 0.017462  0.013083  0.021727)
  8:    320.23   0.013823   69.85  0.013470  (-0.067651 -0.090214  0.027478)
  9:    383.69   0.011892   60.10  0.009672  (-0.054573 -0.081570  0.006367)
 10:    414.99   0.001253    6.33  0.000942  ( 0.001960  0.024611 -0.018239)
 11:    525.01   0.000134    0.68  0.000080  (-0.007924 -0.002575  0.003211)
 12:    537.95   0.001527    7.72  0.000886  (-0.022067 -0.016294  0.011552)
 13:    654.90   0.005375   27.16  0.002561  (-0.033145 -0.025310  0.028668)
 14:    816.66   0.004068   20.56  0.001555  ( 0.019742  0.010273 -0.032546)
 15:    933.73   0.013207   66.74  0.004414  ( 0.002215  0.052761  0.040316)
 16:   1073.64   0.020949  105.87  0.006089  (-0.067301  0.025641 -0.030037)
 17:   1127.05   0.032000  161.71  0.008860  ( 0.011210  0.043228  0.082861)
 18:   1141.51   0.049870  252.02  0.013633  (-0.067893  0.056097 -0.076662)
 19:   1255.06   0.018771   94.86  0.004667  ( 0.038453 -0.014694 -0.054522)
 20:   1275.84   0.029821  150.70  0.007294  (-0.047637 -0.070535  0.007036)
 21:   1387.43   0.006455   32.62  0.001452  (-0.034575  0.012709 -0.009747)
 22:   1426.37   0.002934   14.83  0.000642  ( 0.000333 -0.017636  0.018188)
 23:   1476.51   0.000574    2.90  0.000121  ( 0.009271  0.003812 -0.004564)
 24:   3002.96   0.006175   31.20  0.000642  ( 0.007868 -0.016477  0.017558)
 25:   3100.08   0.001812    9.16  0.000182  (-0.001424  0.010607  0.008239)
 26:   3796.98   0.007858   39.71  0.000646  (-0.000229  0.011419  0.022702)

--------------------------
THERMOCHEMISTRY AT 298.15K
--------------------------

Temperature         ...   298.15 K
Pressure            ...     1.00 atm
Total Mass          ...   100.04 AMU
Quasi RRHO          ...     True
Cut-Off Frequency   ...     1.00 cm^-1

Throughout the following assumptions are being made:
  (1) The electronic state is orbitally nondegenerate
  (2) There are no thermally accessible electronically excited states
  (3) Hindered rotations indicated by low frequency modes are not
      treated as such but are treated as vibrations and this may
      cause some error
  (4) All equations used are the standard statistical mechanics
      equations for an ideal gas
  (5) All vibrations are strictly harmonic

freq.     127.53  E(vib)   ...       0.43
freq.     228.81  E(vib)   ...       0.32
freq.     320.23  E(vib)   ...       0.25
freq.     383.69  E(vib)   ...       0.20
freq.     414.99  E(vib)   ...       0.19
freq.     525.01  E(vib)   ...       0.13
freq.     537.95  E(vib)   ...       0.12
freq.     654.90  E(vib)   ...       0.08
freq.     816.66  E(vib)   ...       0.05
freq.     933.73  E(vib)   ...       0.03
freq.    1073.64  E(vib)   ...       0.02
freq.    1127.05  E(vib)   ...       0.01
freq.    1141.51  E(vib)   ...       0.01
freq.    1255.06  E(vib)   ...       0.01
freq.    1275.84  E(vib)   ...       0.01
freq.    1387.43  E(vib)   ...       0.00
freq.    1426.37  E(vib)   ...       0.00
freq.    1476.51  E(vib)   ...       0.00
freq.    3002.96  E(vib)   ...       0.00
freq.    3100.08  E(vib)   ...       0.00
freq.    3796.98  E(vib)   ...       0.00

------------
INNER ENERGY
------------

The inner energy is: U= E(el) + E(ZPE) + E(vib) + E(rot) + E(trans)
    E(el)   - is the total energy from the electronic structure calculation
              = E(kin-el) + E(nuc-el) + E(el-el) + E(nuc-nuc)
    E(ZPE)  - the the zero temperature vibrational energy from the frequency calculation
    E(vib)  - the the finite temperature correction to E(ZPE) due to population
              of excited vibrational states
    E(rot)  - is the rotational thermal energy
    E(trans)- is the translational thermal energy

Summary of contributions to the inner energy U:
Electronic energy                ...   -452.77056387 Eh
Zero point energy                ...      0.05696994 Eh      35.75 kcal/mol
Thermal vibrational correction   ...      0.00299057 Eh       1.88 kcal/mol
Thermal rotational correction    ...      0.00141627 Eh       0.89 kcal/mol
Thermal translational correction ...      0.00141627 Eh       0.89 kcal/mol
-----------------------------------------------------------------------
Total thermal energy                   -452.70777082 Eh

Summary of corrections to the electronic energy:
(perhaps to be used in another calculation)
Total thermal correction                  0.00582311 Eh       3.65 kcal/mol
Non-thermal (ZPE) correction              0.05696994 Eh      35.75 kcal/mol
-----------------------------------------------------------------------
Total correction                          0.06279305 Eh      39.40 kcal/mol

--------
ENTHALPY
--------

The enthalpy is H = U + kB*T
                kB is Boltzmann's constant
Total thermal energy              ...   -452.70777082 Eh
Thermal Enthalpy correction       ...      0.00094421 Eh       0.59 kcal/mol
-----------------------------------------------------------------------
Total Enthalpy                    ...   -452.70682661 Eh

Note: Only C1 symmetry has been detected, increase convergence thresholds
      if your molecule has a higher symmetry. Symmetry factor of 1.0 is
      used for the rotational entropy correction.

Note: Rotational entropy computed according to Herzberg
Infrared and Raman Spectra, Chapter V,1, Van Nostrand Reinhold, 1945
Point Group:  C1, Symmetry Number:   1
Rotational constants in cm-1:     0.174677     0.093323     0.092292

Vibrational entropy computed according to the QRRHO of S. Grimme
Chem.Eur.J. 2012 18 9955 using a reference frequency of 100.0 cm-1

-------
ENTROPY
-------

The entropy contributions are T*S = T*(S(el)+S(vib)+S(rot)+S(trans))
     S(el)   - electronic entropy
     S(vib)  - vibrational entropy
     S(rot)  - rotational entropy
     S(trans)- translational entropy
The entropies will be listed as multiplied by the temperature to get
units of energy

Electronic entropy                ...      0.00000000 Eh      0.00 kcal/mol
Vibrational entropy               ...      0.00482983 Eh      3.03 kcal/mol
Rotational entropy                ...      0.01257907 Eh      7.89 kcal/mol
Translational entropy             ...      0.01887179 Eh     11.84 kcal/mol
-----------------------------------------------------------------------
Final entropy term                ...      0.03628069 Eh     22.77 kcal/mol

In case the symmetry of your molecule has not been determined correctly
or in case you have a reason to use a different symmetry number we print
out the resulting rotational entropy values for sn=1,12:

 non-linear molecules -----------------------------------
|  sn= 1 | S(rot)=       0.01257907 Eh      7.89 kcal/mol|
|  sn= 2 | S(rot)=       0.01192461 Eh      7.48 kcal/mol|
|  sn= 3 | S(rot)=       0.01154178 Eh      7.24 kcal/mol|
|  sn= 4 | S(rot)=       0.01127016 Eh      7.07 kcal/mol|
|  sn= 5 | S(rot)=       0.01105947 Eh      6.94 kcal/mol|
|  sn= 6 | S(rot)=       0.01088732 Eh      6.83 kcal/mol|
|  sn= 7 | S(rot)=       0.01074178 Eh      6.74 kcal/mol|
|  sn= 8 | S(rot)=       0.01061570 Eh      6.66 kcal/mol|
|  sn= 9 | S(rot)=       0.01050449 Eh      6.59 kcal/mol|
|  sn=10 | S(rot)=       0.01040501 Eh      6.53 kcal/mol|
|  sn=11 | S(rot)=       0.01031502 Eh      6.47 kcal/mol|
|  sn=12 | S(rot)=       0.01023287 Eh      6.42 kcal/mol|
 linear molecules ---------------------------------------
|  Dinfh | S(rot)=       0.00757559 Eh      4.75 kcal/mol|
|  Cinfv | S(rot)=       0.00823005 Eh      5.16 kcal/mol|
 --------------------------------------------------------

-------------------
GIBBS FREE ENERGY
-------------------

The Gibbs free energy is G = H - T*S

Total enthalpy                    ...   -452.70682661 Eh
Total entropy correction          ...     -0.03628069 Eh    -22.77 kcal/mol
-----------------------------------------------------------------------
Final Gibbs free energy         ...   -452.74310730 Eh

For completeness - the Gibbs free energy minus the electronic energy
G-E(el)                           ...      0.02745657 Eh     17.23 kcal/mol

                             ****ORCA TERMINATED NORMALLY****
TOTAL RUN TIME: 0 days 0 hours 3 minutes 6 seconds 902 msec
