                         Program Version 6.0.1  -  RELEASE   -
|  1> ! pbe def2-sv(p) def2/J RI DEFGRID1 loosescf d4 GCP(DFT/SV(P)) printgap
|  2> %output
|  3>     printlevel normal
|  4> end
|  5> * xyz 0 1
|  6> C 2.5251120586 2.553822377 1.2688807625
|  7> C 2.0408880419 1.7330478597 0.0756372013
|  8> C 2.9549495042 0.5120917361 -0.2007620048
|  9> C 2.010376246 -0.6449060437 -0.0767458338
| 10> C 2.2019545915 -1.9965275005 -0.2540362745
| 11> C 1.1214491213 -2.85085269 -0.0792010822
| 12> C -0.1224646496 -2.3534516213 0.2662738314
| 13> C -0.3180480355 -0.9918475927 0.4545240639
| 14> C 0.7599163837 -0.1369144314 0.2722792658
| 15> O 0.7357589846 1.2049423086 0.4044556334
| 16> O -1.5629595593 -0.489943948 0.8295784227
| 17> C -2.4606261293 -0.3055396953 -0.1775287838
| 18> O -2.2642474792 -0.5782798344 -1.3327968966
| 19> N -3.6011140428 0.2105740189 0.3276653145
| 20> C -4.7313570304 0.5429729664 -0.5002440759
| 21> C 1.8829996944 2.6105084278 -1.165409374
| 22> H 2.5973076363 1.9220345982 2.1512966846
| 23> H 3.500315512 2.9837935024 1.0561318379
| 24> H 1.8207972866 3.3551910148 1.4759336169
| 25> H 3.400610896 0.5651039609 -1.1950802841
| 26> H 3.7636942388 0.4451651446 0.5298698269
| 27> H 3.1718087005 -2.3820209537 -0.529439752
| 28> H 1.2481740527 -3.9127448647 -0.2210283817
| 29> H -0.9646172394 -3.0165740304 0.3896091046
| 30> H -3.6253127508 0.4291450213 1.3101735391
| 31> H -4.9261573253 1.6175089138 -0.485104453
| 32> H -5.6240555954 0.0120066994 -0.1640708771
| 33> H -4.4897547001 0.2360985038 -1.5163603722
| 34> H 1.5029693754 2.0150521956 -1.9925734935
| 35> H 2.839634619 3.0443128043 -1.4446998927
| 36> H 1.1747270225 3.4101030544 -0.9641176303
| 37> *
| 38>
| 39>                          ****END OF INPUT****

CARTESIAN COORDINATES (ANGSTROEM)
---------------------------------
  C      2.525112    2.553822    1.268881
  C      2.040888    1.733048    0.075637
  C      2.954950    0.512092   -0.200762
  C      2.010376   -0.644906   -0.076746
  C      2.201955   -1.996528   -0.254036
  C      1.121449   -2.850853   -0.079201
  C     -0.122465   -2.353452    0.266274
  C     -0.318048   -0.991848    0.454524
  C      0.759916   -0.136914    0.272279
  O      0.735759    1.204942    0.404456
  O     -1.562960   -0.489944    0.829578
  C     -2.460626   -0.305540   -0.177529
  O     -2.264247   -0.578280   -1.332797
  N     -3.601114    0.210574    0.327665
  C     -4.731357    0.542973   -0.500244
  C      1.883000    2.610508   -1.165409
  H      2.597308    1.922035    2.151297
  H      3.500316    2.983794    1.056132
  H      1.820797    3.355191    1.475934
  H      3.400611    0.565104   -1.195080
  H      3.763694    0.445165    0.529870
  H      3.171809   -2.382021   -0.529440
  H      1.248174   -3.912745   -0.221028
  H     -0.964617   -3.016574    0.389609
  H     -3.625313    0.429145    1.310174
  H     -4.926157    1.617509   -0.485104
  H     -5.624056    0.012007   -0.164071
  H     -4.489755    0.236099   -1.516360
  H      1.502969    2.015052   -1.992573
  H      2.839635    3.044313   -1.444700
  H      1.174727    3.410103   -0.964118

 Total Charge           Charge          ....    0
 Multiplicity           Mult            ....    1
 Number of Electrons    NEL             ....  118
 Basis Dimension        Dim             ....  254

ORBITAL ENERGIES
----------------

  NO   OCC          E(Eh)            E(eV)
   0   2.0000     -18.794795      -511.4324
   1   2.0000     -18.782605      -511.1007
   2   2.0000     -18.709777      -509.1189
   3   2.0000     -14.014872      -381.3641
   4   2.0000     -10.016201      -272.5547
   5   2.0000      -9.962075      -271.0818
   6   2.0000      -9.942648      -270.5532
   7   2.0000      -9.941089      -270.5108
   8   2.0000      -9.916854      -269.8513
   9   2.0000      -9.898084      -269.3406
  10   2.0000      -9.894310      -269.2379
  11   2.0000      -9.888984      -269.0929
  12   2.0000      -9.886874      -269.0355
  13   2.0000      -9.883872      -268.9538
  14   2.0000      -9.882779      -268.9241
  15   2.0000      -9.880676      -268.8669
  16   2.0000      -1.003958       -27.3191
  17   2.0000      -0.976550       -26.5733
  18   2.0000      -0.909009       -24.7354
  19   2.0000      -0.838506       -22.8169
  20   2.0000      -0.770887       -20.9769
  21   2.0000      -0.735936       -20.0258
  22   2.0000      -0.691554       -18.8181
  23   2.0000      -0.672193       -18.2913
  24   2.0000      -0.634040       -17.2531
  25   2.0000      -0.626365       -17.0443
  26   2.0000      -0.615004       -16.7351
  27   2.0000      -0.562621       -15.3097
  28   2.0000      -0.550532       -14.9807
  29   2.0000      -0.524385       -14.2692
  30   2.0000      -0.512222       -13.9383
  31   2.0000      -0.498731       -13.5712
  32   2.0000      -0.454024       -12.3546
  33   2.0000      -0.431358       -11.7378
  34   2.0000      -0.430240       -11.7074
  35   2.0000      -0.426417       -11.6034
  36   2.0000      -0.423011       -11.5107
  37   2.0000      -0.411291       -11.1918
  38   2.0000      -0.392866       -10.6904
  39   2.0000      -0.387101       -10.5336
  40   2.0000      -0.372162       -10.1270
  41   2.0000      -0.368967       -10.0401
  42   2.0000      -0.361585        -9.8392
  43   2.0000      -0.358120        -9.7449
  44   2.0000      -0.356629        -9.7044
  45   2.0000      -0.344201        -9.3662
  46   2.0000      -0.338168        -9.2020
  47   2.0000      -0.333604        -9.0778
  48   2.0000      -0.325442        -8.8557
  49   2.0000      -0.317204        -8.6316
  50   2.0000      -0.313761        -8.5379
  51   2.0000      -0.302327        -8.2267
  52   2.0000      -0.284812        -7.7501
  53   2.0000      -0.274386        -7.4664
  54   2.0000      -0.251621        -6.8470
  55   2.0000      -0.218427        -5.9437
  56   2.0000      -0.213887        -5.8202
  57   2.0000      -0.211502        -5.7553
  58   2.0000      -0.182132        -4.9561
  59   0.0000      -0.030668        -0.8345
  60   0.0000      -0.013264        -0.3609
  61   0.0000       0.030748         0.8367
  62   0.0000       0.033954         0.9239
  63   0.0000       0.042266         1.1501

MULLIKEN ATOMIC CHARGES
-----------------------
   0 C :   -0.201519
   1 C :   -0.085860
   2 C :   -0.006708
   3 C :   -0.048347
   4 C :   -0.148729
   5 C :   -0.051622
   6 C :   -0.117842
   7 C :    0.128199
   8 C :    0.194687
   9 O :   -0.245680
  10 O :   -0.254930
  11 C :    0.196902
  12 O :   -0.220540
  13 N :   -0.292972
  14 C :   -0.176927
  15 C :   -0.197031
  16 H :    0.106420
  17 H :    0.103409
  18 H :    0.106951
  19 H :    0.092133
  20 H :    0.090257
  21 H :    0.030459
  22 H :    0.048105
  23 H :    0.037680
  24 H :    0.230143
  25 H :    0.111995
  26 H :    0.111623
  27 H :    0.137943
  28 H :    0.113671
  29 H :    0.101248
  30 H :    0.106881
Sum of atomic charges:    0.0000000

LOEWDIN ATOMIC CHARGES
----------------------
   0 C :   -0.327463
   1 C :    0.016016
   2 C :   -0.199115
   3 C :   -0.068689
   4 C :   -0.125745
   5 C :   -0.139162
   6 C :   -0.122316
   7 C :    0.008240
   8 C :    0.025676
   9 O :   -0.067627
  10 O :   -0.065616
  11 C :    0.029021
  12 O :   -0.192505
  13 N :   -0.179722
  14 C :   -0.258619
  15 C :   -0.327536
  16 H :    0.124119
  17 H :    0.124765
  18 H :    0.124879
  19 H :    0.132023
  20 H :    0.130419
  21 H :    0.123101
  22 H :    0.123322
  23 H :    0.131720
  24 H :    0.235990
  25 H :    0.115170
  26 H :    0.115551
  27 H :    0.137834
  28 H :    0.128082
  29 H :    0.123444
  30 H :    0.124744

  Mayer bond orders larger than 0.100000
B(  0-C ,  1-C ) :   1.1021 B(  0-C , 16-H ) :   0.9382 B(  0-C , 17-H ) :   0.9413
B(  0-C , 18-H ) :   0.9410 B(  1-C ,  2-C ) :   1.0577 B(  1-C ,  9-O ) :   0.9411
B(  1-C , 15-C ) :   1.1001 B(  2-C ,  3-C ) :   1.0643 B(  2-C , 19-H ) :   0.8799
B(  2-C , 20-H ) :   0.8791 B(  3-C ,  4-C ) :   1.3893 B(  3-C ,  6-C ) :   0.1009
B(  3-C ,  8-C ) :   1.3315 B(  4-C ,  5-C ) :   1.3062 B(  4-C , 21-H ) :   0.9839
B(  5-C ,  6-C ) :   1.3335 B(  5-C , 22-H ) :   0.9632 B(  6-C ,  7-C ) :   1.3967
B(  6-C , 23-H ) :   0.9714 B(  7-C ,  8-C ) :   1.3675 B(  7-C , 10-O ) :   0.9998
B(  8-C ,  9-O ) :   1.1597 B( 10-O , 11-C ) :   1.0768 B( 11-C , 12-O ) :   2.0402
B( 11-C , 13-N ) :   1.2185 B( 13-N , 14-C ) :   1.0284 B( 13-N , 24-H ) :   0.8609
B( 14-C , 25-H ) :   0.9584 B( 14-C , 26-H ) :   0.9588 B( 14-C , 27-H ) :   0.9367
B( 15-C , 28-H ) :   0.9373 B( 15-C , 29-H ) :   0.9402 B( 15-C , 30-H ) :   0.9401

Dispersion correction           -0.035694070
FINAL SINGLE POINT ENERGY      -745.175755688920

DIPOLE MOMENT
-------------

Method             : SCF
Type of density    : Electron Density
Multiplicity       :   1
Irrep              :   0
Energy             :  -745.2772211478472855 Eh
Relativity type    :
Basis              : AO
                                X                 Y                 Z
Electronic contribution:     -4.847843594      -9.402197660       2.075887150
Nuclear contribution   :      4.991309040      10.064281136      -1.500231025
                        -----------------------------------------
Total Dipole Moment    :      0.143465445       0.662083476       0.575656124
                        -----------------------------------------
Magnitude (a.u.)       :      0.888997658
Magnitude (Debye)      :      2.259652470

Rotational constants in cm-1:             0.026699             0.012441             0.009515
Rotational constants in MHz :           800.423724           372.975589           285.258533

                             ****ORCA TERMINATED NORMALLY****
TOTAL RUN TIME: 0 days 0 hours 0 minutes 26 seconds 382 msec
