                         Program Version 6.0.0  -   RELEASE  -
|  1> ! r2SCAN-3c DEF2-TZVP FREQ
|  2> * xyzfile 0 1 censo.xyz
|  3>
|  4>                          ****END OF INPUT****

CARTESIAN COORDINATES (ANGSTROEM)
---------------------------------
  C     -2.686835   -1.710931    0.831451
  C     -2.330469   -1.007974   -0.485141
  C     -1.304421    0.079144   -0.294658
  C     -1.710042    1.395601   -0.198887
  C     -0.794648    2.442737    0.032229
  C      0.545116    2.174423    0.166760
  C      1.017742    0.843055    0.071778
  C      0.086936   -0.224146   -0.160623
  C      0.596392   -1.545119   -0.255105
  C      1.942249   -1.800292   -0.126446
  C      2.852732   -0.747995    0.104575
  C      2.397297    0.544763    0.199698
  H     -3.106893   -0.995769    1.546119
  H     -1.805726   -2.168826    1.291386
  H     -3.428760   -2.497345    0.660074
  H     -3.236317   -0.560328   -0.906189
  H     -1.976814   -1.747177   -1.212089
  H     -2.766114    1.630250   -0.303391
  H     -1.157715    3.463663    0.100394
  H      1.259520    2.973126    0.344935
  H     -0.083995   -2.370443   -0.432415
  H      2.308055   -2.819372   -0.204565
  H      3.912034   -0.962890    0.204444
  H      3.090380    1.363257    0.374089

 Total Charge           Charge          ....    0
 Multiplicity           Mult            ....    1
 Number of Electrons    NEL             ....   84
 Basis Dimension        Dim             ....  444

ORBITAL ENERGIES
----------------

  NO   OCC          E(Eh)            E(eV)
   0   2.0000     -10.046423      -273.3771
   1   2.0000     -10.045417      -273.3497
   2   2.0000     -10.045349      -273.3479
   3   2.0000     -10.038373      -273.1580
   4   2.0000     -10.037768      -273.1416
   5   2.0000     -10.037580      -273.1364
   6   2.0000     -10.037401      -273.1316
   7   2.0000     -10.037035      -273.1216
   8   2.0000     -10.036264      -273.1006
   9   2.0000     -10.034650      -273.0567
  10   2.0000     -10.033847      -273.0348
  11   2.0000     -10.025293      -272.8021
  12   2.0000      -0.841486       -22.8980
  13   2.0000      -0.791187       -21.5293
  14   2.0000      -0.761976       -20.7344
  15   2.0000      -0.716852       -19.5065
  16   2.0000      -0.707729       -19.2583
  17   2.0000      -0.679594       -18.4927
  18   2.0000      -0.605026       -16.4636
  19   2.0000      -0.586015       -15.9463
  20   2.0000      -0.580645       -15.8002
  21   2.0000      -0.539628       -14.6840
  22   2.0000      -0.482286       -13.1237
  23   2.0000      -0.474949       -12.9240
  24   2.0000      -0.461751       -12.5649
  25   2.0000      -0.425920       -11.5899
  26   2.0000      -0.415200       -11.2982
  27   2.0000      -0.400951       -10.9104
  28   2.0000      -0.390259       -10.6195
  29   2.0000      -0.380181       -10.3452
  30   2.0000      -0.373961       -10.1760
  31   2.0000      -0.366681        -9.9779
  32   2.0000      -0.354143        -9.6367
  33   2.0000      -0.341847        -9.3021
  34   2.0000      -0.331621        -9.0239
  35   2.0000      -0.318688        -8.6720
  36   2.0000      -0.304604        -8.2887
  37   2.0000      -0.300535        -8.1780
  38   2.0000      -0.290929        -7.9166
  39   2.0000      -0.260572        -7.0905
  40   2.0000      -0.230319        -6.2673
  41   2.0000      -0.199716        -5.4346
  42   0.0000      -0.067853        -1.8464
  43   0.0000      -0.038687        -1.0527
  44   0.0000      -0.003447        -0.0938
  45   0.0000       0.047250         1.2857
  46   0.0000       0.060392         1.6433

MULLIKEN ATOMIC CHARGES
-----------------------
   0 C :   -0.331198
   1 C :   -0.193768
   2 C :    0.149931
   3 C :   -0.168364
   4 C :   -0.087665
   5 C :   -0.234680
   6 C :    0.175613
   7 C :    0.107131
   8 C :   -0.249002
   9 C :   -0.117182
  10 C :   -0.097127
  11 C :   -0.186742
  12 H :    0.108780
  13 H :    0.115664
  14 H :    0.105377
  15 H :    0.090679
  16 H :    0.092681
  17 H :    0.098939
  18 H :    0.106469
  19 H :    0.097095
  20 H :    0.103362
  21 H :    0.107699
  22 H :    0.108622
  23 H :    0.097687
Sum of atomic charges:    0.0000000

LOEWDIN ATOMIC CHARGES
----------------------
   0 C :   -0.296612
   1 C :   -0.241140
   2 C :   -0.107170
   3 C :   -0.115683
   4 C :   -0.141610
   5 C :   -0.107220
   6 C :   -0.090722
   7 C :   -0.061404
   8 C :   -0.104105
   9 C :   -0.142268
  10 C :   -0.143050
  11 C :   -0.100934
  12 H :    0.120988
  13 H :    0.120393
  14 H :    0.117563
  15 H :    0.140752
  16 H :    0.138553
  17 H :    0.145435
  18 H :    0.143138
  19 H :    0.145565
  20 H :    0.147382
  21 H :    0.142980
  22 H :    0.142897
  23 H :    0.146271

  Mayer bond orders larger than 0.100000
B(  0-C ,  1-C ) :   0.9736 B(  0-C , 12-H ) :   0.9731 B(  0-C , 13-H ) :   0.9758
B(  0-C , 14-H ) :   0.9716 B(  1-C ,  2-C ) :   0.8976 B(  1-C , 15-H ) :   0.9783
B(  1-C , 16-H ) :   0.9660 B(  2-C ,  3-C ) :   1.4746 B(  2-C ,  7-C ) :   1.1546
B(  3-C ,  4-C ) :   1.2640 B(  3-C , 17-H ) :   0.9766 B(  4-C ,  5-C ) :   1.5131
B(  4-C , 18-H ) :   0.9732 B(  5-C ,  6-C ) :   1.1866 B(  5-C , 19-H ) :   0.9870
B(  6-C ,  7-C ) :   1.2376 B(  6-C , 11-C ) :   1.2087 B(  7-C ,  8-C ) :   1.1530
B(  8-C ,  9-C ) :   1.5546 B(  8-C , 20-H ) :   0.9805 B(  9-C , 10-C ) :   1.2622
B(  9-C , 21-H ) :   0.9699 B( 10-C , 11-C ) :   1.5146 B( 10-C , 22-H ) :   0.9708
B( 11-C , 23-H ) :   0.9841

Dispersion correction           -0.009665098
FINAL SINGLE POINT ENERGY      -464.423496686543

DIPOLE MOMENT
-------------

Method             : SCF
Type of density    : Electron Density
Multiplicity       :   1
Irrep              :   0
Energy             :  -464.4204638690915772 Eh
Relativity type    :
Basis              : AO
                                X                 Y                 Z
Electronic contribution:      6.458926745       4.347916905      -1.357219656
Nuclear contribution   :     -6.581890977      -4.444640654       1.365094223
                        -----------------------------------------
Total Dipole Moment    :     -0.122964232      -0.096723748       0.007874567
                        -----------------------------------------
Magnitude (a.u.)       :      0.156645123
Magnitude (Debye)      :      0.398160260

VIBRATIONAL FREQUENCIES
-----------------------

Scaling factor for frequencies =  1.000000000  (already applied!)

     0:       0.00 cm**-1
     1:       0.00 cm**-1
     2:       0.00 cm**-1
     3:       0.00 cm**-1
     4:       0.00 cm**-1
     5:       0.00 cm**-1
     6:      93.21 cm**-1
     7:     107.99 cm**-1
     8:     173.15 cm**-1
     9:     193.36 cm**-1
    10:     229.10 cm**-1
    11:     304.10 cm**-1
    12:     331.67 cm**-1
    13:     433.27 cm**-1
    14:     448.63 cm**-1
    15:     476.14 cm**-1
    16:     490.18 cm**-1
    17:     523.02 cm**-1
    18:     565.99 cm**-1
    19:     593.39 cm**-1
    20:     660.99 cm**-1
    21:     707.73 cm**-1
    22:     736.56 cm**-1
    23:     790.02 cm**-1
    24:     794.61 cm**-1
    25:     810.23 cm**-1
    26:     816.30 cm**-1
    27:     866.25 cm**-1
    28:     872.00 cm**-1
    29:     902.06 cm**-1
    30:     943.83 cm**-1
    31:     954.89 cm**-1
    32:     965.38 cm**-1
    33:     967.06 cm**-1
    34:    1027.23 cm**-1
    35:    1047.41 cm**-1
    36:    1075.05 cm**-1
    37:    1101.44 cm**-1
    38:    1110.46 cm**-1
    39:    1166.29 cm**-1
    40:    1184.91 cm**-1
    41:    1189.52 cm**-1
    42:    1238.97 cm**-1
    43:    1251.36 cm**-1
    44:    1278.46 cm**-1
    45:    1286.59 cm**-1
    46:    1338.98 cm**-1
    47:    1382.53 cm**-1
    48:    1391.03 cm**-1
    49:    1397.73 cm**-1
    50:    1423.46 cm**-1
    51:    1466.91 cm**-1
    52:    1487.40 cm**-1
    53:    1488.19 cm**-1
    54:    1489.20 cm**-1
    55:    1502.76 cm**-1
    56:    1541.35 cm**-1
    57:    1608.04 cm**-1
    58:    1625.28 cm**-1
    59:    1647.45 cm**-1
    60:    3007.51 cm**-1
    61:    3021.05 cm**-1
    62:    3062.03 cm**-1
    63:    3086.20 cm**-1
    64:    3094.65 cm**-1
    65:    3146.95 cm**-1
    66:    3151.23 cm**-1
    67:    3156.07 cm**-1
    68:    3161.17 cm**-1
    69:    3173.66 cm**-1
    70:    3175.18 cm**-1
    71:    3186.99 cm**-1

IR SPECTRUM
-----------

 Mode   freq       eps      Int      T**2         TX        TY        TZ
       cm**-1   L/(mol*cm) km/mol    a.u.
----------------------------------------------------------------------------
  6:     93.21   0.000014    0.07  0.000047  (-0.002409  0.001743 -0.006210)
  7:    107.99   0.000056    0.28  0.000160  (-0.002635 -0.001606  0.012283)
  8:    173.15   0.000517    2.61  0.000932  ( 0.004690  0.004803 -0.029783)
  9:    193.36   0.000004    0.02  0.000006  ( 0.000828 -0.001849  0.001340)
 10:    229.10   0.000017    0.08  0.000023  (-0.001350  0.001379  0.004354)
 11:    304.10   0.000220    1.11  0.000225  (-0.002900 -0.004866 -0.013904)
 12:    331.67   0.000293    1.48  0.000276  (-0.008098 -0.008488  0.011762)
 13:    433.27   0.001538    7.77  0.001108  ( 0.006869  0.003614 -0.032365)
 14:    448.63   0.000197    0.99  0.000137  ( 0.010124  0.005042  0.002989)
 15:    476.14   0.000030    0.15  0.000020  (-0.004105 -0.001170 -0.001253)
 16:    490.18   0.000459    2.32  0.000292  ( 0.006582  0.000187  0.015773)
 17:    523.02   0.000076    0.39  0.000045  ( 0.004173 -0.002522  0.004657)
 18:    565.99   0.000367    1.85  0.000202  ( 0.004199 -0.002899  0.013270)
 19:    593.39   0.000556    2.81  0.000292  ( 0.009779 -0.001029 -0.013992)
 20:    660.99   0.000153    0.77  0.000072  ( 0.004597 -0.000152 -0.007149)
 21:    707.73   0.000342    1.73  0.000151  ( 0.011114 -0.004301  0.002952)
 22:    736.56   0.000376    1.90  0.000159  (-0.002791 -0.000406  0.012302)
 23:    790.02   0.015012   75.86  0.005930  ( 0.010576  0.007445 -0.075911)
 24:    794.61   0.002566   12.97  0.001008  (-0.003449 -0.009565  0.030074)
 25:    810.23   0.002065   10.43  0.000795  (-0.003265 -0.000371  0.028008)
 26:    816.30   0.000164    0.83  0.000063  (-0.007899  0.000295  0.000361)
 27:    866.25   0.000247    1.25  0.000089  (-0.009337  0.000783  0.001083)
 28:    872.00   0.000378    1.91  0.000135  ( 0.000734  0.000297  0.011604)
 29:    902.06   0.000003    0.01  0.000001  (-0.000722 -0.000621 -0.000267)
 30:    943.83   0.000085    0.43  0.000028  ( 0.001686  0.000442 -0.004998)
 31:    954.89   0.000128    0.65  0.000042  ( 0.000811  0.001205 -0.006295)
 32:    965.38   0.000232    1.17  0.000075  ( 0.006184  0.006011 -0.000794)
 33:    967.06   0.000212    1.07  0.000068  (-0.006025 -0.004899 -0.002844)
 34:   1027.23   0.001059    5.35  0.000322  ( 0.017536 -0.003728  0.000608)
 35:   1047.41   0.000820    4.14  0.000244  (-0.011544  0.010527  0.000318)
 36:   1075.05   0.001420    7.18  0.000412  ( 0.012835  0.015333  0.003531)
 37:   1101.44   0.000428    2.16  0.000121  (-0.009121  0.005899 -0.001820)
 38:   1110.46   0.000361    1.82  0.000101  (-0.002826 -0.009573 -0.001327)
 39:   1166.29   0.000144    0.73  0.000038  ( 0.005343  0.002693  0.001622)
 40:   1184.91   0.000106    0.53  0.000028  ( 0.005278 -0.000057  0.000130)
 41:   1189.52   0.000502    2.54  0.000132  (-0.006505 -0.008629 -0.003879)
 42:   1238.97   0.000195    0.99  0.000049  (-0.003351  0.006144  0.000390)
 43:   1251.36   0.000113    0.57  0.000028  ( 0.004290 -0.002784 -0.001399)
 44:   1278.46   0.000243    1.23  0.000059  ( 0.005580  0.005295 -0.000139)
 45:   1286.59   0.000527    2.66  0.000128  (-0.007487 -0.008448 -0.000533)
 46:   1338.98   0.000179    0.90  0.000042  ( 0.005812  0.002191 -0.001756)
 47:   1382.53   0.000068    0.34  0.000015  (-0.000851 -0.003818  0.000006)
 48:   1391.03   0.000366    1.85  0.000082  ( 0.005659 -0.007073 -0.000003)
 49:   1397.73   0.000617    3.12  0.000138  ( 0.001931  0.000250  0.011570)
 50:   1423.46   0.001928    9.74  0.000423  (-0.017669 -0.010509  0.000114)
 51:   1466.91   0.000172    0.87  0.000037  ( 0.005270  0.002124  0.002075)
 52:   1487.40   0.000490    2.47  0.000103  ( 0.004095 -0.008397  0.003933)
 53:   1488.19   0.001418    7.17  0.000297  (-0.012742  0.011119  0.003381)
 54:   1489.20   0.000132    0.67  0.000028  (-0.000940  0.002920 -0.004281)
 55:   1502.76   0.001311    6.62  0.000272  ( 0.010006  0.002434  0.012890)
 56:   1541.35   0.001539    7.78  0.000312  ( 0.007453 -0.015963 -0.001106)
 57:   1608.04   0.000391    1.98  0.000076  (-0.005371 -0.006799  0.000888)
 58:   1625.28   0.001209    6.11  0.000232  (-0.006468 -0.013680 -0.001749)
 59:   1647.45   0.000021    0.11  0.000004  ( 0.000036  0.001871 -0.000738)
 60:   3007.51   0.006854   34.64  0.000711  (-0.015346 -0.015557  0.015286)
 61:   3021.05   0.005458   27.58  0.000564  ( 0.009614  0.005237  0.021071)
 62:   3062.03   0.000931    4.70  0.000095  (-0.008896  0.003878 -0.000812)
 63:   3086.20   0.007809   39.46  0.000790  (-0.014247 -0.020855 -0.012317)
 64:   3094.65   0.006503   32.86  0.000656  (-0.023703  0.009688 -0.000242)
 65:   3146.95   0.001465    7.41  0.000145  (-0.011556 -0.002987 -0.001689)
 66:   3151.23   0.000221    1.12  0.000022  ( 0.001208  0.004491  0.000470)
 67:   3156.07   0.002502   12.64  0.000247  (-0.015108 -0.003588 -0.002496)
 68:   3161.17   0.001902    9.61  0.000188  ( 0.005681  0.012287  0.002121)
 69:   3173.66   0.005198   26.27  0.000511  (-0.008531  0.020921  0.000805)
 70:   3175.18   0.004553   23.01  0.000447  ( 0.020223  0.005685  0.002492)
 71:   3186.99   0.002551   12.89  0.000250  (-0.002424  0.015525  0.001694)

--------------------------
THERMOCHEMISTRY AT 298.15K
--------------------------

Temperature         ...   298.15 K
Pressure            ...     1.00 atm
Total Mass          ...   156.23 AMU
Quasi RRHO          ...     True
Cut-Off Frequency   ...     1.00 cm^-1

Throughout the following assumptions are being made:
  (1) The electronic state is orbitally nondegenerate
  (2) There are no thermally accessible electronically excited states
  (3) Hindered rotations indicated by low frequency modes are not
      treated as such but are treated as vibrations and this may
      cause some error
  (4) All equations used are the standard statistical mechanics
      equations for an ideal gas
  (5) All vibrations are strictly harmonic

freq.      93.21  E(vib)   ...       0.47
freq.     107.99  E(vib)   ...       0.45
freq.     173.15  E(vib)   ...       0.38
freq.     193.36  E(vib)   ...       0.36
freq.     229.10  E(vib)   ...       0.32
freq.     304.10  E(vib)   ...       0.26
freq.     331.67  E(vib)   ...       0.24
freq.     433.27  E(vib)   ...       0.17
freq.     448.63  E(vib)   ...       0.17
freq.     476.14  E(vib)   ...       0.15
freq.     490.18  E(vib)   ...       0.15
freq.     523.02  E(vib)   ...       0.13
freq.     565.99  E(vib)   ...       0.11
freq.     593.39  E(vib)   ...       0.10
freq.     660.99  E(vib)   ...       0.08
freq.     707.73  E(vib)   ...       0.07
freq.     736.56  E(vib)   ...       0.06
freq.     790.02  E(vib)   ...       0.05
freq.     794.61  E(vib)   ...       0.05
freq.     810.23  E(vib)   ...       0.05
freq.     816.30  E(vib)   ...       0.05
freq.     866.25  E(vib)   ...       0.04
freq.     872.00  E(vib)   ...       0.04
freq.     902.06  E(vib)   ...       0.03
freq.     943.83  E(vib)   ...       0.03
freq.     954.89  E(vib)   ...       0.03
freq.     965.38  E(vib)   ...       0.03
freq.     967.06  E(vib)   ...       0.03
freq.    1027.23  E(vib)   ...       0.02
freq.    1047.41  E(vib)   ...       0.02
freq.    1075.05  E(vib)   ...       0.02
freq.    1101.44  E(vib)   ...       0.02
freq.    1110.46  E(vib)   ...       0.02
freq.    1166.29  E(vib)   ...       0.01
freq.    1184.91  E(vib)   ...       0.01
freq.    1189.52  E(vib)   ...       0.01
freq.    1238.97  E(vib)   ...       0.01
freq.    1251.36  E(vib)   ...       0.01
freq.    1278.46  E(vib)   ...       0.01
freq.    1286.59  E(vib)   ...       0.01
freq.    1338.98  E(vib)   ...       0.01
freq.    1382.53  E(vib)   ...       0.01
freq.    1391.03  E(vib)   ...       0.00
freq.    1397.73  E(vib)   ...       0.00
freq.    1423.46  E(vib)   ...       0.00
freq.    1466.91  E(vib)   ...       0.00
freq.    1487.40  E(vib)   ...       0.00
freq.    1488.19  E(vib)   ...       0.00
freq.    1489.20  E(vib)   ...       0.00
freq.    1502.76  E(vib)   ...       0.00
freq.    1541.35  E(vib)   ...       0.00
freq.    1608.04  E(vib)   ...       0.00
freq.    1625.28  E(vib)   ...       0.00
freq.    1647.45  E(vib)   ...       0.00
freq.    3007.51  E(vib)   ...       0.00
freq.    3021.05  E(vib)   ...       0.00
freq.    3062.03  E(vib)   ...       0.00
freq.    3086.20  E(vib)   ...       0.00
freq.    3094.65  E(vib)   ...       0.00
freq.    3146.95  E(vib)   ...       0.00
freq.    3151.23  E(vib)   ...       0.00
freq.    3156.07  E(vib)   ...       0.00
freq.    3161.17  E(vib)   ...       0.00
freq.    3173.66  E(vib)   ...       0.00
freq.    3175.18  E(vib)   ...       0.00
freq.    3186.99  E(vib)   ...       0.00

------------
INNER ENERGY
------------

The inner energy is: U= E(el) + E(ZPE) + E(vib) + E(rot) + E(trans)
    E(el)   - is the total energy from the electronic structure calculation
              = E(kin-el) + E(nuc-el) + E(el-el) + E(nuc-nuc)
    E(ZPE)  - the the zero temperature vibrational energy from the frequency calculation
    E(vib)  - the the finite temperature correction to E(ZPE) due to population
              of excited vibrational states
    E(rot)  - is the rotational thermal energy
    E(trans)- is the translational thermal energy

Summary of contributions to the inner energy U:
Electronic energy                ...   -464.42349669 Eh
Zero point energy                ...      0.20257890 Eh     127.12 kcal/mol
Thermal vibrational correction   ...      0.00684602 Eh       4.30 kcal/mol
Thermal rotational correction    ...      0.00141627 Eh       0.89 kcal/mol
Thermal translational correction ...      0.00141627 Eh       0.89 kcal/mol
-----------------------------------------------------------------------
Total thermal energy                   -464.21123922 Eh

Summary of corrections to the electronic energy:
(perhaps to be used in another calculation)
Total thermal correction                  0.00967856 Eh       6.07 kcal/mol
Non-thermal (ZPE) correction              0.20257890 Eh     127.12 kcal/mol
-----------------------------------------------------------------------
Total correction                          0.21225746 Eh     133.19 kcal/mol

--------
ENTHALPY
--------

The enthalpy is H = U + kB*T
                kB is Boltzmann's constant
Total thermal energy              ...   -464.21123922 Eh
Thermal Enthalpy correction       ...      0.00094421 Eh       0.59 kcal/mol
-----------------------------------------------------------------------
Total Enthalpy                    ...   -464.21029502 Eh

Note: Only C1 symmetry has been detected, increase convergence thresholds
      if your molecule has a higher symmetry. Symmetry factor of 1.0 is
      used for the rotational entropy correction.

Note: Rotational entropy computed according to Herzberg
Infrared and Raman Spectra, Chapter V,1, Van Nostrand Reinhold, 1945
Point Group:  C1, Symmetry Number:   1
Rotational constants in cm-1:     0.046273     0.030626     0.019379

Vibrational entropy computed according to the QRRHO of S. Grimme
Chem.Eur.J. 2012 18 9955 using a reference frequency of 100.0 cm-1

-------
ENTROPY
-------

The entropy contributions are T*S = T*(S(el)+S(vib)+S(rot)+S(trans))
     S(el)   - electronic entropy
     S(vib)  - vibrational entropy
     S(rot)  - rotational entropy
     S(trans)- translational entropy
The entropies will be listed as multiplied by the temperature to get
units of energy

Electronic entropy                ...      0.00000000 Eh      0.00 kcal/mol
Vibrational entropy               ...      0.01116694 Eh      7.01 kcal/mol
Rotational entropy                ...      0.01446903 Eh      9.08 kcal/mol
Translational entropy             ...      0.01950311 Eh     12.24 kcal/mol
-----------------------------------------------------------------------
Final entropy term                ...      0.04513908 Eh     28.33 kcal/mol

                             ****ORCA TERMINATED NORMALLY****
TOTAL RUN TIME: 0 days 0 hours 31 minutes 29 seconds 547 msec
