                         Program Version 6.0.0  -   RELEASE  -
|  1> ! r2SCAN-3c DEF2-TZVP FREQ
|  2> * xyzfile 0 1 vacuum_censo.xyz
|  3>
|  4>                          ****END OF INPUT****

CARTESIAN COORDINATES (ANGSTROEM)
---------------------------------
  C     -2.683607   -1.715012    0.834272
  C     -2.328131   -1.009179   -0.482562
  C     -1.302988    0.079593   -0.293372
  C     -1.709808    1.393979   -0.199494
  C     -0.796544    2.441205    0.031284
  C      0.541432    2.172265    0.167090
  C      1.016075    0.842967    0.072796
  C      0.086728   -0.223371   -0.160798
  C      0.598255   -1.541929   -0.257535
  C      1.942707   -1.797871   -0.128738
  C      2.851278   -0.746561    0.104877
  C      2.393875    0.544119    0.201023
  H     -1.799474   -2.163470    1.296291
  H     -3.422338   -2.505115    0.666977
  H     -3.102059   -0.999363    1.548272
  H     -3.234772   -0.565248   -0.906827
  H     -1.975599   -1.744282   -1.214845
  H     -2.765897    1.627875   -0.305242
  H     -1.159149    3.462044    0.098221
  H      1.253737    2.972579    0.345770
  H     -0.081398   -2.367056   -0.437773
  H      2.308451   -2.816562   -0.209322
  H      3.910554   -0.959833    0.205368
  H      3.087480    1.361716    0.376988

 Total Charge           Charge          ....    0
 Multiplicity           Mult            ....    1
 Number of Electrons    NEL             ....   84
 Basis Dimension        Dim             ....  444

ORBITAL ENERGIES
----------------

  NO   OCC          E(Eh)            E(eV)
   0   2.0000     -10.045882      -273.3623
   1   2.0000     -10.045003      -273.3384
   2   2.0000     -10.044869      -273.3348
   3   2.0000     -10.037916      -273.1456
   4   2.0000     -10.037371      -273.1308
   5   2.0000     -10.037361      -273.1305
   6   2.0000     -10.037165      -273.1251
   7   2.0000     -10.036626      -273.1105
   8   2.0000     -10.035863      -273.0897
   9   2.0000     -10.034246      -273.0457
  10   2.0000     -10.033469      -273.0246
  11   2.0000     -10.025207      -272.7997
  12   2.0000      -0.842175       -22.9168
  13   2.0000      -0.791733       -21.5441
  14   2.0000      -0.762028       -20.7358
  15   2.0000      -0.716801       -19.5051
  16   2.0000      -0.708231       -19.2720
  17   2.0000      -0.679748       -18.4969
  18   2.0000      -0.605196       -16.4682
  19   2.0000      -0.586286       -15.9537
  20   2.0000      -0.580949       -15.8084
  21   2.0000      -0.539760       -14.6876
  22   2.0000      -0.482356       -13.1256
  23   2.0000      -0.475138       -12.9292
  24   2.0000      -0.462105       -12.5745
  25   2.0000      -0.425649       -11.5825
  26   2.0000      -0.415027       -11.2935
  27   2.0000      -0.400861       -10.9080
  28   2.0000      -0.390269       -10.6198
  29   2.0000      -0.380410       -10.3515
  30   2.0000      -0.374104       -10.1799
  31   2.0000      -0.366762        -9.9801
  32   2.0000      -0.354354        -9.6425
  33   2.0000      -0.341929        -9.3044
  34   2.0000      -0.331709        -9.0263
  35   2.0000      -0.318218        -8.6591
  36   2.0000      -0.305017        -8.2999
  37   2.0000      -0.300673        -8.1817
  38   2.0000      -0.290665        -7.9094
  39   2.0000      -0.260750        -7.0954
  40   2.0000      -0.230583        -6.2745
  41   2.0000      -0.199814        -5.4372
  42   0.0000      -0.067700        -1.8422
  43   0.0000      -0.038491        -1.0474
  44   0.0000      -0.002955        -0.0804
  45   0.0000       0.047479         1.2920
  46   0.0000       0.060842         1.6556

MULLIKEN ATOMIC CHARGES
-----------------------
   0 C :   -0.331094
   1 C :   -0.195127
   2 C :    0.149884
   3 C :   -0.167373
   4 C :   -0.087593
   5 C :   -0.234528
   6 C :    0.175393
   7 C :    0.107662
   8 C :   -0.249638
   9 C :   -0.116815
  10 C :   -0.096788
  11 C :   -0.186596
  12 H :    0.115788
  13 H :    0.105822
  14 H :    0.108702
  15 H :    0.090700
  16 H :    0.092833
  17 H :    0.098838
  18 H :    0.106486
  19 H :    0.096673
  20 H :    0.103318
  21 H :    0.107609
  22 H :    0.108563
  23 H :    0.097279
Sum of atomic charges:   -0.0000000

LOEWDIN ATOMIC CHARGES
----------------------
   0 C :   -0.296413
   1 C :   -0.240646
   2 C :   -0.107572
   3 C :   -0.115646
   4 C :   -0.141646
   5 C :   -0.107040
   6 C :   -0.091196
   7 C :   -0.061911
   8 C :   -0.103909
   9 C :   -0.142340
  10 C :   -0.143115
  11 C :   -0.100869
  12 H :    0.120352
  13 H :    0.117424
  14 H :    0.120890
  15 H :    0.140499
  16 H :    0.138405
  17 H :    0.145654
  18 H :    0.143258
  19 H :    0.145696
  20 H :    0.147605
  21 H :    0.143099
  22 H :    0.142999
  23 H :    0.146421

  Mayer bond orders larger than 0.100000
B(  0-C ,  1-C ) :   0.9738 B(  0-C , 12-H ) :   0.9760 B(  0-C , 13-H ) :   0.9713
B(  0-C , 14-H ) :   0.9733 B(  1-C ,  2-C ) :   0.8976 B(  1-C , 15-H ) :   0.9783
B(  1-C , 16-H ) :   0.9661 B(  2-C ,  3-C ) :   1.4757 B(  2-C ,  7-C ) :   1.1543
B(  3-C ,  4-C ) :   1.2637 B(  3-C , 17-H ) :   0.9768 B(  4-C ,  5-C ) :   1.5144
B(  4-C , 18-H ) :   0.9733 B(  5-C ,  6-C ) :   1.1863 B(  5-C , 19-H ) :   0.9871
B(  6-C ,  7-C ) :   1.2382 B(  6-C , 11-C ) :   1.2089 B(  7-C ,  8-C ) :   1.1536
B(  8-C ,  9-C ) :   1.5545 B(  8-C , 20-H ) :   0.9807 B(  9-C , 10-C ) :   1.2624
B(  9-C , 21-H ) :   0.9701 B( 10-C , 11-C ) :   1.5151 B( 10-C , 22-H ) :   0.9709
B( 11-C , 23-H ) :   0.9844

Dispersion correction           -0.009671391
FINAL SINGLE POINT ENERGY      -464.423565291947

DIPOLE MOMENT
-------------

Method             : SCF
Type of density    : Electron Density
Multiplicity       :   1
Irrep              :   0
Energy             :  -464.4205312100239098 Eh
Relativity type    :
Basis              : AO
                                X                 Y                 Z
Electronic contribution:      6.448488972       4.351564706      -1.356029055
Nuclear contribution   :     -6.569202166      -4.446199031       1.363249820
                        -----------------------------------------
Total Dipole Moment    :     -0.120713194      -0.094634324       0.007220766
                        -----------------------------------------
Magnitude (a.u.)       :      0.153556081
Magnitude (Debye)      :      0.390308539

VIBRATIONAL FREQUENCIES
-----------------------

Scaling factor for frequencies =  1.000000000  (already applied!)

     0:       0.00 cm**-1
     1:       0.00 cm**-1
     2:       0.00 cm**-1
     3:       0.00 cm**-1
     4:       0.00 cm**-1
     5:       0.00 cm**-1
     6:      92.20 cm**-1
     7:     106.48 cm**-1
     8:     170.29 cm**-1
     9:     191.02 cm**-1
    10:     220.31 cm**-1
    11:     302.78 cm**-1
    12:     330.92 cm**-1
    13:     431.63 cm**-1
    14:     448.11 cm**-1
    15:     474.75 cm**-1
    16:     490.03 cm**-1
    17:     523.63 cm**-1
    18:     565.91 cm**-1
    19:     592.77 cm**-1
    20:     660.15 cm**-1
    21:     708.95 cm**-1
    22:     735.96 cm**-1
    23:     789.37 cm**-1
    24:     793.07 cm**-1
    25:     809.76 cm**-1
    26:     816.42 cm**-1
    27:     866.82 cm**-1
    28:     872.14 cm**-1
    29:     902.82 cm**-1
    30:     944.21 cm**-1
    31:     955.13 cm**-1
    32:     963.39 cm**-1
    33:     966.66 cm**-1
    34:    1027.85 cm**-1
    35:    1050.32 cm**-1
    36:    1074.82 cm**-1
    37:    1102.60 cm**-1
    38:    1111.48 cm**-1
    39:    1168.14 cm**-1
    40:    1185.88 cm**-1
    41:    1190.82 cm**-1
    42:    1242.00 cm**-1
    43:    1252.63 cm**-1
    44:    1278.00 cm**-1
    45:    1288.32 cm**-1
    46:    1340.35 cm**-1
    47:    1387.84 cm**-1
    48:    1396.32 cm**-1
    49:    1397.02 cm**-1
    50:    1425.56 cm**-1
    51:    1469.55 cm**-1
    52:    1486.52 cm**-1
    53:    1490.03 cm**-1
    54:    1490.75 cm**-1
    55:    1503.80 cm**-1
    56:    1545.44 cm**-1
    57:    1612.98 cm**-1
    58:    1630.44 cm**-1
    59:    1653.27 cm**-1
    60:    3011.61 cm**-1
    61:    3018.77 cm**-1
    62:    3058.12 cm**-1
    63:    3090.55 cm**-1
    64:    3098.02 cm**-1
    65:    3147.62 cm**-1
    66:    3152.18 cm**-1
    67:    3156.78 cm**-1
    68:    3162.59 cm**-1
    69:    3175.80 cm**-1
    70:    3177.09 cm**-1
    71:    3188.17 cm**-1

IR SPECTRUM
-----------

 Mode   freq       eps      Int      T**2         TX        TY        TZ
       cm**-1   L/(mol*cm) km/mol    a.u.
----------------------------------------------------------------------------
  6:     92.20   0.000015    0.07  0.000049  (-0.002188  0.001758 -0.006422)
  7:    106.48   0.000049    0.25  0.000145  (-0.002457 -0.001522  0.011679)
  8:    170.29   0.000516    2.61  0.000945  ( 0.004605  0.004851 -0.030009)
  9:    191.02   0.000007    0.03  0.000011  ( 0.000836 -0.002167  0.002413)
 10:    220.31   0.000017    0.08  0.000023  (-0.001538  0.001344  0.004390)
 11:    302.78   0.000224    1.13  0.000231  (-0.002735 -0.004774 -0.014166)
 12:    330.92   0.000290    1.47  0.000273  (-0.008347 -0.008602  0.011389)
 13:    431.63   0.001555    7.86  0.001124  ( 0.006766  0.003651 -0.032633)
 14:    448.11   0.000198    1.00  0.000138  (-0.010176 -0.005070 -0.002901)
 15:    474.75   0.000024    0.12  0.000016  (-0.003789 -0.001234 -0.000383)
 16:    490.03   0.000447    2.26  0.000285  ( 0.006757  0.000237  0.015458)
 17:    523.63   0.000076    0.38  0.000045  ( 0.004196 -0.002536  0.004590)
 18:    565.91   0.000375    1.89  0.000207  ( 0.003817 -0.002914  0.013548)
 19:    592.77   0.000531    2.69  0.000280  ( 0.009861 -0.001202 -0.013458)
 20:    660.15   0.000151    0.76  0.000071  ( 0.004630 -0.000087 -0.007072)
 21:    708.95   0.000352    1.78  0.000155  ( 0.011291 -0.004308  0.002971)
 22:    735.96   0.000378    1.91  0.000160  (-0.002870 -0.000583  0.012316)
 23:    789.37   0.013621   68.83  0.005385  ( 0.010547  0.006307 -0.072345)
 24:    793.07   0.003792   19.17  0.001492  ( 0.003711  0.010539 -0.036979)
 25:    809.76   0.002195   11.09  0.000846  (-0.003842 -0.000684  0.028819)
 26:    816.42   0.000163    0.83  0.000062  ( 0.007882  0.000087  0.000595)
 27:    866.82   0.000253    1.28  0.000091  (-0.009408  0.000655  0.001493)
 28:    872.14   0.000370    1.87  0.000132  ( 0.001044  0.000314  0.011455)
 29:    902.82   0.000004    0.02  0.000001  (-0.000732 -0.000612 -0.000580)
 30:    944.21   0.000083    0.42  0.000027  ( 0.001643  0.000318 -0.004950)
 31:    955.13   0.000142    0.72  0.000046  ( 0.000929  0.001310 -0.006624)
 32:    963.39   0.000371    1.87  0.000120  ( 0.007981  0.007481  0.000623)
 33:    966.66   0.000052    0.26  0.000017  (-0.002382 -0.001546 -0.002952)
 34:   1027.85   0.001010    5.10  0.000307  ( 0.017282 -0.002729  0.000706)
 35:   1050.32   0.000907    4.58  0.000269  (-0.012400  0.010748  0.000305)
 36:   1074.82   0.001355    6.85  0.000393  ( 0.012585  0.014904  0.003594)
 37:   1102.60   0.000403    2.04  0.000114  (-0.009124  0.005204 -0.001947)
 38:   1111.48   0.000410    2.07  0.000115  (-0.001951 -0.010479 -0.001188)
 39:   1168.14   0.000147    0.74  0.000039  (-0.005313 -0.002837 -0.001718)
 40:   1185.88   0.000109    0.55  0.000029  ( 0.005353  0.000207  0.000216)
 41:   1190.82   0.000472    2.38  0.000124  (-0.006267 -0.008317 -0.003889)
 42:   1242.00   0.000184    0.93  0.000046  (-0.003270  0.005960  0.000291)
 43:   1252.63   0.000130    0.65  0.000032  ( 0.004438 -0.003254 -0.001411)
 44:   1278.00   0.000217    1.10  0.000053  (-0.005457 -0.004821  0.000200)
 45:   1288.32   0.000555    2.80  0.000134  (-0.007612 -0.008728 -0.000514)
 46:   1340.35   0.000184    0.93  0.000043  ( 0.005799  0.002297 -0.002005)
 47:   1387.84   0.000101    0.51  0.000023  (-0.000593 -0.004685  0.000594)
 48:   1396.32   0.000616    3.11  0.000138  ( 0.001328  0.000899  0.011625)
 49:   1397.02   0.000341    1.72  0.000076  ( 0.005072 -0.007060  0.000783)
 50:   1425.56   0.001946    9.84  0.000426  (-0.017910 -0.010261 -0.000117)
 51:   1469.55   0.000169    0.86  0.000036  ( 0.005151  0.002245  0.002101)
 52:   1486.52   0.001751    8.85  0.000368  ( 0.013453 -0.013601 -0.001298)
 53:   1490.03   0.000240    1.21  0.000050  (-0.001671 -0.003783  0.005752)
 54:   1490.75   0.000017    0.08  0.000003  (-0.000642  0.001239 -0.001243)
 55:   1503.80   0.001337    6.76  0.000277  ( 0.009929  0.002366  0.013163)
 56:   1545.44   0.001531    7.74  0.000309  ( 0.007434 -0.015901 -0.001002)
 57:   1612.98   0.000377    1.90  0.000073  (-0.005259 -0.006663  0.000926)
 58:   1630.44   0.001168    5.90  0.000224  (-0.006364 -0.013419 -0.001742)
 59:   1653.27   0.000026    0.13  0.000005  ( 0.000211  0.002060 -0.000731)
 60:   3011.61   0.006921   34.98  0.000717  (-0.015960 -0.016262  0.014069)
 61:   3018.77   0.005692   28.77  0.000588  (-0.009029 -0.004938 -0.021967)
 62:   3058.12   0.001455    7.35  0.000148  (-0.010771  0.005667 -0.000584)
 63:   3090.55   0.007323   37.01  0.000739  (-0.013161 -0.020212 -0.012557)
 64:   3098.02   0.006156   31.11  0.000620  (-0.023294  0.008786 -0.000545)
 65:   3147.62   0.001673    8.45  0.000166  (-0.012531 -0.002381 -0.001773)
 66:   3152.18   0.000305    1.54  0.000030  ( 0.001934  0.005109  0.000611)
 67:   3156.78   0.002485   12.56  0.000246  (-0.014734 -0.004685 -0.002563)
 68:   3162.59   0.001752    8.85  0.000173  ( 0.005074  0.011956  0.002050)
 69:   3175.80   0.005125   25.90  0.000504  (-0.008590  0.020717  0.000761)
 70:   3177.09   0.004565   23.07  0.000448  ( 0.019999  0.006465  0.002572)
 71:   3188.17   0.002612   13.20  0.000256  (-0.003251  0.015570  0.001632)

--------------------------
THERMOCHEMISTRY AT 298.15K
--------------------------

Temperature         ...   298.15 K
Pressure            ...     1.00 atm
Total Mass          ...   156.23 AMU
Quasi RRHO          ...     True
Cut-Off Frequency   ...     1.00 cm^-1

Throughout the following assumptions are being made:
  (1) The electronic state is orbitally nondegenerate
  (2) There are no thermally accessible electronically excited states
  (3) Hindered rotations indicated by low frequency modes are not
      treated as such but are treated as vibrations and this may
      cause some error
  (4) All equations used are the standard statistical mechanics
      equations for an ideal gas
  (5) All vibrations are strictly harmonic

freq.      92.20  E(vib)   ...       0.47
freq.     106.48  E(vib)   ...       0.45
freq.     170.29  E(vib)   ...       0.38
freq.     191.02  E(vib)   ...       0.36
freq.     220.31  E(vib)   ...       0.33
freq.     302.78  E(vib)   ...       0.26
freq.     330.92  E(vib)   ...       0.24
freq.     431.63  E(vib)   ...       0.18
freq.     448.11  E(vib)   ...       0.17
freq.     474.75  E(vib)   ...       0.15
freq.     490.03  E(vib)   ...       0.15
freq.     523.63  E(vib)   ...       0.13
freq.     565.91  E(vib)   ...       0.11
freq.     592.77  E(vib)   ...       0.10
freq.     660.15  E(vib)   ...       0.08
freq.     708.95  E(vib)   ...       0.07
freq.     735.96  E(vib)   ...       0.06
freq.     789.37  E(vib)   ...       0.05
freq.     793.07  E(vib)   ...       0.05
freq.     809.76  E(vib)   ...       0.05
freq.     816.42  E(vib)   ...       0.05
freq.     866.82  E(vib)   ...       0.04
freq.     872.14  E(vib)   ...       0.04
freq.     902.82  E(vib)   ...       0.03
freq.     944.21  E(vib)   ...       0.03
freq.     955.13  E(vib)   ...       0.03
freq.     963.39  E(vib)   ...       0.03
freq.     966.66  E(vib)   ...       0.03
freq.    1027.85  E(vib)   ...       0.02
freq.    1050.32  E(vib)   ...       0.02
freq.    1074.82  E(vib)   ...       0.02
freq.    1102.60  E(vib)   ...       0.02
freq.    1111.48  E(vib)   ...       0.01
freq.    1168.14  E(vib)   ...       0.01
freq.    1185.88  E(vib)   ...       0.01
freq.    1190.82  E(vib)   ...       0.01
freq.    1242.00  E(vib)   ...       0.01
freq.    1252.63  E(vib)   ...       0.01
freq.    1278.00  E(vib)   ...       0.01
freq.    1288.32  E(vib)   ...       0.01
freq.    1340.35  E(vib)   ...       0.01
freq.    1387.84  E(vib)   ...       0.00
freq.    1396.32  E(vib)   ...       0.00
freq.    1397.02  E(vib)   ...       0.00
freq.    1425.56  E(vib)   ...       0.00
freq.    1469.55  E(vib)   ...       0.00
freq.    1486.52  E(vib)   ...       0.00
freq.    1490.03  E(vib)   ...       0.00
freq.    1490.75  E(vib)   ...       0.00
freq.    1503.80  E(vib)   ...       0.00
freq.    1545.44  E(vib)   ...       0.00
freq.    1612.98  E(vib)   ...       0.00
freq.    1630.44  E(vib)   ...       0.00
freq.    1653.27  E(vib)   ...       0.00
freq.    3011.61  E(vib)   ...       0.00
freq.    3018.77  E(vib)   ...       0.00
freq.    3058.12  E(vib)   ...       0.00
freq.    3090.55  E(vib)   ...       0.00
freq.    3098.02  E(vib)   ...       0.00
freq.    3147.62  E(vib)   ...       0.00
freq.    3152.18  E(vib)   ...       0.00
freq.    3156.78  E(vib)   ...       0.00
freq.    3162.59  E(vib)   ...       0.00
freq.    3175.80  E(vib)   ...       0.00
freq.    3177.09  E(vib)   ...       0.00
freq.    3188.17  E(vib)   ...       0.00

------------
INNER ENERGY
------------

The inner energy is: U= E(el) + E(ZPE) + E(vib) + E(rot) + E(trans)
    E(el)   - is the total energy from the electronic structure calculation
              = E(kin-el) + E(nuc-el) + E(el-el) + E(nuc-nuc)
    E(ZPE)  - the the zero temperature vibrational energy from the frequency calculation
    E(vib)  - the the finite temperature correction to E(ZPE) due to population
              of excited vibrational states
    E(rot)  - is the rotational thermal energy
    E(trans)- is the translational thermal energy

Summary of contributions to the inner energy U:
Electronic energy                ...   -464.42356529 Eh
Zero point energy                ...      0.20267874 Eh     127.18 kcal/mol
Thermal vibrational correction   ...      0.00687680 Eh       4.32 kcal/mol
Thermal rotational correction    ...      0.00141627 Eh       0.89 kcal/mol
Thermal translational correction ...      0.00141627 Eh       0.89 kcal/mol
-----------------------------------------------------------------------
Total thermal energy                   -464.21117721 Eh

Summary of corrections to the electronic energy:
(perhaps to be used in another calculation)
Total thermal correction                  0.00970934 Eh       6.09 kcal/mol
Non-thermal (ZPE) correction              0.20267874 Eh     127.18 kcal/mol
-----------------------------------------------------------------------
Total correction                          0.21238808 Eh     133.28 kcal/mol

--------
ENTHALPY
--------

The enthalpy is H = U + kB*T
                kB is Boltzmann's constant
Total thermal energy              ...   -464.21117721 Eh
Thermal Enthalpy correction       ...      0.00094421 Eh       0.59 kcal/mol
-----------------------------------------------------------------------
Total Enthalpy                    ...   -464.21023300 Eh

Note: Only C1 symmetry has been detected, increase convergence thresholds
      if your molecule has a higher symmetry. Symmetry factor of 1.0 is
      used for the rotational entropy correction.

Note: Rotational entropy computed according to Herzberg
Infrared and Raman Spectra, Chapter V,1, Van Nostrand Reinhold, 1945
Point Group:  C1, Symmetry Number:   1
Rotational constants in cm-1:     0.046307     0.030668     0.019406

Vibrational entropy computed according to the QRRHO of S. Grimme
Chem.Eur.J. 2012 18 9955 using a reference frequency of 100.0 cm-1

-------
ENTROPY
-------

The entropy contributions are T*S = T*(S(el)+S(vib)+S(rot)+S(trans))
     S(el)   - electronic entropy
     S(vib)  - vibrational entropy
     S(rot)  - rotational entropy
     S(trans)- translational entropy
The entropies will be listed as multiplied by the temperature to get
units of energy

Electronic entropy                ...      0.00000000 Eh      0.00 kcal/mol
Vibrational entropy               ...      0.01124422 Eh      7.06 kcal/mol
Rotational entropy                ...      0.01446738 Eh      9.08 kcal/mol
Translational entropy             ...      0.01950311 Eh     12.24 kcal/mol
-----------------------------------------------------------------------
Final entropy term                ...      0.04521471 Eh     28.37 kcal/mol

                             ****ORCA TERMINATED NORMALLY****
TOTAL RUN TIME: 0 days 0 hours 30 minutes 34 seconds 241 msec
