                         Program Version 6.0.1  -  RELEASE   -
|  1> ! pbe def2-sv(p) def2/J RI DEFGRID1 loosescf d4 GCP(DFT/SV(P)) printgap
|  2> %output
|  3>     printlevel normal
|  4> end
|  5> * xyz 0 1
|  6> C -2.4847822167 -0.4670250642 -0.2899717737
|  7> C -1.0664801131 -0.2062420818 0.2273369206
|  8> H -1.0307930567 -0.4213025319 1.3103549985
|  9> C -0.6343680362 1.2685859393 0.0178467503
| 10> H -1.2743721227 1.7380345429 -0.7373298826
| 11> C 0.8198937637 1.3095138784 -0.5029600061
| 12> H 1.2105566994 2.3211186302 -0.3500493148
| 13> C 1.6828716696 0.3160330359 0.3002433122
| 14> H 2.6927786504 0.3015755109 -0.1281683047
| 15> C 1.0962319836 -1.1099053742 0.1444009712
| 16> H 1.0184051578 -1.5699918766 1.1575489279
| 17> O -0.1833824904 -1.092736552 -0.4381661951
| 18> O 1.9304520815 -1.8498513913 -0.6734256545
| 19> O 1.6983487908 0.7324805101 1.648251008
| 20> O 0.9002030355 1.0579076766 -1.8739006239
| 21> O -0.7954988354 2.0173761771 1.1897464447
| 22> O -3.0046004713 -1.7054948649 0.1078528845
| 23> H -2.4658595492 -0.4898838918 -1.3811183854
| 24> H -3.1249173553 0.3597804406 0.0466064729
| 25> H 1.4353751958 -2.6105930601 -1.0026374869
| 26> H 2.3868475797 0.2535922516 2.1219170299
| 27> H 0.5928661026 0.154242993 -2.0337552617
| 28> H -0.0625658023 1.8000410647 1.7840323698
| 29> H -3.0471161274 -1.736558158 1.0705514557
| 30> *
| 31>
| 32>                          ****END OF INPUT****

CARTESIAN COORDINATES (ANGSTROEM)
---------------------------------
  C     -2.484782   -0.467025   -0.289972
  C     -1.066480   -0.206242    0.227337
  H     -1.030793   -0.421303    1.310355
  C     -0.634368    1.268586    0.017847
  H     -1.274372    1.738035   -0.737330
  C      0.819894    1.309514   -0.502960
  H      1.210557    2.321119   -0.350049
  C      1.682872    0.316033    0.300243
  H      2.692779    0.301576   -0.128168
  C      1.096232   -1.109905    0.144401
  H      1.018405   -1.569992    1.157549
  O     -0.183382   -1.092737   -0.438166
  O      1.930452   -1.849851   -0.673426
  O      1.698349    0.732481    1.648251
  O      0.900203    1.057908   -1.873901
  O     -0.795499    2.017376    1.189746
  O     -3.004600   -1.705495    0.107853
  H     -2.465860   -0.489884   -1.381118
  H     -3.124917    0.359780    0.046606
  H      1.435375   -2.610593   -1.002637
  H      2.386848    0.253592    2.121917
  H      0.592866    0.154243   -2.033755
  H     -0.062566    1.800041    1.784032
  H     -3.047116   -1.736558    1.070551

 Total Charge           Charge          ....    0
 Multiplicity           Mult            ....    1
 Number of Electrons    NEL             ....   96
 Basis Dimension        Dim             ....  192

ORBITAL ENERGIES
----------------

  NO   OCC          E(Eh)            E(eV)
   0   2.0000     -18.785808      -511.1878
   1   2.0000     -18.783538      -511.1261
   2   2.0000     -18.773823      -510.8617
   3   2.0000     -18.748595      -510.1752
   4   2.0000     -18.746397      -510.1154
   5   2.0000     -18.741217      -509.9745
   6   2.0000      -9.998452      -272.0717
   7   2.0000      -9.951053      -270.7819
   8   2.0000      -9.947770      -270.6926
   9   2.0000      -9.942716      -270.5551
  10   2.0000      -9.937907      -270.4242
  11   2.0000      -9.937097      -270.4022
  12   2.0000      -1.001140       -27.2424
  13   2.0000      -0.957221       -26.0473
  14   2.0000      -0.939489       -25.5648
  15   2.0000      -0.929351       -25.2889
  16   2.0000      -0.920822       -25.0568
  17   2.0000      -0.919577       -25.0230
  18   2.0000      -0.699885       -19.0448
  19   2.0000      -0.695100       -18.9146
  20   2.0000      -0.622943       -16.9512
  21   2.0000      -0.591166       -16.0865
  22   2.0000      -0.571725       -15.5574
  23   2.0000      -0.531173       -14.4539
  24   2.0000      -0.517193       -14.0735
  25   2.0000      -0.491004       -13.3609
  26   2.0000      -0.487415       -13.2632
  27   2.0000      -0.476234       -12.9590
  28   2.0000      -0.454616       -12.3707
  29   2.0000      -0.428504       -11.6602
  30   2.0000      -0.412354       -11.2207
  31   2.0000      -0.399836       -10.8801
  32   2.0000      -0.395706       -10.7677
  33   2.0000      -0.374503       -10.1907
  34   2.0000      -0.366567        -9.9748
  35   2.0000      -0.352195        -9.5837
  36   2.0000      -0.338492        -9.2108
  37   2.0000      -0.324006        -8.8167
  38   2.0000      -0.321979        -8.7615
  39   2.0000      -0.295322        -8.0361
  40   2.0000      -0.282689        -7.6924
  41   2.0000      -0.277559        -7.5528
  42   2.0000      -0.260525        -7.0892
  43   2.0000      -0.254808        -6.9337
  44   2.0000      -0.246459        -6.7065
  45   2.0000      -0.223836        -6.0909
  46   2.0000      -0.217077        -5.9070
  47   2.0000      -0.197103        -5.3634
  48   0.0000       0.003516         0.0957
  49   0.0000       0.022087         0.6010
  50   0.0000       0.029038         0.7902
  51   0.0000       0.048999         1.3333
  52   0.0000       0.053989         1.4691

MULLIKEN ATOMIC CHARGES
-----------------------
   0 C :    0.067524
   1 C :    0.005814
   2 H :    0.036143
   3 C :    0.056405
   4 H :    0.073850
   5 C :    0.022044
   6 H :    0.084847
   7 C :    0.022599
   8 H :    0.091620
   9 C :    0.185442
  10 H :    0.037906
  11 O :   -0.311478
  12 O :   -0.381221
  13 O :   -0.427502
  14 O :   -0.413286
  15 O :   -0.428098
  16 O :   -0.427127
  17 H :    0.088333
  18 H :    0.094514
  19 H :    0.308424
  20 H :    0.315529
  21 H :    0.299008
  22 H :    0.304780
  23 H :    0.293930
Sum of atomic charges:    0.0000000

LOEWDIN ATOMIC CHARGES
----------------------
   0 C :   -0.127509
   1 C :   -0.079383
   2 H :    0.097259
   3 C :   -0.075880
   4 H :    0.117417
   5 C :   -0.072174
   6 H :    0.121979
   7 C :   -0.090480
   8 H :    0.118884
   9 C :   -0.005073
  10 H :    0.076152
  11 O :   -0.152976
  12 O :   -0.296614
  13 O :   -0.314820
  14 O :   -0.307526
  15 O :   -0.318051
  16 O :   -0.331465
  17 H :    0.119923
  18 H :    0.106895
  19 H :    0.291003
  20 H :    0.295397
  21 H :    0.271375
  22 H :    0.273478
  23 H :    0.282189

  Mayer bond orders larger than 0.100000
B(  0-C ,  1-C ) :   1.0357 B(  0-C , 16-O ) :   1.0814 B(  0-C , 17-H ) :   0.9053
B(  0-C , 18-H ) :   0.9215 B(  1-C ,  2-H ) :   0.8616 B(  1-C ,  3-C ) :   0.9444
B(  1-C , 11-O ) :   0.9940 B(  3-C ,  4-H ) :   0.8944 B(  3-C ,  5-C ) :   0.9855
B(  3-C , 15-O ) :   1.0478 B(  5-C ,  6-H ) :   0.8914 B(  5-C ,  7-C ) :   1.0066
B(  5-C , 14-O ) :   1.0614 B(  7-C ,  8-H ) :   0.8927 B(  7-C ,  9-C ) :   0.9295
B(  7-C , 13-O ) :   1.0250 B(  9-C , 10-H ) :   0.8948 B(  9-C , 11-O ) :   1.0176
B(  9-C , 12-O ) :   1.1573 B( 12-O , 19-H ) :   0.8380 B( 13-O , 20-H ) :   0.8410
B( 14-O , 21-H ) :   0.8295 B( 15-O , 22-H ) :   0.8212 B( 16-O , 23-H ) :   0.8545

Dispersion correction           -0.024773732
FINAL SINGLE POINT ENERGY      -685.690615966580

DIPOLE MOMENT
-------------

Method             : SCF
Type of density    : Electron Density
Multiplicity       :   1
Irrep              :   0
Energy             :  -685.8226038111271237 Eh
Relativity type    :
Basis              : AO
                                X                 Y                 Z
Electronic contribution:      2.052232768      -0.925602747      -0.733138471
Nuclear contribution   :     -1.557531620       0.081420580       1.742488349
                        -----------------------------------------
Total Dipole Moment    :      0.494701148      -0.844182167       1.009349878
                        -----------------------------------------
Magnitude (a.u.)       :      1.405759557
Magnitude (Debye)      :      3.573156832

Rotational constants in cm-1:             0.038287             0.026881             0.021621
Rotational constants in MHz :          1147.811355           805.871961           648.176879

                             ****ORCA TERMINATED NORMALLY****
TOTAL RUN TIME: 0 days 0 hours 0 minutes 8 seconds 981 msec
