                         Program Version 6.0.1  -  RELEASE   -
|  1> ! r2scan-3c def2/J RI DEFGRID2 scfconv6 printgap
|  2> %output
|  3>     printlevel normal
|  4> end
|  5> * xyz 0 1
|  6> C -2.6381594168 -1.3346172524 0.382635854
|  7> C -1.9512937147 -0.1624694884 -0.316407459
|  8> C -0.4506722311 -0.1500449497 -0.1613488802
|  9> C 0.26749966 -1.337772355 -0.2289837209
| 10> C 1.6436588601 -1.3596991813 -0.0962482552
| 11> C 2.3305360009 -0.1773075959 0.1060854267
| 12> C 1.6293943574 1.0129214042 0.1604421852
| 13> C 0.2473599739 1.0479682138 0.0250657769
| 14> C -0.4556959176 2.3738647154 0.075864374
| 15> H -2.3166406038 -1.396586609 1.4200608851
| 16> H -2.4172377175 -2.2805969484 -0.1040273422
| 17> H -3.7169705129 -1.1941643465 0.3635325785
| 18> H -2.3657458133 0.7619211503 0.0851398485
| 19> H -2.1932841187 -0.1901263747 -1.3842465971
| 20> H -0.2547221414 -2.2677534535 -0.3931794313
| 21> H 2.1761191461 -2.2979445047 -0.1518651954
| 22> H 3.4052119315 -0.1793362068 0.215184354
| 23> H 2.1666927607 1.9393264352 0.3094704748
| 24> H -1.1276006987 2.4261278164 0.9326408691
| 25> H 0.2674166626 3.1810188684 0.1644801684
| 26> H -1.043002529 2.5367455766 -0.8268520621
| 27> *
| 28>
| 29>                          ****END OF INPUT****

CARTESIAN COORDINATES (ANGSTROEM)
---------------------------------
  C     -2.638159   -1.334617    0.382636
  C     -1.951294   -0.162469   -0.316407
  C     -0.450672   -0.150045   -0.161349
  C      0.267500   -1.337772   -0.228984
  C      1.643659   -1.359699   -0.096248
  C      2.330536   -0.177308    0.106085
  C      1.629394    1.012921    0.160442
  C      0.247360    1.047968    0.025066
  C     -0.455696    2.373865    0.075864
  H     -2.316641   -1.396587    1.420061
  H     -2.417238   -2.280597   -0.104027
  H     -3.716971   -1.194164    0.363533
  H     -2.365746    0.761921    0.085140
  H     -2.193284   -0.190126   -1.384247
  H     -0.254722   -2.267753   -0.393179
  H      2.176119   -2.297945   -0.151865
  H      3.405212   -0.179336    0.215184
  H      2.166693    1.939326    0.309470
  H     -1.127601    2.426128    0.932641
  H      0.267417    3.181019    0.164480
  H     -1.043003    2.536746   -0.826852

 Total Charge           Charge          ....    0
 Multiplicity           Mult            ....    1
 Number of Electrons    NEL             ....   66
 Basis Dimension        Dim             ....  231

ORBITAL ENERGIES
----------------

  NO   OCC          E(Eh)            E(eV)
   0   2.0000     -10.038000      -273.1479
   1   2.0000     -10.036115      -273.0966
   2   2.0000     -10.032944      -273.0103
   3   2.0000     -10.026323      -272.8301
   4   2.0000     -10.025540      -272.8088
   5   2.0000     -10.025185      -272.7992
   6   2.0000     -10.024899      -272.7914
   7   2.0000     -10.024694      -272.7858
   8   2.0000     -10.020986      -272.6849
   9   2.0000      -0.827645       -22.5214
  10   2.0000      -0.754450       -20.5296
  11   2.0000      -0.736357       -20.0373
  12   2.0000      -0.690175       -18.7806
  13   2.0000      -0.650433       -17.6992
  14   2.0000      -0.603364       -16.4184
  15   2.0000      -0.555051       -15.1037
  16   2.0000      -0.535582       -14.5739
  17   2.0000      -0.469175       -12.7669
  18   2.0000      -0.441260       -12.0073
  19   2.0000      -0.421355       -11.4657
  20   2.0000      -0.406237       -11.0543
  21   2.0000      -0.396155       -10.7799
  22   2.0000      -0.388342       -10.5673
  23   2.0000      -0.371892       -10.1197
  24   2.0000      -0.354298        -9.6409
  25   2.0000      -0.348033        -9.4704
  26   2.0000      -0.335396        -9.1266
  27   2.0000      -0.329275        -8.9600
  28   2.0000      -0.316956        -8.6248
  29   2.0000      -0.294865        -8.0237
  30   2.0000      -0.292338        -7.9549
  31   2.0000      -0.225795        -6.1442
  32   2.0000      -0.216960        -5.9038
  33   0.0000      -0.025584        -0.6962
  34   0.0000      -0.021292        -0.5794
  35   0.0000       0.086433         2.3519
  36   0.0000       0.093285         2.5384
  37   0.0000       0.096918         2.6373

MULLIKEN ATOMIC CHARGES
-----------------------
   0 C :   -0.470723
   1 C :   -0.334842
   2 C :    0.162931
   3 C :   -0.208721
   4 C :   -0.171197
   5 C :   -0.163365
   6 C :   -0.206492
   7 C :    0.155145
   8 C :   -0.586469
   9 H :    0.161530
  10 H :    0.139970
  11 H :    0.148769
  12 H :    0.149009
  13 H :    0.169478
  14 H :    0.138087
  15 H :    0.143424
  16 H :    0.143705
  17 H :    0.144134
  18 H :    0.169248
  19 H :    0.149253
  20 H :    0.167126
Sum of atomic charges:    0.0000000

LOEWDIN ATOMIC CHARGES
----------------------
   0 C :   -0.413613
   1 C :   -0.285639
   2 C :   -0.087355
   3 C :   -0.157617
   4 C :   -0.169903
   5 C :   -0.169952
   6 C :   -0.165220
   7 C :   -0.093388
   8 C :   -0.394153
   9 H :    0.156790
  10 H :    0.148439
  11 H :    0.151056
  12 H :    0.162334
  13 H :    0.167784
  14 H :    0.168323
  15 H :    0.165477
  16 H :    0.165854
  17 H :    0.166051
  18 H :    0.162387
  19 H :    0.159034
  20 H :    0.163311

  Mayer bond orders larger than 0.100000
B(  0-C ,  1-C ) :   0.8844 B(  0-C ,  9-H ) :   0.9864 B(  0-C , 10-H ) :   0.9664
B(  0-C , 11-H ) :   0.9740 B(  1-C ,  2-C ) :   0.8324 B(  1-C , 12-H ) :   0.9986
B(  1-C , 13-H ) :   0.9720 B(  2-C ,  3-C ) :   1.3832 B(  2-C ,  7-C ) :   1.4654
B(  3-C ,  4-C ) :   1.4377 B(  3-C , 14-H ) :   0.9413 B(  4-C ,  5-C ) :   1.4268
B(  4-C , 15-H ) :   0.9512 B(  5-C ,  6-C ) :   1.4505 B(  5-C , 16-H ) :   0.9481
B(  6-C ,  7-C ) :   1.3974 B(  6-C , 17-H ) :   0.9267 B(  7-C ,  8-C ) :   0.7731
B(  8-C , 18-H ) :   0.9838 B(  8-C , 19-H ) :   0.9875 B(  8-C , 20-H ) :   0.9783

Dispersion correction           -0.007003439
FINAL SINGLE POINT ENERGY      -350.079748014349

DIPOLE MOMENT
-------------

Method             : SCF
Type of density    : Electron Density
Multiplicity       :   1
Irrep              :   0
Energy             :  -350.0801866623187948 Eh
Relativity type    :
Basis              : AO
                                X                 Y                 Z
Electronic contribution:      6.693114473      -0.847670846      -0.611990450
Nuclear contribution   :     -6.960977759       0.974409760       0.591362858
                        -----------------------------------------
Total Dipole Moment    :     -0.267863287       0.126738913      -0.020627592
                        -----------------------------------------
Magnitude (a.u.)       :      0.297050484
Magnitude (Debye)      :      0.755042326

Rotational constants in cm-1:             0.080228             0.049405             0.031779
Rotational constants in MHz :          2405.174141          1481.136551           952.708758

                             ****ORCA TERMINATED NORMALLY****
TOTAL RUN TIME: 0 days 0 hours 0 minutes 29 seconds 908 msec
