                         Program Version 6.0.1  -  RELEASE   -
|  1> ! pbe def2-sv(p) def2/J RI DEFGRID1 loosescf d4 GCP(DFT/SV(P)) printgap
|  2> %output
|  3>     printlevel normal
|  4> end
|  5> * xyz 0 1
|  6> C -2.365440228 0.1156309976 0.1741261644
|  7> C -0.9384886085 0.404878347 -0.2778481473
|  8> C 0.0005721732 -0.7096634556 0.0723394536
|  9> C 1.3189181299 -0.6059888403 0.1500079243
| 10> C 2.0984839899 0.6460552843 -0.1020697613
| 11> H -2.4019924869 -0.0179229708 1.2532534117
| 12> H -2.7400318046 -0.7907635767 -0.2969686955
| 13> H -3.0257543811 0.9380326504 -0.0926072999
| 14> H -0.9255216741 0.5537789527 -1.363025873
| 15> H -0.5935068274 1.3378326466 0.175370172
| 16> H -0.4666379249 -1.6677781725 0.2568963852
| 17> H 1.9031709124 -1.4830463293 0.3936913276
| 18> H 1.6055844664 1.5107828869 0.3393978385
| 19> H 2.1847089716 0.8288915725 -1.1738866604
| 20> H 3.1009173723 0.5668487218 0.3105882778
| 21> *
| 22>
| 23>                          ****END OF INPUT****

CARTESIAN COORDINATES (ANGSTROEM)
---------------------------------
  C     -2.365440    0.115631    0.174126
  C     -0.938489    0.404878   -0.277848
  C      0.000572   -0.709663    0.072339
  C      1.318918   -0.605989    0.150008
  C      2.098484    0.646055   -0.102070
  H     -2.401992   -0.017923    1.253253
  H     -2.740032   -0.790764   -0.296969
  H     -3.025754    0.938033   -0.092607
  H     -0.925522    0.553779   -1.363026
  H     -0.593507    1.337833    0.175370
  H     -0.466638   -1.667778    0.256896
  H      1.903171   -1.483046    0.393691
  H      1.605584    1.510783    0.339398
  H      2.184709    0.828892   -1.173887
  H      3.100917    0.566849    0.310588

 Total Charge           Charge          ....    0
 Multiplicity           Mult            ....    1
 Number of Electrons    NEL             ....   40
 Basis Dimension        Dim             ....   90

ORBITAL ENERGIES
----------------

  NO   OCC          E(Eh)            E(eV)
   0   2.0000      -9.885555      -268.9996
   1   2.0000      -9.879139      -268.8251
   2   2.0000      -9.876865      -268.7632
   3   2.0000      -9.876709      -268.7589
   4   2.0000      -9.873569      -268.6735
   5   2.0000      -0.723192       -19.6790
   6   2.0000      -0.672906       -18.3107
   7   2.0000      -0.604722       -16.4553
   8   2.0000      -0.546054       -14.8589
   9   2.0000      -0.467873       -12.7315
  10   2.0000      -0.421420       -11.4674
  11   2.0000      -0.397251       -10.8097
  12   2.0000      -0.381201       -10.3730
  13   2.0000      -0.363517        -9.8918
  14   2.0000      -0.334713        -9.1080
  15   2.0000      -0.325165        -8.8482
  16   2.0000      -0.310362        -8.4454
  17   2.0000      -0.302262        -8.2250
  18   2.0000      -0.279742        -7.6122
  19   2.0000      -0.208044        -5.6612
  20   0.0000      -0.008087        -0.2201
  21   0.0000       0.044202         1.2028
  22   0.0000       0.060993         1.6597
  23   0.0000       0.066697         1.8149
  24   0.0000       0.089576         2.4375

MULLIKEN ATOMIC CHARGES
-----------------------
   0 C :   -0.291059
   1 C :   -0.133069
   2 C :   -0.143052
   3 C :   -0.163833
   4 C :   -0.230484
   5 H :    0.105487
   6 H :    0.103678
   7 H :    0.101040
   8 H :    0.101922
   9 H :    0.094065
  10 H :    0.059023
  11 H :    0.064702
  12 H :    0.111891
  13 H :    0.116838
  14 H :    0.102852
Sum of atomic charges:   -0.0000000

LOEWDIN ATOMIC CHARGES
----------------------
   0 C :   -0.338804
   1 C :   -0.233667
   2 C :   -0.152898
   3 C :   -0.155550
   4 C :   -0.340074
   5 H :    0.119085
   6 H :    0.117840
   7 H :    0.118420
   8 H :    0.126684
   9 H :    0.121853
  10 H :    0.117597
  11 H :    0.117847
  12 H :    0.125925
  13 H :    0.131605
  14 H :    0.124136

  Mayer bond orders larger than 0.100000
B(  0-C ,  1-C ) :   1.1426 B(  0-C ,  5-H ) :   0.9602 B(  0-C ,  6-H ) :   0.9549
B(  0-C ,  7-H ) :   0.9528 B(  1-C ,  2-C ) :   1.0753 B(  1-C ,  8-H ) :   0.9069
B(  1-C ,  9-H ) :   0.9090 B(  2-C ,  3-C ) :   1.9915 B(  2-C , 10-H ) :   0.9386
B(  3-C ,  4-C ) :   1.1185 B(  3-C , 11-H ) :   0.9339 B(  4-C , 12-H ) :   0.9346
B(  4-C , 13-H ) :   0.9345 B(  4-C , 14-H ) :   0.9464

Dispersion correction           -0.009722650
FINAL SINGLE POINT ENERGY      -196.028674144057

DIPOLE MOMENT
-------------

Method             : SCF
Type of density    : Electron Density
Multiplicity       :   1
Irrep              :   0
Energy             :  -196.0768497917462980 Eh
Relativity type    :
Basis              : AO
                                X                 Y                 Z
Electronic contribution:      1.287859427      -1.550383624       0.115820487
Nuclear contribution   :     -1.275023028       1.666793351      -0.185091233
                        -----------------------------------------
Total Dipole Moment    :      0.012836399       0.116409728      -0.069270746
                        -----------------------------------------
Magnitude (a.u.)       :      0.136067756
Magnitude (Debye)      :      0.345856750

Rotational constants in cm-1:             0.459703             0.083309             0.074202
Rotational constants in MHz :         13781.547799          2497.546679          2224.517735

                             ****ORCA TERMINATED NORMALLY****
TOTAL RUN TIME: 0 days 0 hours 0 minutes 5 seconds 751 msec
