                         Program Version 6.0.1  -  RELEASE   -
|  1> ! pbe def2-sv(p) def2/J RI DEFGRID1 loosescf d4 GCP(DFT/SV(P)) printgap
|  2> %output
|  3>     printlevel normal
|  4> end
|  5> * xyz 0 1
|  6> C 3.730958595 -0.3011156023 -0.1494815118
|  7> C 2.2913853332 -0.1725977992 0.3398933958
|  8> H 2.3044524318 0.0747000939 1.4080096486
|  9> C 1.5217859489 -1.4764733327 0.1516895312
| 10> C 0.0792899533 -1.336844083 0.6289084638
| 11> C -0.6713937054 -0.233325584 -0.1248310393
| 12> H -0.6650591909 -0.4746103069 -1.1924880819
| 13> C 0.1061225018 1.0813215374 0.0642717795
| 14> H 0.1051572842 1.3273375472 1.1415648714
| 15> C 1.5572344668 0.9368125542 -0.4064079889
| 16> O -0.5291114523 2.1257976746 -0.6489806827
| 17> C -2.1438000314 -0.0787860941 0.3261658684
| 18> C -2.9874815239 0.5184315813 -0.8005660896
| 19> C -2.7947201216 -1.3897865387 0.7701145166
| 20> H 4.2728881942 0.6301313129 0.0003520972
| 21> H 4.2482716108 -1.0900998594 0.3916652007
| 22> H 3.7511094576 -0.5429119657 -1.2100507995
| 23> H 1.5299584846 -1.7479549753 -0.9065440912
| 24> H 2.012216582 -2.2798415395 0.7060245313
| 25> H -0.4255157315 -2.2905855189 0.4813143953
| 26> H 0.0736325565 -1.1101862893 1.6979971011
| 27> H 1.5536464047 0.7200966242 -1.4774453603
| 28> H 2.0762534842 1.88980689 -0.2599270981
| 29> H 0.0207249955 2.9142929401 -0.584832092
| 30> H -2.163696325 0.6112993636 1.1768377694
| 31> H -3.0554555865 -0.1845567692 -1.6287167062
| 32> H -2.5434459224 1.4393398891 -1.1607934789
| 33> H -3.9946205469 0.7297568131 -0.4472564713
| 34> H -2.333220699 -1.790226831 1.6684338729
| 35> H -2.7375626557 -2.1354522785 -0.0200143142
| 36> H -3.845881693 -1.2107746526 0.9871966201
| 37> *
| 38>
| 39>                          ****END OF INPUT****

CARTESIAN COORDINATES (ANGSTROEM)
---------------------------------
  C      3.730959   -0.301116   -0.149482
  C      2.291385   -0.172598    0.339893
  H      2.304452    0.074700    1.408010
  C      1.521786   -1.476473    0.151690
  C      0.079290   -1.336844    0.628908
  C     -0.671394   -0.233326   -0.124831
  H     -0.665059   -0.474610   -1.192488
  C      0.106123    1.081322    0.064272
  H      0.105157    1.327338    1.141565
  C      1.557234    0.936813   -0.406408
  O     -0.529111    2.125798   -0.648981
  C     -2.143800   -0.078786    0.326166
  C     -2.987482    0.518432   -0.800566
  C     -2.794720   -1.389787    0.770115
  H      4.272888    0.630131    0.000352
  H      4.248272   -1.090100    0.391665
  H      3.751109   -0.542912   -1.210051
  H      1.529958   -1.747955   -0.906544
  H      2.012217   -2.279842    0.706025
  H     -0.425516   -2.290586    0.481314
  H      0.073633   -1.110186    1.697997
  H      1.553646    0.720097   -1.477445
  H      2.076253    1.889807   -0.259927
  H      0.020725    2.914293   -0.584832
  H     -2.163696    0.611299    1.176838
  H     -3.055456   -0.184557   -1.628717
  H     -2.543446    1.439340   -1.160793
  H     -3.994621    0.729757   -0.447256
  H     -2.333221   -1.790227    1.668434
  H     -2.737563   -2.135452   -0.020014
  H     -3.845882   -1.210775    0.987197

 Total Charge           Charge          ....    0
 Multiplicity           Mult            ....    1
 Number of Electrons    NEL             ....   88
 Basis Dimension        Dim             ....  194

ORBITAL ENERGIES
----------------

  NO   OCC          E(Eh)            E(eV)
   0   2.0000     -18.740193      -509.9466
   1   2.0000      -9.933625      -270.3077
   2   2.0000      -9.894346      -269.2388
   3   2.0000      -9.886491      -269.0251
   4   2.0000      -9.883219      -268.9361
   5   2.0000      -9.881772      -268.8967
   6   2.0000      -9.880508      -268.8623
   7   2.0000      -9.880070      -268.8504
   8   2.0000      -9.873527      -268.6723
   9   2.0000      -9.864107      -268.4160
  10   2.0000      -9.850876      -268.0560
  11   2.0000      -0.920652       -25.0522
  12   2.0000      -0.759165       -20.6579
  13   2.0000      -0.718312       -19.5463
  14   2.0000      -0.667708       -18.1693
  15   2.0000      -0.655557       -17.8386
  16   2.0000      -0.604418       -16.4471
  17   2.0000      -0.595793       -16.2123
  18   2.0000      -0.546954       -14.8834
  19   2.0000      -0.525746       -14.3063
  20   2.0000      -0.501782       -13.6542
  21   2.0000      -0.489101       -13.3091
  22   2.0000      -0.455569       -12.3967
  23   2.0000      -0.428052       -11.6479
  24   2.0000      -0.408636       -11.1196
  25   2.0000      -0.395683       -10.7671
  26   2.0000      -0.390851       -10.6356
  27   2.0000      -0.377285       -10.2664
  28   2.0000      -0.360824        -9.8185
  29   2.0000      -0.349673        -9.5151
  30   2.0000      -0.344480        -9.3738
  31   2.0000      -0.341681        -9.2976
  32   2.0000      -0.327161        -8.9025
  33   2.0000      -0.322815        -8.7842
  34   2.0000      -0.316676        -8.6172
  35   2.0000      -0.300099        -8.1661
  36   2.0000      -0.298094        -8.1116
  37   2.0000      -0.294991        -8.0271
  38   2.0000      -0.283648        -7.7185
  39   2.0000      -0.270457        -7.3595
  40   2.0000      -0.268068        -7.2945
  41   2.0000      -0.259347        -7.0572
  42   2.0000      -0.242536        -6.5997
  43   2.0000      -0.211218        -5.7475
  44   0.0000       0.026928         0.7327
  45   0.0000       0.039020         1.0618
  46   0.0000       0.044276         1.2048
  47   0.0000       0.049748         1.3537
  48   0.0000       0.074933         2.0390

MULLIKEN ATOMIC CHARGES
-----------------------
   0 C :   -0.196485
   1 C :   -0.209117
   2 H :    0.061314
   3 C :   -0.090460
   4 C :   -0.115306
   5 C :   -0.156741
   6 H :    0.052916
   7 C :    0.074880
   8 H :    0.040886
   9 C :   -0.102311
  10 O :   -0.404907
  11 C :   -0.119128
  12 C :   -0.250736
  13 C :   -0.232433
  14 H :    0.094334
  15 H :    0.096275
  16 H :    0.090699
  17 H :    0.065483
  18 H :    0.076458
  19 H :    0.089341
  20 H :    0.070348
  21 H :    0.070757
  22 H :    0.062066
  23 H :    0.295325
  24 H :    0.060976
  25 H :    0.080712
  26 H :    0.122645
  27 H :    0.085746
  28 H :    0.100804
  29 H :    0.091185
  30 H :    0.094475
Sum of atomic charges:   -0.0000000

LOEWDIN ATOMIC CHARGES
----------------------
   0 C :   -0.326499
   1 C :   -0.153759
   2 H :    0.113339
   3 C :   -0.214541
   4 C :   -0.215973
   5 C :   -0.136831
   6 H :    0.117720
   7 C :   -0.044224
   8 H :    0.092255
   9 C :   -0.229251
  10 O :   -0.316944
  11 C :   -0.144679
  12 C :   -0.339000
  13 C :   -0.331377
  14 H :    0.116308
  15 H :    0.117490
  16 H :    0.117072
  17 H :    0.114589
  18 H :    0.115619
  19 H :    0.120650
  20 H :    0.114543
  21 H :    0.118051
  22 H :    0.107476
  23 H :    0.281189
  24 H :    0.114637
  25 H :    0.110244
  26 H :    0.124179
  27 H :    0.111110
  28 H :    0.114235
  29 H :    0.114933
  30 H :    0.117437

  Mayer bond orders larger than 0.100000
B(  0-C ,  1-C ) :   1.1108 B(  0-C , 14-H ) :   0.9489 B(  0-C , 15-H ) :   0.9481
B(  0-C , 16-H ) :   0.9462 B(  1-C ,  2-H ) :   0.8902 B(  1-C ,  3-C ) :   1.1008
B(  1-C ,  9-C ) :   1.0785 B(  3-C ,  4-C ) :   1.1407 B(  3-C , 17-H ) :   0.9019
B(  3-C , 18-H ) :   0.9111 B(  4-C ,  5-C ) :   1.1081 B(  4-C , 19-H ) :   0.8948
B(  4-C , 20-H ) :   0.8982 B(  5-C ,  6-H ) :   0.8715 B(  5-C ,  7-C ) :   1.0630
B(  5-C , 11-C ) :   1.0174 B(  7-C ,  8-H ) :   0.8818 B(  7-C ,  9-C ) :   1.0938
B(  7-C , 10-O ) :   1.0536 B(  9-C , 21-H ) :   0.8904 B(  9-C , 22-H ) :   0.9043
B( 10-O , 23-H ) :   0.8470 B( 11-C , 12-C ) :   1.1266 B( 11-C , 13-C ) :   1.1392
B( 11-C , 24-H ) :   0.8860 B( 12-C , 25-H ) :   0.9465 B( 12-C , 26-H ) :   0.9262
B( 12-C , 27-H ) :   0.9476 B( 13-C , 28-H ) :   0.9347 B( 13-C , 29-H ) :   0.9425
B( 13-C , 30-H ) :   0.9468

Dispersion correction           -0.031288075
FINAL SINGLE POINT ENERGY      -467.196270740024

DIPOLE MOMENT
-------------

Method             : SCF
Type of density    : Electron Density
Multiplicity       :   1
Irrep              :   0
Energy             :  -467.3093521367439962 Eh
Relativity type    :
Basis              : AO
                                X                 Y                 Z
Electronic contribution:      0.428140696       4.355763623      -0.451400443
Nuclear contribution   :      0.164633847      -4.209374186       0.714002945
                        -----------------------------------------
Total Dipole Moment    :      0.592774543       0.146389437       0.262602502
                        -----------------------------------------
Magnitude (a.u.)       :      0.664659010
Magnitude (Debye)      :      1.689428943

Rotational constants in cm-1:             0.062141             0.023420             0.018158
Rotational constants in MHz :          1862.934197           702.101034           544.372002

                             ****ORCA TERMINATED NORMALLY****
TOTAL RUN TIME: 0 days 0 hours 0 minutes 11 seconds 905 msec
