                         Program Version 6.0.1  -  RELEASE   -
|  1> ! pbe def2-sv(p) def2/J RI DEFGRID1 loosescf d4 GCP(DFT/SV(P)) printgap
|  2> %output
|  3>     printlevel normal
|  4> end
|  5> * xyz 0 1
|  6> C -3.5115538373 0.5281408257 -0.052750831
|  7> C -2.1440070768 0.1377614553 0.5038260658
|  8> H -2.2760032111 -0.1779568545 1.5432804486
|  9> C -1.1636224192 1.3214823944 0.4643870223
| 10> C -0.245940903 1.2281353751 -0.7499934674
| 11> C 0.7000077118 0.0299241575 -0.6048518352
| 12> H 1.0835220678 -0.2284265762 -1.6005448467
| 13> C -0.0886521714 -1.1810056691 -0.1261742092
| 14> O 0.4196500496 -2.1683203159 0.345175512
| 15> C -1.5833722496 -1.0561393153 -0.2901572831
| 16> C 1.9310904197 0.2554515094 0.3107333393
| 17> C 3.0236772765 -0.7561846844 -0.037562715
| 18> C 2.5127489573 1.6653488479 0.2145367192
| 19> H -3.4158531282 0.9152141861 -1.0652679436
| 20> H -4.1751301436 -0.333391412 -0.0754458371
| 21> H -3.9699158539 1.2961024512 0.5664013233
| 22> H -1.7215982754 2.2590501104 0.4426362835
| 23> H -0.5485474884 1.3253798829 1.3659346474
| 24> H -0.8509016476 1.1120549359 -1.6517098475
| 25> H 0.3216934061 2.1485962093 -0.8701938915
| 26> H -1.7960195148 -0.9168163761 -1.3522868854
| 27> H -2.0571149814 -1.9834026505 0.0349239521
| 28> H 1.6225006425 0.0793410051 1.3468943262
| 29> H 2.6400504204 -1.7692931669 0.0261954996
| 30> H 3.8582686075 -0.6612138848 0.6535754395
| 31> H 3.3931567757 -0.5811915855 -1.0468124385
| 32> H 1.8473064476 2.410923786 0.641945506
| 33> H 2.722435891 1.9266547955 -0.8208716519
| 34> H 3.4487581462 1.7039662143 0.7675204611
| 35> *
| 36>
| 37>                          ****END OF INPUT****

CARTESIAN COORDINATES (ANGSTROEM)
---------------------------------
  C     -3.511554    0.528141   -0.052751
  C     -2.144007    0.137761    0.503826
  H     -2.276003   -0.177957    1.543280
  C     -1.163622    1.321482    0.464387
  C     -0.245941    1.228135   -0.749993
  C      0.700008    0.029924   -0.604852
  H      1.083522   -0.228427   -1.600545
  C     -0.088652   -1.181006   -0.126174
  O      0.419650   -2.168320    0.345176
  C     -1.583372   -1.056139   -0.290157
  C      1.931090    0.255452    0.310733
  C      3.023677   -0.756185   -0.037563
  C      2.512749    1.665349    0.214537
  H     -3.415853    0.915214   -1.065268
  H     -4.175130   -0.333391   -0.075446
  H     -3.969916    1.296102    0.566401
  H     -1.721598    2.259050    0.442636
  H     -0.548547    1.325380    1.365935
  H     -0.850902    1.112055   -1.651710
  H      0.321693    2.148596   -0.870194
  H     -1.796020   -0.916816   -1.352287
  H     -2.057115   -1.983403    0.034924
  H      1.622501    0.079341    1.346894
  H      2.640050   -1.769293    0.026195
  H      3.858269   -0.661214    0.653575
  H      3.393157   -0.581192   -1.046812
  H      1.847306    2.410924    0.641946
  H      2.722436    1.926655   -0.820872
  H      3.448758    1.703966    0.767520

 Total Charge           Charge          ....    0
 Multiplicity           Mult            ....    1
 Number of Electrons    NEL             ....   86
 Basis Dimension        Dim             ....  190

ORBITAL ENERGIES
----------------

  NO   OCC          E(Eh)            E(eV)
   0   2.0000     -18.733564      -509.7662
   1   2.0000      -9.968975      -271.2696
   2   2.0000      -9.907549      -269.5981
   3   2.0000      -9.899784      -269.3868
   4   2.0000      -9.897762      -269.3318
   5   2.0000      -9.891407      -269.1589
   6   2.0000      -9.889902      -269.1179
   7   2.0000      -9.888975      -269.0927
   8   2.0000      -9.881052      -268.8771
   9   2.0000      -9.874457      -268.6976
  10   2.0000      -9.860376      -268.3145
  11   2.0000      -0.937917       -25.5220
  12   2.0000      -0.769066       -20.9274
  13   2.0000      -0.728039       -19.8109
  14   2.0000      -0.676331       -18.4039
  15   2.0000      -0.653963       -17.7952
  16   2.0000      -0.615951       -16.7609
  17   2.0000      -0.604142       -16.4395
  18   2.0000      -0.559338       -15.2203
  19   2.0000      -0.512268       -13.9395
  20   2.0000      -0.504783       -13.7358
  21   2.0000      -0.461283       -12.5522
  22   2.0000      -0.448472       -12.2035
  23   2.0000      -0.426341       -11.6013
  24   2.0000      -0.410359       -11.1664
  25   2.0000      -0.399500       -10.8709
  26   2.0000      -0.386737       -10.5236
  27   2.0000      -0.369997       -10.0681
  28   2.0000      -0.365412        -9.9434
  29   2.0000      -0.356633        -9.7045
  30   2.0000      -0.347827        -9.4649
  31   2.0000      -0.345798        -9.4096
  32   2.0000      -0.334531        -9.1030
  33   2.0000      -0.333190        -9.0666
  34   2.0000      -0.324449        -8.8287
  35   2.0000      -0.320104        -8.7105
  36   2.0000      -0.296042        -8.0557
  37   2.0000      -0.294647        -8.0177
  38   2.0000      -0.287332        -7.8187
  39   2.0000      -0.280352        -7.6288
  40   2.0000      -0.271843        -7.3972
  41   2.0000      -0.269379        -7.3302
  42   2.0000      -0.187265        -5.0958
  43   0.0000      -0.049155        -1.3376
  44   0.0000       0.027601         0.7511
  45   0.0000       0.039512         1.0752
  46   0.0000       0.051623         1.4047
  47   0.0000       0.071285         1.9398

MULLIKEN ATOMIC CHARGES
-----------------------
   0 C :   -0.239055
   1 C :   -0.203595
   2 H :    0.080169
   3 C :   -0.120099
   4 C :   -0.096700
   5 C :   -0.158607
   6 H :    0.091241
   7 C :   -0.001974
   8 O :   -0.147696
   9 C :   -0.050364
  10 C :   -0.159722
  11 C :   -0.250771
  12 C :   -0.238561
  13 H :    0.096753
  14 H :    0.104266
  15 H :    0.105087
  16 H :    0.081970
  17 H :    0.090421
  18 H :    0.071159
  19 H :    0.092796
  20 H :    0.085819
  21 H :    0.087404
  22 H :    0.076060
  23 H :    0.123226
  24 H :    0.093180
  25 H :    0.083844
  26 H :    0.108091
  27 H :    0.095431
  28 H :    0.100226
Sum of atomic charges:   -0.0000000

LOEWDIN ATOMIC CHARGES
----------------------
   0 C :   -0.328529
   1 C :   -0.143330
   2 H :    0.121399
   3 C :   -0.220681
   4 C :   -0.219523
   5 C :   -0.160759
   6 H :    0.141088
   7 C :    0.054077
   8 O :   -0.115649
   9 C :   -0.237669
  10 C :   -0.141339
  11 C :   -0.337653
  12 C :   -0.332303
  13 H :    0.116304
  14 H :    0.119998
  15 H :    0.119346
  16 H :    0.119641
  17 H :    0.119482
  18 H :    0.115607
  19 H :    0.121812
  20 H :    0.135277
  21 H :    0.129657
  22 H :    0.116525
  23 H :    0.125727
  24 H :    0.115168
  25 H :    0.111408
  26 H :    0.115896
  27 H :    0.117488
  28 H :    0.121538

  Mayer bond orders larger than 0.100000
B(  0-C ,  1-C ) :   1.1123 B(  0-C , 13-H ) :   0.9474 B(  0-C , 14-H ) :   0.9479
B(  0-C , 15-H ) :   0.9457 B(  1-C ,  2-H ) :   0.8990 B(  1-C ,  3-C ) :   1.0822
B(  1-C ,  9-C ) :   1.0868 B(  3-C ,  4-C ) :   1.1786 B(  3-C , 16-H ) :   0.9153
B(  3-C , 17-H ) :   0.9029 B(  4-C ,  5-C ) :   1.1036 B(  4-C , 18-H ) :   0.8844
B(  4-C , 19-H ) :   0.8937 B(  5-C ,  6-H ) :   0.8445 B(  5-C ,  7-C ) :   0.9142
B(  5-C , 10-C ) :   1.0276 B(  7-C ,  8-O ) :   2.1721 B(  7-C ,  9-C ) :   1.0998
B(  9-C , 20-H ) :   0.8626 B(  9-C , 21-H ) :   0.8901 B( 10-C , 11-C ) :   1.1094
B( 10-C , 12-C ) :   1.1336 B( 10-C , 22-H ) :   0.8952 B( 11-C , 23-H ) :   0.9313
B( 11-C , 24-H ) :   0.9462 B( 11-C , 25-H ) :   0.9455 B( 12-C , 26-H ) :   0.9358
B( 12-C , 27-H ) :   0.9416 B( 12-C , 28-H ) :   0.9439

Dispersion correction           -0.030345275
FINAL SINGLE POINT ENERGY      -466.026093834476

DIPOLE MOMENT
-------------

Method             : SCF
Type of density    : Electron Density
Multiplicity       :   1
Irrep              :   0
Energy             :  -466.1230307582044361 Eh
Relativity type    :
Basis              : AO
                                X                 Y                 Z
Electronic contribution:     -0.594669352      -7.121828794       0.726292261
Nuclear contribution   :      0.125004126       7.966252089      -1.021069228
                        -----------------------------------------
Total Dipole Moment    :     -0.469665227       0.844423295      -0.294776967
                        -----------------------------------------
Magnitude (a.u.)       :      1.010212644
Magnitude (Debye)      :      2.567756478

Rotational constants in cm-1:             0.063349             0.025815             0.020116
Rotational constants in MHz :          1899.168873           773.904646           603.077231

                             ****ORCA TERMINATED NORMALLY****
TOTAL RUN TIME: 0 days 0 hours 0 minutes 19 seconds 237 msec
