                         Program Version 6.0.1  -  RELEASE   -
|  1> ! pbe def2-sv(p) def2/J RI DEFGRID1 loosescf d4 GCP(DFT/SV(P)) printgap
|  2> %output
|  3>     printlevel normal
|  4> end
|  5> * xyz 0 1
|  6> C -0.7220416582 -0.6165423166 0.2646994814
|  7> C 0.7255076483 -0.6229537126 -0.238504232
|  8> O 1.4147028536 0.5602625505 0.0723635633
|  9> O -1.4178889921 0.5484800246 -0.0958104758
| 10> H -0.7419703067 -0.6416890553 1.3587698981
| 11> H -1.2323773532 -1.5158179611 -0.1129436804
| 12> H 0.7456284985 -0.6940436875 -1.3305306151
| 13> H 1.2410286583 -1.5024784165 0.176521726
| 14> H 1.2453052738 0.7869122974 0.9939885649
| 15> H -1.2483417298 0.7378389678 -1.025774748
| 16> *
| 17>
| 18>                          ****END OF INPUT****

CARTESIAN COORDINATES (ANGSTROEM)
---------------------------------
  C     -0.722042   -0.616542    0.264699
  C      0.725508   -0.622954   -0.238504
  O      1.414703    0.560263    0.072364
  O     -1.417889    0.548480   -0.095810
  H     -0.741970   -0.641689    1.358770
  H     -1.232377   -1.515818   -0.112944
  H      0.745628   -0.694044   -1.330531
  H      1.241029   -1.502478    0.176522
  H      1.245305    0.786912    0.993989
  H     -1.248342    0.737839   -1.025775

 Total Charge           Charge          ....    0
 Multiplicity           Mult            ....    1
 Number of Electrons    NEL             ....   34
 Basis Dimension        Dim             ....   68

ORBITAL ENERGIES
----------------

  NO   OCC          E(Eh)            E(eV)
   0   2.0000     -18.744873      -510.0739
   1   2.0000     -18.744847      -510.0732
   2   2.0000      -9.934729      -270.3377
   3   2.0000      -9.934654      -270.3357
   4   2.0000      -0.935151       -25.4468
   5   2.0000      -0.912296       -24.8248
   6   2.0000      -0.659053       -17.9337
   7   2.0000      -0.571453       -15.5500
   8   2.0000      -0.473573       -12.8866
   9   2.0000      -0.427309       -11.6277
  10   2.0000      -0.410417       -11.1680
  11   2.0000      -0.405807       -11.0426
  12   2.0000      -0.351913        -9.5760
  13   2.0000      -0.295554        -8.0424
  14   2.0000      -0.275649        -7.5008
  15   2.0000      -0.222730        -6.0608
  16   2.0000      -0.211630        -5.7587
  17   0.0000       0.023170         0.6305
  18   0.0000       0.046373         1.2619
  19   0.0000       0.071687         1.9507
  20   0.0000       0.087541         2.3821
  21   0.0000       0.101456         2.7608

MULLIKEN ATOMIC CHARGES
-----------------------
   0 C :   -0.027803
   1 C :   -0.027882
   2 O :   -0.429019
   3 O :   -0.428990
   4 H :    0.085452
   5 H :    0.075715
   6 H :    0.085487
   7 H :    0.075724
   8 H :    0.295656
   9 H :    0.295661
Sum of atomic charges:   -0.0000000

LOEWDIN ATOMIC CHARGES
----------------------
   0 C :   -0.150611
   1 C :   -0.150613
   2 O :   -0.338339
   3 O :   -0.338314
   4 H :    0.107860
   5 H :    0.097592
   6 H :    0.107878
   7 H :    0.097612
   8 H :    0.283470
   9 H :    0.283465

  Mayer bond orders larger than 0.100000
B(  0-C ,  1-C ) :   1.0948 B(  0-C ,  3-O ) :   1.0773 B(  0-C ,  4-H ) :   0.9233
B(  0-C ,  5-H ) :   0.9125 B(  1-C ,  2-O ) :   1.0772 B(  1-C ,  6-H ) :   0.9233
B(  1-C ,  7-H ) :   0.9126 B(  2-O ,  8-H ) :   0.8543 B(  3-O ,  9-H ) :   0.8543

Dispersion correction           -0.004893139
FINAL SINGLE POINT ENERGY      -229.722698861553

DIPOLE MOMENT
-------------

Method             : SCF
Type of density    : Electron Density
Multiplicity       :   1
Irrep              :   0
Energy             :  -229.7737582229766531 Eh
Relativity type    :
Basis              : AO
                                X                 Y                 Z
Electronic contribution:     -0.006299530       2.146897123      -0.045260734
Nuclear contribution   :      0.008652427      -2.637898008       0.055971639
                        -----------------------------------------
Total Dipole Moment    :      0.002352897      -0.491000885       0.010710905
                        -----------------------------------------
Magnitude (a.u.)       :      0.491123333
Magnitude (Debye)      :      1.248336307

Rotational constants in cm-1:             0.507351             0.184044             0.153478
Rotational constants in MHz :         15209.996434          5517.512461          4601.142612

                             ****ORCA TERMINATED NORMALLY****
TOTAL RUN TIME: 0 days 0 hours 0 minutes 6 seconds 99 msec
