                         Program Version 6.0.1  -  RELEASE   -
|  1> ! pbe def2-sv(p) def2/J RI DEFGRID1 loosescf d4 GCP(DFT/SV(P)) printgap
|  2> %output
|  3>     printlevel normal
|  4> end
|  5> * xyz 0 1
|  6> C -2.3790606595 -0.4065061975 -1.2005203603
|  7> C -1.7256531463 0.0617098385 0.06471985
|  8> C -2.3988332446 0.4796141114 1.1239253068
|  9> C -0.2426319337 0.0245785537 0.0501404878
| 10> C 0.485327085 1.1289839766 -0.3751969318
| 11> C 1.8679840474 1.0881509867 -0.4029382944
| 12> C 2.537371978 -0.0575396193 -0.0078399777
| 13> C 1.8186426525 -1.1620701687 0.4169551367
| 14> C 0.436106565 -1.122064652 0.4445082035
| 15> H -2.0845858748 -1.4339073174 -1.413799545
| 16> H -3.4621542532 -0.3556130598 -1.1232648701
| 17> H -2.0520824127 0.2091855528 -2.0382700949
| 18> H -1.8965603261 0.8095235762 2.0176521907
| 19> H -3.4757561551 0.5077047111 1.1387758753
| 20> H -0.0387992477 2.0236337535 -0.680451075
| 21> H 2.424788592 1.9530064377 -0.7338767178
| 22> H 3.6168882945 -0.0892167213 -0.0298703185
| 23> H 2.3369580112 -2.0575714874 0.7282845391
| 24> H -0.1265415642 -1.982129292 0.7792367894
| 25> *
| 26>
| 27>                          ****END OF INPUT****

CARTESIAN COORDINATES (ANGSTROEM)
---------------------------------
  C     -2.379061   -0.406506   -1.200520
  C     -1.725653    0.061710    0.064720
  C     -2.398833    0.479614    1.123925
  C     -0.242632    0.024579    0.050140
  C      0.485327    1.128984   -0.375197
  C      1.867984    1.088151   -0.402938
  C      2.537372   -0.057540   -0.007840
  C      1.818643   -1.162070    0.416955
  C      0.436107   -1.122065    0.444508
  H     -2.084586   -1.433907   -1.413800
  H     -3.462154   -0.355613   -1.123265
  H     -2.052082    0.209186   -2.038270
  H     -1.896560    0.809524    2.017652
  H     -3.475756    0.507705    1.138776
  H     -0.038799    2.023634   -0.680451
  H      2.424789    1.953006   -0.733877
  H      3.616888   -0.089217   -0.029870
  H      2.336958   -2.057571    0.728285
  H     -0.126542   -1.982129    0.779237

 Total Charge           Charge          ....    0
 Multiplicity           Mult            ....    1
 Number of Electrons    NEL             ....   64
 Basis Dimension        Dim             ....  146

ORBITAL ENERGIES
----------------

  NO   OCC          E(Eh)            E(eV)
   0   2.0000      -9.905144      -269.5327
   1   2.0000      -9.903477      -269.4873
   2   2.0000      -9.891923      -269.1729
   3   2.0000      -9.891886      -269.1719
   4   2.0000      -9.891036      -269.1488
   5   2.0000      -9.890985      -269.1474
   6   2.0000      -9.889548      -269.1083
   7   2.0000      -9.884895      -268.9817
   8   2.0000      -9.873485      -268.6712
   9   2.0000      -0.781770       -21.2730
  10   2.0000      -0.727099       -19.7854
  11   2.0000      -0.669731       -18.2243
  12   2.0000      -0.658136       -17.9088
  13   2.0000      -0.615765       -16.7558
  14   2.0000      -0.548315       -14.9204
  15   2.0000      -0.542322       -14.7573
  16   2.0000      -0.491176       -13.3656
  17   2.0000      -0.449262       -12.2251
  18   2.0000      -0.414657       -11.2834
  19   2.0000      -0.409640       -11.1469
  20   2.0000      -0.392158       -10.6711
  21   2.0000      -0.388244       -10.5646
  22   2.0000      -0.375258       -10.2113
  23   2.0000      -0.366443        -9.9714
  24   2.0000      -0.340378        -9.2622
  25   2.0000      -0.327239        -8.9046
  26   2.0000      -0.321180        -8.7398
  27   2.0000      -0.302044        -8.2190
  28   2.0000      -0.287319        -7.8183
  29   2.0000      -0.231311        -6.2943
  30   2.0000      -0.224360        -6.1051
  31   2.0000      -0.222898        -6.0654
  32   0.0000      -0.034788        -0.9466
  33   0.0000      -0.033545        -0.9128
  34   0.0000      -0.013868        -0.3774
  35   0.0000       0.042113         1.1460
  36   0.0000       0.059326         1.6144

MULLIKEN ATOMIC CHARGES
-----------------------
   0 C :   -0.185558
   1 C :   -0.101709
   2 C :   -0.193648
   3 C :    0.067159
   4 C :   -0.088125
   5 C :   -0.050901
   6 C :   -0.045772
   7 C :   -0.050632
   8 C :   -0.088288
   9 H :    0.108672
  10 H :    0.097807
  11 H :    0.108795
  12 H :    0.092041
  13 H :    0.083067
  14 H :    0.044185
  15 H :    0.052729
  16 H :    0.053237
  17 H :    0.052703
  18 H :    0.044238
Sum of atomic charges:    0.0000000

LOEWDIN ATOMIC CHARGES
----------------------
   0 C :   -0.315843
   1 C :   -0.049062
   2 C :   -0.252299
   3 C :   -0.026987
   4 C :   -0.115914
   5 C :   -0.121304
   6 C :   -0.126616
   7 C :   -0.121279
   8 C :   -0.115834
   9 H :    0.130825
  10 H :    0.123342
  11 H :    0.130993
  12 H :    0.122404
  13 H :    0.118221
  14 H :    0.124436
  15 H :    0.123689
  16 H :    0.123180
  17 H :    0.123689
  18 H :    0.124362

  Mayer bond orders larger than 0.100000
B(  0-C ,  1-C ) :   1.1197 B(  0-C ,  9-H ) :   0.9299 B(  0-C , 10-H ) :   0.9390
B(  0-C , 11-H ) :   0.9298 B(  1-C ,  2-C ) :   2.0538 B(  1-C ,  3-C ) :   0.9573
B(  2-C , 12-H ) :   0.9131 B(  2-C , 13-H ) :   0.9059 B(  3-C ,  4-C ) :   1.3985
B(  3-C ,  8-C ) :   1.3976 B(  4-C ,  5-C ) :   1.3627 B(  4-C , 14-H ) :   0.9646
B(  5-C ,  6-C ) :   1.3821 B(  5-C , 15-H ) :   0.9633 B(  6-C ,  7-C ) :   1.3814
B(  6-C , 16-H ) :   0.9649 B(  7-C ,  8-C ) :   1.3637 B(  7-C , 17-H ) :   0.9633
B(  8-C , 18-H ) :   0.9643

Dispersion correction           -0.019863628
FINAL SINGLE POINT ENERGY      -348.162543611365

DIPOLE MOMENT
-------------

Method             : SCF
Type of density    : Electron Density
Multiplicity       :   1
Irrep              :   0
Energy             :  -348.2116720341288101 Eh
Relativity type    :
Basis              : AO
                                X                 Y                 Z
Electronic contribution:      4.475721906       0.333307131       1.124156561
Nuclear contribution   :     -4.463660141      -0.389700031      -1.271765452
                        -----------------------------------------
Total Dipole Moment    :      0.012061765      -0.056392900      -0.147608891
                        -----------------------------------------
Magnitude (a.u.)       :      0.158474068
Magnitude (Debye)      :      0.402809068

Rotational constants in cm-1:             0.119840             0.037402             0.034558
Rotational constants in MHz :          3592.707950          1121.280923          1036.030647

                             ****ORCA TERMINATED NORMALLY****
TOTAL RUN TIME: 0 days 0 hours 0 minutes 14 seconds 167 msec
