                         Program Version 6.0.1  -  RELEASE   -
|  1> ! pbe def2-sv(p) def2/J RI DEFGRID1 loosescf d4 GCP(DFT/SV(P)) printgap
|  2> %output
|  3>     printlevel normal
|  4> end
|  5> * xyz 0 1
|  6> C -1.2015344594 -0.9321911001 0.2000953785
|  7> C -0.5049801961 0.2527472547 -0.4688678828
|  8> C -1.0182762799 1.56623718 0.1190536393
|  9> C 1.0428318804 0.1667803181 -0.3518116004
| 10> O 1.5306649044 -0.9479387331 0.3530781563
| 11> H -2.2607998105 -0.9229689429 -0.0452803554
| 12> H -1.1085590639 -0.8814218045 1.2840620277
| 13> H -0.7735952236 -1.8701569071 -0.1447794416
| 14> H -0.7631400114 0.2325855935 -1.5321349625
| 15> H -0.5666036066 2.4161657158 -0.3877106061
| 16> H -0.7825555487 1.6316909082 1.1799004277
| 17> H -2.0978140693 1.6347664338 0.0049985144
| 18> H 1.4881375739 0.0798623806 -1.3452282843
| 19> H 1.4237999647 1.0913986895 0.1058501257
| 20> H 1.1870273442 -0.9196333239 1.2522282645
| 21> *
| 22>
| 23>                          ****END OF INPUT****

CARTESIAN COORDINATES (ANGSTROEM)
---------------------------------
  C     -1.201534   -0.932191    0.200095
  C     -0.504980    0.252747   -0.468868
  C     -1.018276    1.566237    0.119054
  C      1.042832    0.166780   -0.351812
  O      1.530665   -0.947939    0.353078
  H     -2.260800   -0.922969   -0.045280
  H     -1.108559   -0.881422    1.284062
  H     -0.773595   -1.870157   -0.144779
  H     -0.763140    0.232586   -1.532135
  H     -0.566604    2.416166   -0.387711
  H     -0.782556    1.631691    1.179900
  H     -2.097814    1.634766    0.004999
  H      1.488138    0.079862   -1.345228
  H      1.423800    1.091399    0.105850
  H      1.187027   -0.919633    1.252228

 Total Charge           Charge          ....    0
 Multiplicity           Mult            ....    1
 Number of Electrons    NEL             ....   42
 Basis Dimension        Dim             ....   90

ORBITAL ENERGIES
----------------

  NO   OCC          E(Eh)            E(eV)
   0   2.0000     -18.739759      -509.9348
   1   2.0000      -9.923982      -270.0453
   2   2.0000      -9.894401      -269.2403
   3   2.0000      -9.876500      -268.7532
   4   2.0000      -9.875365      -268.7224
   5   2.0000      -0.919232       -25.0136
   6   2.0000      -0.718086       -19.5401
   7   2.0000      -0.614832       -16.7304
   8   2.0000      -0.602273       -16.3887
   9   2.0000      -0.505531       -13.7562
  10   2.0000      -0.454345       -12.3633
  11   2.0000      -0.415286       -11.3005
  12   2.0000      -0.398268       -10.8374
  13   2.0000      -0.365614        -9.9489
  14   2.0000      -0.354369        -9.6429
  15   2.0000      -0.343715        -9.3530
  16   2.0000      -0.316284        -8.6065
  17   2.0000      -0.297371        -8.0919
  18   2.0000      -0.290673        -7.9096
  19   2.0000      -0.259828        -7.0703
  20   2.0000      -0.211736        -5.7616
  21   0.0000       0.018010         0.4901
  22   0.0000       0.050576         1.3762
  23   0.0000       0.074633         2.0309
  24   0.0000       0.084663         2.3038
  25   0.0000       0.102192         2.7808

MULLIKEN ATOMIC CHARGES
-----------------------
   0 C :   -0.262683
   1 C :   -0.217772
   2 C :   -0.260507
   3 C :    0.044163
   4 O :   -0.424713
   5 H :    0.100346
   6 H :    0.082140
   7 H :    0.117888
   8 H :    0.077186
   9 H :    0.106142
  10 H :    0.091473
  11 H :    0.099515
  12 H :    0.083048
  13 H :    0.070484
  14 H :    0.293291
Sum of atomic charges:    0.0000000

LOEWDIN ATOMIC CHARGES
----------------------
   0 C :   -0.337362
   1 C :   -0.186377
   2 C :   -0.332402
   3 C :   -0.116880
   4 O :   -0.330020
   5 H :    0.120161
   6 H :    0.107855
   7 H :    0.123447
   8 H :    0.118389
   9 H :    0.117272
  10 H :    0.112666
  11 H :    0.117575
  12 H :    0.112939
  13 H :    0.093061
  14 H :    0.279677

  Mayer bond orders larger than 0.100000
B(  0-C ,  1-C ) :   1.1411 B(  0-C ,  5-H ) :   0.9467 B(  0-C ,  6-H ) :   0.9444
B(  0-C ,  7-H ) :   0.9433 B(  1-C ,  2-C ) :   1.1112 B(  1-C ,  3-C ) :   1.0051
B(  1-C ,  8-H ) :   0.9043 B(  2-C ,  9-H ) :   0.9494 B(  2-C , 10-H ) :   0.9489
B(  2-C , 11-H ) :   0.9520 B(  3-C ,  4-O ) :   1.1139 B(  3-C , 12-H ) :   0.9311
B(  3-C , 13-H ) :   0.9429 B(  4-O , 14-H ) :   0.8482

Dispersion correction           -0.009816009
FINAL SINGLE POINT ENERGY      -233.081243501242

DIPOLE MOMENT
-------------

Method             : SCF
Type of density    : Electron Density
Multiplicity       :   1
Irrep              :   0
Energy             :  -233.1411746495736281 Eh
Relativity type    :
Basis              : AO
                                X                 Y                 Z
Electronic contribution:      3.586305007      -1.985700545      -0.124191680
Nuclear contribution   :     -3.968329587       2.324107510       0.354148134
                        -----------------------------------------
Total Dipole Moment    :     -0.382024580       0.338406965       0.229956453
                        -----------------------------------------
Magnitude (a.u.)       :      0.559769617
Magnitude (Debye)      :      1.422821293

Rotational constants in cm-1:             0.238364             0.124467             0.095031
Rotational constants in MHz :          7145.983092          3731.435102          2848.965600

                             ****ORCA TERMINATED NORMALLY****
TOTAL RUN TIME: 0 days 0 hours 0 minutes 5 seconds 964 msec
