                         Program Version 6.0.1  -  RELEASE   -
|  1> ! pbe def2-sv(p) def2/J RI DEFGRID1 loosescf d4 GCP(DFT/SV(P)) printgap
|  2> %output
|  3>     printlevel normal
|  4> end
|  5> * xyz 0 1
|  6> C -2.744829833 0.0007095725 -0.7349144521
|  7> C -1.9714993064 -0.0009057418 0.585268712
|  8> C -0.4916407898 -0.0004691947 0.326148964
|  9> C 0.201739925 -1.1950454129 0.1803095444
| 10> C 1.5564755379 -1.1964514058 -0.1001378637
| 11> C 2.2374134687 0.0004971482 -0.2411252706
| 12> C 1.5557484682 1.1969718899 -0.0995521875
| 13> C 0.2010354794 1.1946098345 0.180925711
| 14> H -2.4926003947 0.8826379978 -1.3195742679
| 15> H -3.8166534146 0.0010587217 -0.5495937514
| 16> H -2.4934197605 -0.88035986 -1.3212588096
| 17> H -2.2466419232 -0.8863272357 1.1621575612
| 18> H -2.2467452713 0.883081558 1.1643214772
| 19> H -0.3252224468 -2.1326078038 0.2909150402
| 20> H 2.0827857771 -2.1339810515 -0.2081377609
| 21> H 3.2954005802 0.0008606509 -0.4589655537
| 22> H 2.081531692 2.1348359835 -0.2069791439
| 23> H -0.3264835263 2.1317938329 0.2920958167
| 24> *
| 25>
| 26>                          ****END OF INPUT****

CARTESIAN COORDINATES (ANGSTROEM)
---------------------------------
  C     -2.744830    0.000710   -0.734914
  C     -1.971499   -0.000906    0.585269
  C     -0.491641   -0.000469    0.326149
  C      0.201740   -1.195045    0.180310
  C      1.556476   -1.196451   -0.100138
  C      2.237413    0.000497   -0.241125
  C      1.555748    1.196972   -0.099552
  C      0.201035    1.194610    0.180926
  H     -2.492600    0.882638   -1.319574
  H     -3.816653    0.001059   -0.549594
  H     -2.493420   -0.880360   -1.321259
  H     -2.246642   -0.886327    1.162158
  H     -2.246745    0.883082    1.164321
  H     -0.325222   -2.132608    0.290915
  H      2.082786   -2.133981   -0.208138
  H      3.295401    0.000861   -0.458966
  H      2.081532    2.134836   -0.206979
  H     -0.326484    2.131794    0.292096

 Total Charge           Charge          ....    0
 Multiplicity           Mult            ....    1
 Number of Electrons    NEL             ....   58
 Basis Dimension        Dim             ....  132

ORBITAL ENERGIES
----------------

  NO   OCC          E(Eh)            E(eV)
   0   2.0000      -9.898521      -269.3525
   1   2.0000      -9.890267      -269.1278
   2   2.0000      -9.887910      -269.0637
   3   2.0000      -9.887888      -269.0631
   4   2.0000      -9.886922      -269.0368
   5   2.0000      -9.886908      -269.0365
   6   2.0000      -9.885816      -269.0067
   7   2.0000      -9.878148      -268.7981
   8   2.0000      -0.776076       -21.1181
   9   2.0000      -0.709570       -19.3084
  10   2.0000      -0.666221       -18.1288
  11   2.0000      -0.645773       -17.5724
  12   2.0000      -0.563527       -15.3344
  13   2.0000      -0.540337       -14.7033
  14   2.0000      -0.513315       -13.9680
  15   2.0000      -0.459183       -12.4950
  16   2.0000      -0.419479       -11.4146
  17   2.0000      -0.404488       -11.0067
  18   2.0000      -0.382346       -10.4042
  19   2.0000      -0.376080       -10.2337
  20   2.0000      -0.368391       -10.0244
  21   2.0000      -0.352000        -9.5784
  22   2.0000      -0.328006        -8.9255
  23   2.0000      -0.314125        -8.5478
  24   2.0000      -0.308600        -8.3974
  25   2.0000      -0.290179        -7.8962
  26   2.0000      -0.287163        -7.8141
  27   2.0000      -0.225922        -6.1476
  28   2.0000      -0.217187        -5.9100
  29   0.0000      -0.031232        -0.8499
  30   0.0000      -0.029702        -0.8082
  31   0.0000       0.040312         1.0969
  32   0.0000       0.058149         1.5823
  33   0.0000       0.069596         1.8938

MULLIKEN ATOMIC CHARGES
-----------------------
   0 C :   -0.269700
   1 C :   -0.133796
   2 C :    0.072478
   3 C :   -0.116640
   4 C :   -0.047821
   5 C :   -0.050385
   6 C :   -0.047809
   7 C :   -0.116624
   8 H :    0.102225
   9 H :    0.105766
  10 H :    0.102212
  11 H :    0.087349
  12 H :    0.087372
  13 H :    0.037217
  14 H :    0.049826
  15 H :    0.051286
  16 H :    0.049817
  17 H :    0.037227
Sum of atomic charges:    0.0000000

LOEWDIN ATOMIC CHARGES
----------------------
   0 C :   -0.332793
   1 C :   -0.217052
   2 C :   -0.037185
   3 C :   -0.124386
   4 C :   -0.121561
   5 C :   -0.129714
   6 C :   -0.121560
   7 C :   -0.124371
   8 H :    0.119853
   9 H :    0.118427
  10 H :    0.119859
  11 H :    0.121429
  12 H :    0.121444
  13 H :    0.120170
  14 H :    0.122495
  15 H :    0.122281
  16 H :    0.122495
  17 H :    0.120169

  Mayer bond orders larger than 0.100000
B(  0-C ,  1-C ) :   1.1459 B(  0-C ,  8-H ) :   0.9550 B(  0-C ,  9-H ) :   0.9487
B(  0-C , 10-H ) :   0.9550 B(  1-C ,  2-C ) :   1.0626 B(  1-C , 11-H ) :   0.9115
B(  1-C , 12-H ) :   0.9115 B(  2-C ,  3-C ) :   1.3950 B(  2-C ,  7-C ) :   1.3948
B(  3-C ,  4-C ) :   1.3741 B(  3-C , 13-H ) :   0.9615 B(  4-C ,  5-C ) :   1.3808
B(  4-C , 14-H ) :   0.9636 B(  5-C ,  6-C ) :   1.3808 B(  5-C , 15-H ) :   0.9650
B(  6-C ,  7-C ) :   1.3742 B(  6-C , 16-H ) :   0.9636 B(  7-C , 17-H ) :   0.9615

Dispersion correction           -0.017390403
FINAL SINGLE POINT ENERGY      -310.155410878066

DIPOLE MOMENT
-------------

Method             : SCF
Type of density    : Electron Density
Multiplicity       :   1
Irrep              :   0
Energy             :  -310.2057084313153155 Eh
Relativity type    :
Basis              : AO
                                X                 Y                 Z
Electronic contribution:      5.946267048      -0.000894327       1.077981760
Nuclear contribution   :     -6.086876934       0.000931407      -1.083601747
                        -----------------------------------------
Total Dipole Moment    :     -0.140609886       0.000037080      -0.005619988
                        -----------------------------------------
Magnitude (a.u.)       :      0.140722158
Magnitude (Debye)      :      0.357687300

Rotational constants in cm-1:             0.152133             0.049984             0.041437
Rotational constants in MHz :          4560.823823          1498.494545          1242.236234

                             ****ORCA TERMINATED NORMALLY****
TOTAL RUN TIME: 0 days 0 hours 0 minutes 5 seconds 811 msec
