                         Program Version 6.0.1  -  RELEASE   -
|  1> ! pbe def2-sv(p) def2/J RI DEFGRID1 loosescf d4 GCP(DFT/SV(P)) printgap
|  2> %output
|  3>     printlevel normal
|  4> end
|  5> * xyz 0 1
|  6> C -1.4391652405 -0.2797018351 1.2601021733
|  7> C -0.6396971444 -0.4246898939 -0.0354785132
|  8> C -1.5412799465 -0.0753652695 -1.234784334
|  9> C 0.6390890114 0.4362457462 -0.0348899312
| 10> C 1.4458310823 0.2882746995 1.2552396021
| 11> C 1.5340630631 0.0581642992 -1.2160704284
| 12> H -1.6766428102 0.7659556725 1.4461519369
| 13> H -2.3714131745 -0.8355978455 1.1819931097
| 14> H -0.8906543909 -0.6703166144 2.1126021921
| 15> H -0.3273632158 -1.4717066113 -0.1176031667
| 16> H -1.0955703927 0.6944006383 -1.8590966629
| 17> H -1.7263706649 -0.9463472099 -1.8581196905
| 18> H -2.5028893133 0.3012288281 -0.8945083808
| 19> H 0.3442075517 1.4873185923 -0.1361573801
| 20> H 1.6480874028 -0.7612619851 1.4593905286
| 21> H 2.3985573493 0.8046132015 1.1559735311
| 22> H 0.9218943373 0.715636465 2.1052270209
| 23> H 1.8919594295 -0.9630338953 -1.0999601773
| 24> H 2.3972879789 0.7184754777 -1.2645757728
| 25> H 1.0027236307 0.1257457505 -2.1612289112
| 26> *
| 27>
| 28>                          ****END OF INPUT****

CARTESIAN COORDINATES (ANGSTROEM)
---------------------------------
  C     -1.439165   -0.279702    1.260102
  C     -0.639697   -0.424690   -0.035479
  C     -1.541280   -0.075365   -1.234784
  C      0.639089    0.436246   -0.034890
  C      1.445831    0.288275    1.255240
  C      1.534063    0.058164   -1.216070
  H     -1.676643    0.765956    1.446152
  H     -2.371413   -0.835598    1.181993
  H     -0.890654   -0.670317    2.112602
  H     -0.327363   -1.471707   -0.117603
  H     -1.095570    0.694401   -1.859097
  H     -1.726371   -0.946347   -1.858120
  H     -2.502889    0.301229   -0.894508
  H      0.344208    1.487319   -0.136157
  H      1.648087   -0.761262    1.459391
  H      2.398557    0.804613    1.155974
  H      0.921894    0.715636    2.105227
  H      1.891959   -0.963034   -1.099960
  H      2.397288    0.718475   -1.264576
  H      1.002724    0.125746   -2.161229

 Total Charge           Charge          ....    0
 Multiplicity           Mult            ....    1
 Number of Electrons    NEL             ....   50
 Basis Dimension        Dim             ....  112

ORBITAL ENERGIES
----------------

  NO   OCC          E(Eh)            E(eV)
   0   2.0000      -9.889229      -269.0996
   1   2.0000      -9.889171      -269.0980
   2   2.0000      -9.867792      -268.5163
   3   2.0000      -9.867555      -268.5098
   4   2.0000      -9.867538      -268.5094
   5   2.0000      -9.867371      -268.5048
   6   2.0000      -0.737871       -20.0785
   7   2.0000      -0.669042       -18.2056
   8   2.0000      -0.617381       -16.7998
   9   2.0000      -0.592268       -16.1164
  10   2.0000      -0.538173       -14.6444
  11   2.0000      -0.487104       -13.2548
  12   2.0000      -0.406612       -11.0645
  13   2.0000      -0.406134       -11.0515
  14   2.0000      -0.384647       -10.4668
  15   2.0000      -0.373457       -10.1623
  16   2.0000      -0.345237        -9.3944
  17   2.0000      -0.342925        -9.3315
  18   2.0000      -0.332032        -9.0351
  19   2.0000      -0.317321        -8.6347
  20   2.0000      -0.306095        -8.3293
  21   2.0000      -0.298284        -8.1167
  22   2.0000      -0.274547        -7.4708
  23   2.0000      -0.268305        -7.3010
  24   2.0000      -0.263952        -7.1825
  25   0.0000       0.036413         0.9908
  26   0.0000       0.062290         1.6950
  27   0.0000       0.068344         1.8597
  28   0.0000       0.073507         2.0002
  29   0.0000       0.096967         2.6386

MULLIKEN ATOMIC CHARGES
-----------------------
   0 C :   -0.248887
   1 C :   -0.149615
   2 C :   -0.246748
   3 C :   -0.172072
   4 C :   -0.245824
   5 C :   -0.238755
   6 H :    0.095378
   7 H :    0.100274
   8 H :    0.102622
   9 H :    0.063589
  10 H :    0.103169
  11 H :    0.098576
  12 H :    0.093536
  13 H :    0.066626
  14 H :    0.092658
  15 H :    0.095237
  16 H :    0.104700
  17 H :    0.089811
  18 H :    0.097749
  19 H :    0.097975
Sum of atomic charges:    0.0000000

LOEWDIN ATOMIC CHARGES
----------------------
   0 C :   -0.331874
   1 C :   -0.149647
   2 C :   -0.334428
   3 C :   -0.151684
   4 C :   -0.330707
   5 C :   -0.329585
   6 H :    0.116383
   7 H :    0.116922
   8 H :    0.115816
   9 H :    0.111486
  10 H :    0.118116
  11 H :    0.121125
  12 H :    0.118706
  13 H :    0.111367
  14 H :    0.116537
  15 H :    0.117061
  16 H :    0.116945
  17 H :    0.115746
  18 H :    0.116475
  19 H :    0.115240

  Mayer bond orders larger than 0.100000
B(  0-C ,  1-C ) :   1.1370 B(  0-C ,  6-H ) :   0.9457 B(  0-C ,  7-H ) :   0.9471
B(  0-C ,  8-H ) :   0.9400 B(  1-C ,  2-C ) :   1.0897 B(  1-C ,  3-C ) :   1.0594
B(  1-C ,  9-H ) :   0.9059 B(  2-C , 10-H ) :   0.9465 B(  2-C , 11-H ) :   0.9531
B(  2-C , 12-H ) :   0.9527 B(  3-C ,  4-C ) :   1.1195 B(  3-C ,  5-C ) :   1.1122
B(  3-C , 13-H ) :   0.8944 B(  4-C , 14-H ) :   0.9477 B(  4-C , 15-H ) :   0.9493
B(  4-C , 16-H ) :   0.9408 B(  5-C , 17-H ) :   0.9479 B(  5-C , 18-H ) :   0.9507
B(  5-C , 19-H ) :   0.9463

Dispersion correction           -0.015564632
FINAL SINGLE POINT ENERGY      -236.443619217390

DIPOLE MOMENT
-------------

Method             : SCF
Type of density    : Electron Density
Multiplicity       :   1
Irrep              :   0
Energy             :  -236.5112119306481304 Eh
Relativity type    :
Basis              : AO
                                X                 Y                 Z
Electronic contribution:     -0.023824759       0.032263687      -0.075839031
Nuclear contribution   :      0.012959494      -0.032732008       0.065754006
                        -----------------------------------------
Total Dipole Moment    :     -0.010865265      -0.000468321      -0.010085025
                        -----------------------------------------
Magnitude (a.u.)       :      0.014831758
Magnitude (Debye)      :      0.037699333

Rotational constants in cm-1:             0.141472             0.096970             0.063492
Rotational constants in MHz :          4241.215677          2907.084114          1903.431150

                             ****ORCA TERMINATED NORMALLY****
TOTAL RUN TIME: 0 days 0 hours 0 minutes 3 seconds 841 msec
