                         Program Version 6.0.1  -  RELEASE   -
|  1> ! pbe def2-sv(p) def2/J RI DEFGRID1 loosescf d4 GCP(DFT/SV(P)) printgap
|  2> %output
|  3>     printlevel normal
|  4> end
|  5> * xyz 0 1
|  6> C -1.6025642274 0.1033887075 -0.508178815
|  7> C -0.6691724668 -0.4696117869 0.5539591101
|  8> C 0.6736356861 0.2638325694 0.6121125092
|  9> O 1.4769472912 0.0521845776 -0.5237908152
| 10> H -1.1926463897 -0.0318321434 -1.5078325635
| 11> H -2.5656174944 -0.40002485 -0.4739485143
| 12> H -1.7657733062 1.1665636921 -0.3403383075
| 13> H -0.4828739354 -1.5255090822 0.3490009801
| 14> H -1.1419945831 -0.3915150438 1.5343437941
| 15> H 0.4980863556 1.3402835113 0.7610455852
| 16> H 1.2634052338 -0.10751089 1.4535591847
| 17> H 0.986700475 0.3413401091 -1.3011915081
| 18> *
| 19>
| 20>                          ****END OF INPUT****

CARTESIAN COORDINATES (ANGSTROEM)
---------------------------------
  C     -1.602564    0.103389   -0.508179
  C     -0.669172   -0.469612    0.553959
  C      0.673636    0.263833    0.612113
  O      1.476947    0.052185   -0.523791
  H     -1.192646   -0.031832   -1.507833
  H     -2.565617   -0.400025   -0.473949
  H     -1.765773    1.166564   -0.340338
  H     -0.482874   -1.525509    0.349001
  H     -1.141995   -0.391515    1.534344
  H      0.498086    1.340284    0.761046
  H      1.263405   -0.107511    1.453559
  H      0.986700    0.341340   -1.301192

 Total Charge           Charge          ....    0
 Multiplicity           Mult            ....    1
 Number of Electrons    NEL             ....   34
 Basis Dimension        Dim             ....   72

ORBITAL ENERGIES
----------------

  NO   OCC          E(Eh)            E(eV)
   0   2.0000     -18.738412      -509.8981
   1   2.0000      -9.925374      -270.0832
   2   2.0000      -9.885833      -269.0072
   3   2.0000      -9.883644      -268.9476
   4   2.0000      -0.917329       -24.9618
   5   2.0000      -0.700046       -19.0492
   6   2.0000      -0.609466       -16.5844
   7   2.0000      -0.528537       -14.3822
   8   2.0000      -0.453983       -12.3535
   9   2.0000      -0.412765       -11.2319
  10   2.0000      -0.390368       -10.6224
  11   2.0000      -0.372538       -10.1373
  12   2.0000      -0.330466        -8.9924
  13   2.0000      -0.312938        -8.5155
  14   2.0000      -0.304621        -8.2892
  15   2.0000      -0.268286        -7.3004
  16   2.0000      -0.210877        -5.7382
  17   0.0000       0.022939         0.6242
  18   0.0000       0.058798         1.6000
  19   0.0000       0.079771         2.1707
  20   0.0000       0.087380         2.3777
  21   0.0000       0.104617         2.8468

MULLIKEN ATOMIC CHARGES
-----------------------
   0 C :   -0.308427
   1 C :   -0.205165
   2 C :    0.011852
   3 O :   -0.437633
   4 H :    0.091759
   5 H :    0.113644
   6 H :    0.102965
   7 H :    0.096361
   8 H :    0.085749
   9 H :    0.067044
  10 H :    0.089360
  11 H :    0.292492
Sum of atomic charges:    0.0000000

LOEWDIN ATOMIC CHARGES
----------------------
   0 C :   -0.348981
   1 C :   -0.260928
   2 C :   -0.123430
   3 O :   -0.340427
   4 H :    0.109846
   5 H :    0.124888
   6 H :    0.117707
   7 H :    0.120137
   8 H :    0.120366
   9 H :    0.091070
  10 H :    0.111855
  11 H :    0.277898

  Mayer bond orders larger than 0.100000
B(  0-C ,  1-C ) :   1.1394 B(  0-C ,  4-H ) :   0.9466 B(  0-C ,  5-H ) :   0.9531
B(  0-C ,  6-H ) :   0.9553 B(  1-C ,  2-C ) :   1.0984 B(  1-C ,  7-H ) :   0.9223
B(  1-C ,  8-H ) :   0.9151 B(  2-C ,  3-O ) :   1.0702 B(  2-C ,  9-H ) :   0.9234
B(  2-C , 10-H ) :   0.9330 B(  3-O , 11-H ) :   0.8524

Dispersion correction           -0.006455656
FINAL SINGLE POINT ENERGY      -193.874723379976

DIPOLE MOMENT
-------------

Method             : SCF
Type of density    : Electron Density
Multiplicity       :   1
Irrep              :   0
Energy             :  -193.9243981732408884 Eh
Relativity type    :
Basis              : AO
                                X                 Y                 Z
Electronic contribution:      3.499071324      -0.176443681      -0.497522744
Nuclear contribution   :     -4.106673746       0.368342596       0.437516132
                        -----------------------------------------
Total Dipole Moment    :     -0.607602422       0.191898915      -0.060006612
                        -----------------------------------------
Magnitude (a.u.)       :      0.640005227
Magnitude (Debye)      :      1.626764005

Rotational constants in cm-1:             0.490158             0.166564             0.142292
Rotational constants in MHz :         14694.581084          4993.457658          4265.793298

                             ****ORCA TERMINATED NORMALLY****
TOTAL RUN TIME: 0 days 0 hours 0 minutes 6 seconds 549 msec
