                         Program Version 6.0.1  -  RELEASE   -
|  1> ! pbe def2-sv(p) def2/J RI DEFGRID1 loosescf d4 GCP(DFT/SV(P)) printgap
|  2> %output
|  3>     printlevel normal
|  4> end
|  5> * xyz 0 1
|  6> C 3.2578380162 -0.5244411913 0.7743929127
|  7> C 1.900731529 -0.310997486 0.1891133775
|  8> C 1.3061444139 0.8866666217 0.1826487124
|  9> C -0.033501174 1.142609217 -0.3446395607
| 10> O -0.5172203569 2.2567450054 -0.3551444735
| 11> C -0.8041431395 -0.0646023509 -0.8516029657
| 12> H -1.4175715874 0.281703183 -1.6907232036
| 13> C 0.1487024577 -1.1339208304 -1.387873778
| 14> C 1.2343399356 -1.5206718795 -0.3902162103
| 15> C -1.7904256289 -0.566774955 0.237122673
| 16> C -1.2797521777 -0.3920791884 1.6678911236
| 17> C -3.1177539411 0.1774251351 0.096407032
| 18> H 3.2323710569 -1.3423524932 1.4940007814
| 19> H 3.6218563172 0.3720523559 1.2686321233
| 20> H 3.9623037134 -0.8018131951 -0.0100189519
| 21> H 1.8082667869 1.7524741125 0.593159241
| 22> H -0.4204257601 -2.0187792291 -1.682270044
| 23> H 0.6313033023 -0.7372659543 -2.2855348152
| 24> H 0.8065959446 -2.1159563731 0.4222113158
| 25> H 1.9818391872 -2.1501083789 -0.8803863502
| 26> H -1.9658693861 -1.6344947454 0.0576882664
| 27> H -1.996240905 -0.823652992 2.3645503436
| 28> H -1.1729418206 0.6639186919 1.9050643328
| 29> H -0.3208324219 -0.8757599057 1.8265935598
| 30> H -3.5792963036 -0.0275114492 -0.8672779625
| 31> H -2.9484439884 1.2486214148 0.1783762662
| 32> H -3.8103653698 -0.1249856408 0.8789810511
| 33> *
| 34>
| 35>                          ****END OF INPUT****

CARTESIAN COORDINATES (ANGSTROEM)
---------------------------------
  C      3.257838   -0.524441    0.774393
  C      1.900732   -0.310997    0.189113
  C      1.306144    0.886667    0.182649
  C     -0.033501    1.142609   -0.344640
  O     -0.517220    2.256745   -0.355144
  C     -0.804143   -0.064602   -0.851603
  H     -1.417572    0.281703   -1.690723
  C      0.148702   -1.133921   -1.387874
  C      1.234340   -1.520672   -0.390216
  C     -1.790426   -0.566775    0.237123
  C     -1.279752   -0.392079    1.667891
  C     -3.117754    0.177425    0.096407
  H      3.232371   -1.342352    1.494001
  H      3.621856    0.372052    1.268632
  H      3.962304   -0.801813   -0.010019
  H      1.808267    1.752474    0.593159
  H     -0.420426   -2.018779   -1.682270
  H      0.631303   -0.737266   -2.285535
  H      0.806596   -2.115956    0.422211
  H      1.981839   -2.150108   -0.880386
  H     -1.965869   -1.634495    0.057688
  H     -1.996241   -0.823653    2.364550
  H     -1.172942    0.663919    1.905064
  H     -0.320832   -0.875760    1.826594
  H     -3.579296   -0.027511   -0.867278
  H     -2.948444    1.248621    0.178376
  H     -3.810365   -0.124986    0.878981

 Total Charge           Charge          ....    0
 Multiplicity           Mult            ....    1
 Number of Electrons    NEL             ....   84
 Basis Dimension        Dim             ....  186

ORBITAL ENERGIES
----------------

  NO   OCC          E(Eh)            E(eV)
   0   2.0000     -18.723735      -509.4987
   1   2.0000      -9.961077      -271.0547
   2   2.0000      -9.922628      -270.0084
   3   2.0000      -9.902476      -269.4601
   4   2.0000      -9.901801      -269.4417
   5   2.0000      -9.894798      -269.2511
   6   2.0000      -9.894620      -269.2463
   7   2.0000      -9.892691      -269.1938
   8   2.0000      -9.888240      -269.0727
   9   2.0000      -9.873651      -268.6757
  10   2.0000      -9.867202      -268.5002
  11   2.0000      -0.925188       -25.1757
  12   2.0000      -0.774093       -21.0641
  13   2.0000      -0.730820       -19.8866
  14   2.0000      -0.684962       -18.6388
  15   2.0000      -0.654352       -17.8058
  16   2.0000      -0.625400       -17.0180
  17   2.0000      -0.606790       -16.5116
  18   2.0000      -0.552240       -15.0272
  19   2.0000      -0.523667       -14.2497
  20   2.0000      -0.504401       -13.7255
  21   2.0000      -0.451186       -12.2774
  22   2.0000      -0.435139       -11.8407
  23   2.0000      -0.426761       -11.6128
  24   2.0000      -0.405924       -11.0457
  25   2.0000      -0.395460       -10.7610
  26   2.0000      -0.385110       -10.4794
  27   2.0000      -0.377983       -10.2854
  28   2.0000      -0.368805       -10.0357
  29   2.0000      -0.357176        -9.7193
  30   2.0000      -0.348657        -9.4874
  31   2.0000      -0.344458        -9.3732
  32   2.0000      -0.336992        -9.1700
  33   2.0000      -0.331516        -9.0210
  34   2.0000      -0.327645        -8.9157
  35   2.0000      -0.304835        -8.2950
  36   2.0000      -0.297374        -8.0920
  37   2.0000      -0.291045        -7.9197
  38   2.0000      -0.277033        -7.5384
  39   2.0000      -0.271700        -7.3933
  40   2.0000      -0.234070        -6.3694
  41   2.0000      -0.183322        -4.9884
  42   0.0000      -0.077857        -2.1186
  43   0.0000       0.022651         0.6164
  44   0.0000       0.028478         0.7749
  45   0.0000       0.048959         1.3322
  46   0.0000       0.057048         1.5523

MULLIKEN ATOMIC CHARGES
-----------------------
   0 C :   -0.219765
   1 C :   -0.066380
   2 C :   -0.145714
   3 C :    0.067921
   4 O :   -0.163916
   5 C :   -0.128417
   6 H :    0.074679
   7 C :   -0.110362
   8 C :   -0.116173
   9 C :   -0.160967
  10 C :   -0.257489
  11 C :   -0.243192
  12 H :    0.116522
  13 H :    0.112116
  14 H :    0.122010
  15 H :    0.043296
  16 H :    0.081012
  17 H :    0.092241
  18 H :    0.109548
  19 H :    0.092943
  20 H :    0.068435
  21 H :    0.100540
  22 H :    0.121550
  23 H :    0.103648
  24 H :    0.096160
  25 H :    0.115644
  26 H :    0.094111
Sum of atomic charges:   -0.0000000

LOEWDIN ATOMIC CHARGES
----------------------
   0 C :   -0.321730
   1 C :   -0.016790
   2 C :   -0.170819
   3 C :    0.039224
   4 O :   -0.134812
   5 C :   -0.156461
   6 H :    0.131043
   7 C :   -0.208055
   8 C :   -0.217546
   9 C :   -0.136145
  10 C :   -0.335463
  11 C :   -0.330929
  12 H :    0.134687
  13 H :    0.128950
  14 H :    0.137480
  15 H :    0.127576
  16 H :    0.117768
  17 H :    0.121824
  18 H :    0.134028
  19 H :    0.127380
  20 H :    0.111823
  21 H :    0.119763
  22 H :    0.125797
  23 H :    0.114050
  24 H :    0.115833
  25 H :    0.126583
  26 H :    0.114942

  Mayer bond orders larger than 0.100000
B(  0-C ,  1-C ) :   1.1235 B(  0-C , 12-H ) :   0.9291 B(  0-C , 13-H ) :   0.9426
B(  0-C , 14-H ) :   0.9236 B(  1-C ,  2-C ) :   1.7263 B(  1-C ,  8-C ) :   1.0705
B(  2-C ,  3-C ) :   1.0468 B(  2-C , 15-H ) :   0.9338 B(  3-C ,  4-O ) :   2.0986
B(  3-C ,  5-C ) :   0.9658 B(  5-C ,  6-H ) :   0.8708 B(  5-C ,  7-C ) :   1.0686
B(  5-C ,  9-C ) :   0.9927 B(  7-C ,  8-C ) :   1.1255 B(  7-C , 16-H ) :   0.9054
B(  7-C , 17-H ) :   0.9205 B(  8-C , 18-H ) :   0.8721 B(  8-C , 19-H ) :   0.9045
B(  9-C , 10-C ) :   1.1361 B(  9-C , 11-C ) :   1.1152 B(  9-C , 20-H ) :   0.9029
B( 10-C , 21-H ) :   0.9445 B( 10-C , 22-H ) :   0.9276 B( 10-C , 23-H ) :   0.9378
B( 11-C , 24-H ) :   0.9468 B( 11-C , 25-H ) :   0.9393 B( 11-C , 26-H ) :   0.9474

Dispersion correction           -0.029509929
FINAL SINGLE POINT ENERGY      -464.841494474201

DIPOLE MOMENT
-------------

Method             : SCF
Type of density    : Electron Density
Multiplicity       :   1
Irrep              :   0
Energy             :  -464.9259687461598105 Eh
Relativity type    :
Basis              : AO
                                X                 Y                 Z
Electronic contribution:      2.197923264       6.480107936      -3.223575678
Nuclear contribution   :     -1.496963388      -7.785131355       3.346845824
                        -----------------------------------------
Total Dipole Moment    :      0.700959876      -1.305023419       0.123270147
                        -----------------------------------------
Magnitude (a.u.)       :      1.486481215
Magnitude (Debye)      :      3.778334979

Rotational constants in cm-1:             0.058760             0.027572             0.024823
Rotational constants in MHz :          1761.594945           826.593018           744.160485

                             ****ORCA TERMINATED NORMALLY****
TOTAL RUN TIME: 0 days 0 hours 0 minutes 29 seconds 193 msec
