                         Program Version 6.0.1  -  RELEASE   -
|  1> ! pbe def2-sv(p) def2/J RI DEFGRID1 loosescf d4 GCP(DFT/SV(P)) printgap
|  2> %output
|  3>     printlevel normal
|  4> end
|  5> * xyz 0 1
|  6> C -2.1593215563 -1.2651757835 0.055829019
|  7> C -0.8569791809 -0.5711454262 0.4984806463
|  8> H -0.9649745356 -0.2678953423 1.5547589422
|  9> C -0.6105995794 0.7059961457 -0.3263009471
| 10> H -0.7045431152 0.4553122163 -1.3957124244
| 11> C 0.7983207964 1.3030827537 -0.1041410816
| 12> H 0.7131352063 2.1041253103 0.6368123835
| 13> C 1.8045543787 0.2433481967 0.4072979649
| 14> H 2.7938144209 0.5137555376 0.0253492676
| 15> C 1.3986088667 -1.1280153834 -0.1464757023
| 16> H 2.1148695476 -1.8996478759 0.1766341415
| 17> O 0.177396402 -1.5485414106 0.4040731693
| 18> O 1.3518811218 -1.0426684543 -1.5416266581
| 19> O 1.9280467938 0.1938066968 1.8007297284
| 20> O 1.2802693327 1.9052785895 -1.271094974
| 21> O -1.5504273469 1.6839532953 0.0325369224
| 22> O -3.3039474634 -0.4830682571 0.2881607173
| 23> H -2.2225333993 -2.234479254 0.5655895864
| 24> H -2.1303159939 -1.4433277904 -1.0220534052
| 25> H 1.0872214639 -1.8984077601 -1.8999658083
| 26> H 1.1636346007 -0.262080846 2.1719678786
| 27> H 1.4094232994 1.2132930372 -1.9335416234
| 28> H -2.4372273605 1.333735549 -0.1434051865
| 29> H -3.4325811585 -0.3815195305 1.2386181414
| 30> *
| 31>
| 32>                          ****END OF INPUT****

CARTESIAN COORDINATES (ANGSTROEM)
---------------------------------
  C     -2.159322   -1.265176    0.055829
  C     -0.856979   -0.571145    0.498481
  H     -0.964975   -0.267895    1.554759
  C     -0.610600    0.705996   -0.326301
  H     -0.704543    0.455312   -1.395712
  C      0.798321    1.303083   -0.104141
  H      0.713135    2.104125    0.636812
  C      1.804554    0.243348    0.407298
  H      2.793814    0.513756    0.025349
  C      1.398609   -1.128015   -0.146476
  H      2.114870   -1.899648    0.176634
  O      0.177396   -1.548541    0.404073
  O      1.351881   -1.042668   -1.541627
  O      1.928047    0.193807    1.800730
  O      1.280269    1.905279   -1.271095
  O     -1.550427    1.683953    0.032537
  O     -3.303947   -0.483068    0.288161
  H     -2.222533   -2.234479    0.565590
  H     -2.130316   -1.443328   -1.022053
  H      1.087221   -1.898408   -1.899966
  H      1.163635   -0.262081    2.171968
  H      1.409423    1.213293   -1.933542
  H     -2.437227    1.333736   -0.143405
  H     -3.432581   -0.381520    1.238618

 Total Charge           Charge          ....    0
 Multiplicity           Mult            ....    1
 Number of Electrons    NEL             ....   96
 Basis Dimension        Dim             ....  192

ORBITAL ENERGIES
----------------

  NO   OCC          E(Eh)            E(eV)
   0   2.0000     -18.788493      -511.2609
   1   2.0000     -18.783849      -511.1345
   2   2.0000     -18.781730      -511.0769
   3   2.0000     -18.755344      -510.3588
   4   2.0000     -18.740395      -509.9521
   5   2.0000     -18.734722      -509.7977
   6   2.0000      -9.996979      -272.0316
   7   2.0000      -9.955423      -270.9008
   8   2.0000      -9.951401      -270.7914
   9   2.0000      -9.940502      -270.4948
  10   2.0000      -9.940136      -270.4849
  11   2.0000      -9.931028      -270.2370
  12   2.0000      -0.998892       -27.1812
  13   2.0000      -0.958497       -26.0820
  14   2.0000      -0.938978       -25.5509
  15   2.0000      -0.929285       -25.2871
  16   2.0000      -0.925795       -25.1922
  17   2.0000      -0.910408       -24.7735
  18   2.0000      -0.709369       -19.3029
  19   2.0000      -0.689874       -18.7724
  20   2.0000      -0.630215       -17.1490
  21   2.0000      -0.588727       -16.0201
  22   2.0000      -0.578837       -15.7510
  23   2.0000      -0.528906       -14.3923
  24   2.0000      -0.513058       -13.9610
  25   2.0000      -0.496700       -13.5159
  26   2.0000      -0.480790       -13.0830
  27   2.0000      -0.469424       -12.7737
  28   2.0000      -0.455748       -12.4015
  29   2.0000      -0.422173       -11.4879
  30   2.0000      -0.419639       -11.4190
  31   2.0000      -0.415321       -11.3015
  32   2.0000      -0.389679       -10.6037
  33   2.0000      -0.376880       -10.2554
  34   2.0000      -0.366233        -9.9657
  35   2.0000      -0.359081        -9.7711
  36   2.0000      -0.339887        -9.2488
  37   2.0000      -0.320742        -8.7278
  38   2.0000      -0.311003        -8.4628
  39   2.0000      -0.302433        -8.2296
  40   2.0000      -0.283474        -7.7137
  41   2.0000      -0.278259        -7.5718
  42   2.0000      -0.260158        -7.0793
  43   2.0000      -0.258091        -7.0230
  44   2.0000      -0.242362        -6.5950
  45   2.0000      -0.233033        -6.3411
  46   2.0000      -0.210372        -5.7245
  47   2.0000      -0.197470        -5.3734
  48   0.0000       0.004689         0.1276
  49   0.0000       0.009243         0.2515
  50   0.0000       0.018124         0.4932
  51   0.0000       0.050931         1.3859
  52   0.0000       0.070078         1.9069

MULLIKEN ATOMIC CHARGES
-----------------------
   0 C :    0.063891
   1 C :   -0.038537
   2 H :    0.047413
   3 C :    0.070537
   4 H :    0.038202
   5 C :    0.126722
   6 H :    0.075181
   7 C :    0.019615
   8 H :    0.086342
   9 C :    0.139148
  10 H :    0.076188
  11 O :   -0.315725
  12 O :   -0.398064
  13 O :   -0.408469
  14 O :   -0.424897
  15 O :   -0.417432
  16 O :   -0.429449
  17 H :    0.094569
  18 H :    0.082942
  19 H :    0.307880
  20 H :    0.303557
  21 H :    0.299543
  22 H :    0.292623
  23 H :    0.308218
Sum of atomic charges:    0.0000000

LOEWDIN ATOMIC CHARGES
----------------------
   0 C :   -0.129463
   1 C :   -0.091121
   2 H :    0.094076
   3 C :   -0.075977
   4 H :    0.100174
   5 C :   -0.064774
   6 H :    0.126115
   7 C :   -0.088024
   8 H :    0.124981
   9 C :   -0.012217
  10 H :    0.101927
  11 O :   -0.149177
  12 O :   -0.311261
  13 O :   -0.303439
  14 O :   -0.308983
  15 O :   -0.320458
  16 O :   -0.316606
  17 H :    0.105490
  18 H :    0.115187
  19 H :    0.289284
  20 H :    0.280805
  21 H :    0.274573
  22 H :    0.268495
  23 H :    0.290396

  Mayer bond orders larger than 0.100000
B(  0-C ,  1-C ) :   1.0289 B(  0-C , 16-O ) :   1.0453 B(  0-C , 17-H ) :   0.9229
B(  0-C , 18-H ) :   0.9147 B(  1-C ,  2-H ) :   0.8725 B(  1-C ,  3-C ) :   1.0149
B(  1-C , 11-O ) :   0.9483 B(  3-C ,  4-H ) :   0.8605 B(  3-C ,  5-C ) :   1.0085
B(  3-C , 15-O ) :   1.0857 B(  5-C ,  6-H ) :   0.8619 B(  5-C ,  7-C ) :   0.9730
B(  5-C , 14-O ) :   1.0362 B(  7-C ,  8-H ) :   0.8845 B(  7-C ,  9-C ) :   1.0394
B(  7-C , 13-O ) :   1.0516 B(  9-C , 10-H ) :   0.8986 B(  9-C , 11-O ) :   1.0538
B(  9-C , 12-O ) :   1.1001 B( 12-O , 19-H ) :   0.8374 B( 13-O , 20-H ) :   0.8416
B( 14-O , 21-H ) :   0.8380 B( 15-O , 22-H ) :   0.8090 B( 16-O , 22-H ) :   0.1066
B( 16-O , 23-H ) :   0.8412

Dispersion correction           -0.025064436
FINAL SINGLE POINT ENERGY      -685.691802095284

DIPOLE MOMENT
-------------

Method             : SCF
Type of density    : Electron Density
Multiplicity       :   1
Irrep              :   0
Energy             :  -685.8247885663415673 Eh
Relativity type    :
Basis              : AO
                                X                 Y                 Z
Electronic contribution:      1.780216999       0.894050493       0.064839133
Nuclear contribution   :     -2.450426323      -2.585545084      -0.027660603
                        -----------------------------------------
Total Dipole Moment    :     -0.670209324      -1.691494592       0.037178530
                        -----------------------------------------
Magnitude (a.u.)       :      1.819812280
Magnitude (Debye)      :      4.625595214

Rotational constants in cm-1:             0.043113             0.025454             0.021832
Rotational constants in MHz :          1292.481047           763.095624           654.514838

                             ****ORCA TERMINATED NORMALLY****
TOTAL RUN TIME: 0 days 0 hours 0 minutes 7 seconds 905 msec
