                         Program Version 6.0.1  -  RELEASE   -
|  1> ! pbe def2-sv(p) def2/J RI DEFGRID1 loosescf d4 GCP(DFT/SV(P)) printgap
|  2> %output
|  3>     printlevel normal
|  4> end
|  5> * xyz 0 1
|  6> C -1.9489147209 0.4368334342 0.1416047049
|  7> C -0.8873494375 -0.607625342 -0.1848581679
|  8> C 0.5566954173 -0.1642488207 -0.0115698618
|  9> O 1.4447294013 -0.9438606645 0.2522933071
| 10> N 0.7989930685 1.1536743337 -0.1965483831
| 11> H -2.9298628099 -0.0330169491 0.1535912358
| 12> H -1.7715574749 0.8742160593 1.1218196715
| 13> H -1.9769066574 1.2319750867 -0.6013490271
| 14> H -0.9962330568 -0.9387140177 -1.2213451122
| 15> H -1.0192729589 -1.4871631321 0.4473732671
| 16> H 0.076663078 1.8131806699 -0.416824449
| 17> H 1.7452980198 1.4824811228 -0.1034306288
| 18> *
| 19>
| 20>                          ****END OF INPUT****

CARTESIAN COORDINATES (ANGSTROEM)
---------------------------------
  C     -1.948915    0.436833    0.141605
  C     -0.887349   -0.607625   -0.184858
  C      0.556695   -0.164249   -0.011570
  O      1.444729   -0.943861    0.252293
  N      0.798993    1.153674   -0.196548
  H     -2.929863   -0.033017    0.153591
  H     -1.771557    0.874216    1.121820
  H     -1.976907    1.231975   -0.601349
  H     -0.996233   -0.938714   -1.221345
  H     -1.019273   -1.487163    0.447373
  H      0.076663    1.813181   -0.416824
  H      1.745298    1.482481   -0.103431

 Total Charge           Charge          ....    0
 Multiplicity           Mult            ....    1
 Number of Electrons    NEL             ....   40
 Basis Dimension        Dim             ....   84

ORBITAL ENERGIES
----------------

  NO   OCC          E(Eh)            E(eV)
   0   2.0000     -18.700402      -508.8638
   1   2.0000     -14.006501      -381.1363
   2   2.0000      -9.974432      -271.4181
   3   2.0000      -9.892204      -269.1806
   4   2.0000      -9.891342      -269.1571
   5   2.0000      -0.925438       -25.1825
   6   2.0000      -0.813968       -22.1492
   7   2.0000      -0.700950       -19.0738
   8   2.0000      -0.586883       -15.9699
   9   2.0000      -0.524563       -14.2741
  10   2.0000      -0.493509       -13.4291
  11   2.0000      -0.421965       -11.4823
  12   2.0000      -0.398956       -10.8562
  13   2.0000      -0.372714       -10.1421
  14   2.0000      -0.351075        -9.5532
  15   2.0000      -0.327846        -8.9211
  16   2.0000      -0.323590        -8.8053
  17   2.0000      -0.305128        -8.3030
  18   2.0000      -0.223325        -6.0770
  19   2.0000      -0.189422        -5.1544
  20   0.0000       0.005419         0.1475
  21   0.0000       0.021658         0.5893
  22   0.0000       0.067648         1.8408
  23   0.0000       0.072666         1.9774
  24   0.0000       0.087842         2.3903

MULLIKEN ATOMIC CHARGES
-----------------------
   0 C :   -0.313516
   1 C :   -0.201731
   2 C :    0.027511
   3 O :   -0.202713
   4 N :   -0.326962
   5 H :    0.113863
   6 H :    0.117760
   7 H :    0.103987
   8 H :    0.120891
   9 H :    0.109121
  10 H :    0.222788
  11 H :    0.229001
Sum of atomic charges:   -0.0000000

LOEWDIN ATOMIC CHARGES
----------------------
   0 C :   -0.349167
   1 C :   -0.259960
   2 C :    0.004837
   3 O :   -0.195516
   4 N :   -0.303520
   5 H :    0.128531
   6 H :    0.122840
   7 H :    0.113786
   8 H :    0.140398
   9 H :    0.137344
  10 H :    0.228065
  11 H :    0.232363

  Mayer bond orders larger than 0.100000
B(  0-C ,  1-C ) :   1.1334 B(  0-C ,  5-H ) :   0.9453 B(  0-C ,  6-H ) :   0.9584
B(  0-C ,  7-H ) :   0.9407 B(  1-C ,  2-C ) :   1.0034 B(  1-C ,  8-H ) :   0.9050
B(  1-C ,  9-H ) :   0.9139 B(  2-C ,  3-O ) :   2.1261 B(  2-C ,  4-N ) :   1.2673
B(  4-N , 10-H ) :   0.8643 B(  4-N , 11-H ) :   0.8676

Dispersion correction           -0.007556528
FINAL SINGLE POINT ENERGY      -247.972136357623

DIPOLE MOMENT
-------------

Method             : SCF
Type of density    : Electron Density
Multiplicity       :   1
Irrep              :   0
Energy             :  -248.0181448288990396 Eh
Relativity type    :
Basis              : AO
                                X                 Y                 Z
Electronic contribution:      5.624842065      -1.607104849       0.254857909
Nuclear contribution   :     -6.421169393       2.753316686      -0.579155302
                        -----------------------------------------
Total Dipole Moment    :     -0.796327329       1.146211837      -0.324297393
                        -----------------------------------------
Magnitude (a.u.)       :      1.432866912
Magnitude (Debye)      :      3.642058252

Rotational constants in cm-1:             0.309361             0.130297             0.097178
Rotational constants in MHz :          9274.419138          3906.215240          2913.311811

                             ****ORCA TERMINATED NORMALLY****
TOTAL RUN TIME: 0 days 0 hours 0 minutes 17 seconds 753 msec
