                         Program Version 6.0.1  -  RELEASE   -
|  1> ! r2scan-3c def2/J RI DEFGRID2 scfconv6 printgap
|  2> %output
|  3>     printlevel normal
|  4> end
|  5> * xyz 0 1
|  6> C 3.360186034 0.1230127037 0.0113000962
|  7> N 1.945993865 0.3618312597 0.1788469992
|  8> C 1.6021856655 1.5923564291 0.8423976926
|  9> C 1.0596828442 -0.5760842693 -0.2328954712
| 10> O 1.4098399914 -1.6416885565 -0.7076194187
| 11> C -0.3920820729 -0.2335791705 -0.0941319425
| 12> C -1.1966630452 -0.9915896223 0.7474040191
| 13> C -2.55366556 -0.733398354 0.8291286022
| 14> C -3.1177999195 0.268911147 0.057925108
| 15> C -2.3230104017 1.0124862066 -0.7987750481
| 16> C -0.9639791785 0.764946918 -0.8752571875
| 17> H 3.4826942932 -0.8291420564 -0.5011897263
| 18> H 3.8601867783 0.0796926803 0.981985837
| 19> H 3.8094642868 0.9209487596 -0.5843241173
| 20> H 2.1702200145 1.6768700638 1.7730492661
| 21> H 0.5409322857 1.6178537869 1.0764260445
| 22> H 1.8489148321 2.4521796598 0.2117104374
| 23> H -0.7516092778 -1.7812972144 1.3342094938
| 24> H -3.1732871274 -1.320063849 1.4911879855
| 25> H -4.1779438952 0.4662622194 0.1185229622
| 26> H -2.763127029 1.7867581525 -1.4100000307
| 27> H -0.3440362099 1.3390343789 -1.5489038961
| 28> *
| 29>
| 30>                          ****END OF INPUT****

CARTESIAN COORDINATES (ANGSTROEM)
---------------------------------
  C      3.360186    0.123013    0.011300
  N      1.945994    0.361831    0.178847
  C      1.602186    1.592356    0.842398
  C      1.059683   -0.576084   -0.232895
  O      1.409840   -1.641689   -0.707619
  C     -0.392082   -0.233579   -0.094132
  C     -1.196663   -0.991590    0.747404
  C     -2.553666   -0.733398    0.829129
  C     -3.117800    0.268911    0.057925
  C     -2.323010    1.012486   -0.798775
  C     -0.963979    0.764947   -0.875257
  H      3.482694   -0.829142   -0.501190
  H      3.860187    0.079693    0.981986
  H      3.809464    0.920949   -0.584324
  H      2.170220    1.676870    1.773049
  H      0.540932    1.617854    1.076426
  H      1.848915    2.452180    0.211710
  H     -0.751609   -1.781297    1.334209
  H     -3.173287   -1.320064    1.491188
  H     -4.177944    0.466262    0.118523
  H     -2.763127    1.786758   -1.410000
  H     -0.344036    1.339034   -1.548904

 Total Charge           Charge          ....    0
 Multiplicity           Mult            ....    1
 Number of Electrons    NEL             ....   80
 Basis Dimension        Dim             ....  274

ORBITAL ENERGIES
----------------

  NO   OCC          E(Eh)            E(eV)
   0   2.0000     -18.908834      -514.5355
   1   2.0000     -14.195371      -386.2757
   2   2.0000     -10.124328      -275.4970
   3   2.0000     -10.068951      -273.9901
   4   2.0000     -10.058907      -273.7168
   5   2.0000     -10.049725      -273.4669
   6   2.0000     -10.044137      -273.3149
   7   2.0000     -10.042716      -273.2762
   8   2.0000     -10.042106      -273.2596
   9   2.0000     -10.041680      -273.2480
  10   2.0000     -10.041271      -273.2369
  11   2.0000      -1.002260       -27.2729
  12   2.0000      -0.908152       -24.7121
  13   2.0000      -0.834978       -22.7209
  14   2.0000      -0.738865       -20.1055
  15   2.0000      -0.724387       -19.7116
  16   2.0000      -0.694572       -18.9003
  17   2.0000      -0.669573       -18.2200
  18   2.0000      -0.590364       -16.0646
  19   2.0000      -0.583541       -15.8790
  20   2.0000      -0.525522       -14.3002
  21   2.0000      -0.500944       -13.6314
  22   2.0000      -0.462485       -12.5849
  23   2.0000      -0.453474       -12.3397
  24   2.0000      -0.442928       -12.0527
  25   2.0000      -0.427541       -11.6340
  26   2.0000      -0.416653       -11.3377
  27   2.0000      -0.397658       -10.8208
  28   2.0000      -0.379752       -10.3336
  29   2.0000      -0.377273       -10.2661
  30   2.0000      -0.372635       -10.1399
  31   2.0000      -0.360840        -9.8189
  32   2.0000      -0.346760        -9.4358
  33   2.0000      -0.341325        -9.2879
  34   2.0000      -0.327957        -8.9242
  35   2.0000      -0.316406        -8.6099
  36   2.0000      -0.248626        -6.7655
  37   2.0000      -0.244883        -6.6636
  38   2.0000      -0.217722        -5.9245
  39   2.0000      -0.212436        -5.7807
  40   0.0000      -0.046257        -1.2587
  41   0.0000      -0.039070        -1.0632
  42   0.0000       0.008457         0.2301
  43   0.0000       0.062010         1.6874
  44   0.0000       0.089068         2.4237

MULLIKEN ATOMIC CHARGES
-----------------------
   0 C :   -0.413546
   1 N :    0.075334
   2 C :   -0.396573
   3 C :    0.247306
   4 O :   -0.441212
   5 C :    0.031581
   6 C :   -0.173408
   7 C :   -0.159048
   8 C :   -0.128048
   9 C :   -0.157695
  10 C :   -0.188080
  11 H :    0.201989
  12 H :    0.144400
  13 H :    0.139764
  14 H :    0.142922
  15 H :    0.173549
  16 H :    0.156226
  17 H :    0.154869
  18 H :    0.146924
  19 H :    0.148115
  20 H :    0.146180
  21 H :    0.148452
Sum of atomic charges:   -0.0000000

LOEWDIN ATOMIC CHARGES
----------------------
   0 C :   -0.111452
   1 N :   -0.838019
   2 C :   -0.105567
   3 C :    0.346383
   4 O :   -0.459896
   5 C :   -0.036286
   6 C :   -0.126638
   7 C :   -0.157779
   8 C :   -0.162204
   9 C :   -0.160335
  10 C :   -0.144080
  11 H :    0.211170
  12 H :    0.172335
  13 H :    0.172626
  14 H :    0.173925
  15 H :    0.196666
  16 H :    0.170071
  17 H :    0.178980
  18 H :    0.168866
  19 H :    0.167962
  20 H :    0.168416
  21 H :    0.174857

  Mayer bond orders larger than 0.100000
B(  0-C ,  1-N ) :   0.9290 B(  0-C , 11-H ) :   0.9548 B(  0-C , 12-H ) :   0.9567
B(  0-C , 13-H ) :   0.9513 B(  1-N ,  2-C ) :   0.9253 B(  1-N ,  3-C ) :   1.2124
B(  2-C , 14-H ) :   0.9533 B(  2-C , 15-H ) :   0.9547 B(  2-C , 16-H ) :   0.9582
B(  3-C ,  4-O ) :   1.8850 B(  3-C ,  5-C ) :   0.8764 B(  5-C ,  6-C ) :   1.4271
B(  5-C , 10-C ) :   1.4216 B(  6-C ,  7-C ) :   1.4054 B(  6-C , 17-H ) :   0.9512
B(  7-C ,  8-C ) :   1.4151 B(  7-C , 18-H ) :   0.9513 B(  8-C ,  9-C ) :   1.4194
B(  8-C , 19-H ) :   0.9454 B(  9-C , 10-C ) :   1.4189 B(  9-C , 20-H ) :   0.9494
B( 10-C , 21-H ) :   0.9431

Dispersion correction           -0.008020251
FINAL SINGLE POINT ENERGY      -479.437543925229

DIPOLE MOMENT
-------------

Method             : SCF
Type of density    : Electron Density
Multiplicity       :   1
Irrep              :   0
Energy             :  -479.4436811015709736 Eh
Relativity type    :
Basis              : AO
                                X                 Y                 Z
Electronic contribution:     -4.297032595      -4.657596746      -2.113309709
Nuclear contribution   :      4.255587771       5.990478865       2.751223511
                        -----------------------------------------
Total Dipole Moment    :     -0.041444825       1.332882119       0.637913802
                        -----------------------------------------
Magnitude (a.u.)       :      1.478251141
Magnitude (Debye)      :      3.757415794

Rotational constants in cm-1:             0.081819             0.023898             0.021519
Rotational constants in MHz :          2452.863824           716.431478           645.131692

                             ****ORCA TERMINATED NORMALLY****
TOTAL RUN TIME: 0 days 0 hours 0 minutes 48 seconds 868 msec
