                         Program Version 6.0.1  -  RELEASE   -
|  1> ! pbe def2-sv(p) def2/J RI DEFGRID1 loosescf d4 GCP(DFT/SV(P)) printgap
|  2> %output
|  3>     printlevel normal
|  4> end
|  5> * xyz 0 1
|  6> C -2.64039477 -0.3412044137 -1.2360844428
|  7> C -1.2432071226 -0.1613267768 -0.6515288578
|  8> H -0.5775462122 0.2233634118 -1.4321187557
|  9> C -0.6628538466 -1.4969672143 -0.14863173
| 10> C 0.2983485638 -1.3261830886 1.027877519
| 11> C 1.1060380703 -0.0260677679 0.9045226542
| 12> H 1.8184788451 0.0080775238 1.7401999771
| 13> C 0.1139875153 1.1242183975 1.0919630813
| 14> C -1.2306754894 0.8944298672 0.433421884
| 15> O -2.203292668 1.5376939968 0.7416922335
| 16> C 1.9455317319 0.0098470788 -0.3538759833
| 17> C 1.8815589686 0.9458009085 -1.2876992276
| 18> C 2.9406222449 -1.1105480885 -0.4655804175
| 19> H -3.0045170407 0.6012747168 -1.6369285716
| 20> H -2.6258659018 -1.0817027442 -2.0323508126
| 21> H -3.3329241748 -0.6662581969 -0.4632044034
| 22> H -1.4843985245 -2.1478263715 0.1565543819
| 23> H -0.1510313054 -1.9854201333 -0.9799553044
| 24> H -0.2720206461 -1.2732291549 1.9584684846
| 25> H 0.9572011653 -2.1919190613 1.0969999691
| 26> H -0.0752901686 1.2775426878 2.1577195716
| 27> H 0.5176639152 2.067010948 0.7176109558
| 28> H 2.5349418443 0.9194824979 -2.1439517828
| 29> H 1.1949865928 1.7736141181 -1.2600452034
| 30> H 2.4426008587 -2.0423648039 -0.7302608805
| 31> H 3.6785647764 -0.8941731123 -1.2333469757
| 32> H 3.4553458815 -1.2645237648 0.48137222
| 33> *
| 34>
| 35>                          ****END OF INPUT****

CARTESIAN COORDINATES (ANGSTROEM)
---------------------------------
  C     -2.640395   -0.341204   -1.236084
  C     -1.243207   -0.161327   -0.651529
  H     -0.577546    0.223363   -1.432119
  C     -0.662854   -1.496967   -0.148632
  C      0.298349   -1.326183    1.027878
  C      1.106038   -0.026068    0.904523
  H      1.818479    0.008078    1.740200
  C      0.113988    1.124218    1.091963
  C     -1.230675    0.894430    0.433422
  O     -2.203293    1.537694    0.741692
  C      1.945532    0.009847   -0.353876
  C      1.881559    0.945801   -1.287699
  C      2.940622   -1.110548   -0.465580
  H     -3.004517    0.601275   -1.636929
  H     -2.625866   -1.081703   -2.032351
  H     -3.332924   -0.666258   -0.463204
  H     -1.484399   -2.147826    0.156554
  H     -0.151031   -1.985420   -0.979955
  H     -0.272021   -1.273229    1.958468
  H      0.957201   -2.191919    1.097000
  H     -0.075290    1.277543    2.157720
  H      0.517664    2.067011    0.717611
  H      2.534942    0.919482   -2.143952
  H      1.194987    1.773614   -1.260045
  H      2.442601   -2.042365   -0.730261
  H      3.678565   -0.894173   -1.233347
  H      3.455346   -1.264524    0.481372

 Total Charge           Charge          ....    0
 Multiplicity           Mult            ....    1
 Number of Electrons    NEL             ....   84
 Basis Dimension        Dim             ....  186

ORBITAL ENERGIES
----------------

  NO   OCC          E(Eh)            E(eV)
   0   2.0000     -18.736536      -509.8471
   1   2.0000      -9.966788      -271.2101
   2   2.0000      -9.909656      -269.6554
   3   2.0000      -9.909013      -269.6380
   4   2.0000      -9.896008      -269.2841
   5   2.0000      -9.895549      -269.2716
   6   2.0000      -9.893808      -269.2242
   7   2.0000      -9.892436      -269.1869
   8   2.0000      -9.889206      -269.0990
   9   2.0000      -9.881137      -268.8794
  10   2.0000      -9.871543      -268.6183
  11   2.0000      -0.937126       -25.5005
  12   2.0000      -0.774835       -21.0843
  13   2.0000      -0.723541       -19.6885
  14   2.0000      -0.687375       -18.7044
  15   2.0000      -0.661145       -17.9907
  16   2.0000      -0.618997       -16.8438
  17   2.0000      -0.603480       -16.4215
  18   2.0000      -0.554159       -15.0794
  19   2.0000      -0.538175       -14.6445
  20   2.0000      -0.476030       -12.9534
  21   2.0000      -0.456118       -12.4116
  22   2.0000      -0.437714       -11.9108
  23   2.0000      -0.431228       -11.7343
  24   2.0000      -0.420488       -11.4421
  25   2.0000      -0.397903       -10.8275
  26   2.0000      -0.388093       -10.5605
  27   2.0000      -0.379999       -10.3403
  28   2.0000      -0.370169       -10.0728
  29   2.0000      -0.362227        -9.8567
  30   2.0000      -0.354339        -9.6421
  31   2.0000      -0.335048        -9.1171
  32   2.0000      -0.333108        -9.0643
  33   2.0000      -0.331951        -9.0329
  34   2.0000      -0.320111        -8.7107
  35   2.0000      -0.312956        -8.5160
  36   2.0000      -0.306619        -8.3435
  37   2.0000      -0.287232        -7.8160
  38   2.0000      -0.281672        -7.6647
  39   2.0000      -0.276705        -7.5295
  40   2.0000      -0.225485        -6.1357
  41   2.0000      -0.190170        -5.1748
  42   0.0000      -0.048294        -1.3141
  43   0.0000      -0.024725        -0.6728
  44   0.0000       0.023737         0.6459
  45   0.0000       0.054515         1.4834
  46   0.0000       0.057463         1.5637

MULLIKEN ATOMIC CHARGES
-----------------------
   0 C :   -0.207336
   1 C :   -0.163901
   2 H :    0.103764
   3 C :   -0.127773
   4 C :   -0.131887
   5 C :   -0.126590
   6 H :    0.081856
   7 C :   -0.088921
   8 C :   -0.038805
   9 O :   -0.154538
  10 C :   -0.067436
  11 C :   -0.232433
  12 C :   -0.226724
  13 H :    0.105029
  14 H :    0.093008
  15 H :    0.099948
  16 H :    0.087830
  17 H :    0.086280
  18 H :    0.088020
  19 H :    0.092242
  20 H :    0.099349
  21 H :    0.121930
  22 H :    0.084143
  23 H :    0.093159
  24 H :    0.119874
  25 H :    0.103075
  26 H :    0.106838
Sum of atomic charges:   -0.0000000

LOEWDIN ATOMIC CHARGES
----------------------
   0 C :   -0.324316
   1 C :   -0.184787
   2 H :    0.143679
   3 C :   -0.210155
   4 C :   -0.214958
   5 C :   -0.135256
   6 H :    0.130347
   7 C :   -0.239877
   8 C :    0.048873
   9 O :   -0.122060
  10 C :   -0.050231
  11 C :   -0.270970
  12 C :   -0.321517
  13 H :    0.123644
  14 H :    0.116967
  15 H :    0.121181
  16 H :    0.122895
  17 H :    0.121752
  18 H :    0.121797
  19 H :    0.118678
  20 H :    0.139768
  21 H :    0.144231
  22 H :    0.120585
  23 H :    0.117039
  24 H :    0.129982
  25 H :    0.126594
  26 H :    0.126115

  Mayer bond orders larger than 0.100000
B(  0-C ,  1-C ) :   1.1267 B(  0-C , 13-H ) :   0.9451 B(  0-C , 14-H ) :   0.9470
B(  0-C , 15-H ) :   0.9458 B(  1-C ,  2-H ) :   0.8283 B(  1-C ,  3-C ) :   1.0794
B(  1-C ,  8-C ) :   1.0022 B(  3-C ,  4-C ) :   1.1706 B(  3-C , 16-H ) :   0.9126
B(  3-C , 17-H ) :   0.8958 B(  4-C ,  5-C ) :   1.1056 B(  4-C , 18-H ) :   0.9005
B(  4-C , 19-H ) :   0.9076 B(  5-C ,  6-H ) :   0.8616 B(  5-C ,  7-C ) :   1.0745
B(  5-C , 10-C ) :   0.9912 B(  7-C ,  8-C ) :   1.0203 B(  7-C , 20-H ) :   0.8868
B(  7-C , 21-H ) :   0.8679 B(  8-C ,  9-O ) :   2.2033 B( 10-C , 11-C ) :   2.0491
B( 10-C , 12-C ) :   1.1090 B( 11-C , 22-H ) :   0.9006 B( 11-C , 23-H ) :   0.8866
B( 12-C , 24-H ) :   0.9225 B( 12-C , 25-H ) :   0.9382 B( 12-C , 26-H ) :   0.9341

Dispersion correction           -0.029851172
FINAL SINGLE POINT ENERGY      -464.824211312489

DIPOLE MOMENT
-------------

Method             : SCF
Type of density    : Electron Density
Multiplicity       :   1
Irrep              :   0
Energy             :  -464.9093701888858732 Eh
Relativity type    :
Basis              : AO
                                X                 Y                 Z
Electronic contribution:     -3.767724305       5.537930300       3.231453139
Nuclear contribution   :      4.729639416      -6.241384167      -3.369438145
                        -----------------------------------------
Total Dipole Moment    :      0.961915110      -0.703453867      -0.137985006
                        -----------------------------------------
Magnitude (a.u.)       :      1.199653235
Magnitude (Debye)      :      3.049276194

Rotational constants in cm-1:             0.059110             0.027285             0.025307
Rotational constants in MHz :          1772.079869           817.977409           758.686390

                             ****ORCA TERMINATED NORMALLY****
TOTAL RUN TIME: 0 days 0 hours 0 minutes 27 seconds 851 msec
