                         Program Version 6.0.0  -   RELEASE  -
|  1> ! r2SCAN-3c DEF2-TZVP FREQ
|  2> * xyzfile 0 1 censo.xyz
|  3>
|  4>                          ****END OF INPUT****

CARTESIAN COORDINATES (ANGSTROEM)
---------------------------------
  C     -1.712791    0.374139   -0.039680
  C     -0.597403   -0.649936    0.049349
  S      1.094519    0.100268   -0.031142
  H     -2.683102   -0.135308   -0.012321
  H     -1.675161    1.072693    0.801972
  H     -1.652410    0.948687   -0.968168
  H     -0.629014   -1.342982   -0.796636
  H     -0.668698   -1.241089    0.965840
  H      0.968062    0.868528    1.067301

 Total Charge           Charge          ....    0
 Multiplicity           Mult            ....    1
 Number of Electrons    NEL             ....   34
 Basis Dimension        Dim             ....  135

ORBITAL ENERGIES
----------------

  NO   OCC          E(Eh)            E(eV)
   0   2.0000     -88.524301     -2408.8687
   1   2.0000     -10.070759      -274.0393
   2   2.0000     -10.032559      -272.9998
   3   2.0000      -7.838393      -213.2935
   4   2.0000      -5.783929      -157.3887
   5   2.0000      -5.780283      -157.2895
   6   2.0000      -5.775252      -157.1526
   7   2.0000      -0.764454       -20.8018
   8   2.0000      -0.667469       -18.1628
   9   2.0000      -0.575056       -15.6481
  10   2.0000      -0.438538       -11.9332
  11   2.0000      -0.404880       -11.0174
  12   2.0000      -0.380201       -10.3458
  13   2.0000      -0.348488        -9.4828
  14   2.0000      -0.329018        -8.9530
  15   2.0000      -0.295678        -8.0458
  16   2.0000      -0.211489        -5.7549
  17   0.0000      -0.003164        -0.0861
  18   0.0000       0.038059         1.0356
  19   0.0000       0.063374         1.7245
  20   0.0000       0.093705         2.5498
  21   0.0000       0.099607         2.7105

MULLIKEN ATOMIC CHARGES
-----------------------
   0 C :   -0.295813
   1 C :   -0.132571
   2 S :   -0.241226
   3 H :    0.101609
   4 H :    0.098546
   5 H :    0.113855
   6 H :    0.110223
   7 H :    0.113976
   8 H :    0.131400
Sum of atomic charges:    0.0000000

LOEWDIN ATOMIC CHARGES
----------------------
   0 C :   -0.341511
   1 C :   -0.497979
   2 S :    0.201541
   3 H :    0.120644
   4 H :    0.116698
   5 H :    0.120229
   6 H :    0.126212
   7 H :    0.119693
   8 H :    0.034473

  Mayer bond orders larger than 0.100000
B(  0-C ,  1-C ) :   0.9774 B(  0-C ,  3-H ) :   0.9585 B(  0-C ,  4-H ) :   0.9726
B(  0-C ,  5-H ) :   0.9714 B(  1-C ,  2-S ) :   1.0139 B(  1-C ,  6-H ) :   0.9554
B(  1-C ,  7-H ) :   0.9624 B(  2-S ,  8-H ) :   0.9655

Dispersion correction           -0.001619882
FINAL SINGLE POINT ENERGY      -477.969993914874

DIPOLE MOMENT
-------------

Method             : SCF
Type of density    : Electron Density
Multiplicity       :   1
Irrep              :   0
Energy             :  -477.9759621860481502 Eh
Relativity type    :
Basis              : AO
                                X                 Y                 Z
Electronic contribution:      5.422197049      -0.212338025      -0.722292149
Nuclear contribution   :     -6.065789895       0.150425277       0.976881459
                        -----------------------------------------
Total Dipole Moment    :     -0.643592846      -0.061912749       0.254589310
                        -----------------------------------------
Magnitude (a.u.)       :      0.694881758
Magnitude (Debye)      :      1.766249062

VIBRATIONAL FREQUENCIES
-----------------------

Scaling factor for frequencies =  1.000000000  (already applied!)

     0:       0.00 cm**-1
     1:       0.00 cm**-1
     2:       0.00 cm**-1
     3:       0.00 cm**-1
     4:       0.00 cm**-1
     5:       0.00 cm**-1
     6:     257.90 cm**-1
     7:     281.49 cm**-1
     8:     333.85 cm**-1
     9:     621.16 cm**-1
    10:     746.43 cm**-1
    11:     882.00 cm**-1
    12:     983.47 cm**-1
    13:    1066.17 cm**-1
    14:    1122.37 cm**-1
    15:    1279.19 cm**-1
    16:    1293.04 cm**-1
    17:    1404.43 cm**-1
    18:    1468.66 cm**-1
    19:    1485.30 cm**-1
    20:    1491.63 cm**-1
    21:    2654.32 cm**-1
    22:    3003.77 cm**-1
    23:    3041.06 cm**-1
    24:    3077.14 cm**-1
    25:    3085.54 cm**-1
    26:    3110.48 cm**-1

IR SPECTRUM
-----------

 Mode   freq       eps      Int      T**2         TX        TY        TZ
       cm**-1   L/(mol*cm) km/mol    a.u.
----------------------------------------------------------------------------
  6:    257.90   0.002154   10.89  0.002607  (-0.021123  0.033330 -0.032397)
  7:    281.49   0.000906    4.58  0.001005  ( 0.017718 -0.013994  0.022251)
  8:    333.85   0.000477    2.41  0.000446  ( 0.014185 -0.014232  0.006515)
  9:    621.16   0.001018    5.14  0.000511  ( 0.022255  0.004009 -0.000293)
 10:    746.43   0.000398    2.01  0.000166  ( 0.001683  0.008406 -0.009632)
 11:    882.00   0.001197    6.05  0.000423  (-0.001758 -0.010224 -0.017771)
 12:    983.47   0.001638    8.28  0.000520  (-0.022775 -0.000713  0.000712)
 13:   1066.17   0.000054    0.27  0.000016  ( 0.001010 -0.001089 -0.003685)
 14:   1122.37   0.001261    6.37  0.000351  ( 0.015355  0.001254 -0.010638)
 15:   1279.19   0.000755    3.81  0.000184  (-0.012064 -0.004055  0.004704)
 16:   1293.04   0.004036   20.39  0.000974  ( 0.029282  0.010719  0.001275)
 17:   1404.43   0.000714    3.61  0.000159  ( 0.005782 -0.011163  0.000770)
 18:   1468.66   0.000361    1.83  0.000077  (-0.001064  0.008572 -0.001461)
 19:   1485.30   0.002153   10.88  0.000452  (-0.001860 -0.003348 -0.020922)
 20:   1491.63   0.000648    3.27  0.000136  ( 0.005464  0.010176 -0.001476)
 21:   2654.32   0.000583    2.95  0.000069  (-0.000103 -0.005068 -0.006545)
 22:   3003.77   0.006096   30.81  0.000633  ( 0.023684 -0.008434 -0.001124)
 23:   3041.06   0.002629   13.28  0.000270  (-0.002652 -0.015977  0.002731)
 24:   3077.14   0.005933   29.99  0.000602  (-0.015322 -0.018730 -0.004023)
 25:   3085.54   0.000642    3.24  0.000065  ( 0.003409  0.006812 -0.002630)
 26:   3110.48   0.005342   26.99  0.000536  (-0.003108 -0.001305  0.022903)

--------------------------
THERMOCHEMISTRY AT 298.15K
--------------------------

Temperature         ...   298.15 K
Pressure            ...     1.00 atm
Total Mass          ...    62.13 AMU
Quasi RRHO          ...     True
Cut-Off Frequency   ...     1.00 cm^-1

Throughout the following assumptions are being made:
  (1) The electronic state is orbitally nondegenerate
  (2) There are no thermally accessible electronically excited states
  (3) Hindered rotations indicated by low frequency modes are not
      treated as such but are treated as vibrations and this may
      cause some error
  (4) All equations used are the standard statistical mechanics
      equations for an ideal gas
  (5) All vibrations are strictly harmonic

freq.     257.90  E(vib)   ...       0.30
freq.     281.49  E(vib)   ...       0.28
freq.     333.85  E(vib)   ...       0.24
freq.     621.16  E(vib)   ...       0.09
freq.     746.43  E(vib)   ...       0.06
freq.     882.00  E(vib)   ...       0.04
freq.     983.47  E(vib)   ...       0.02
freq.    1066.17  E(vib)   ...       0.02
freq.    1122.37  E(vib)   ...       0.01
freq.    1279.19  E(vib)   ...       0.01
freq.    1293.04  E(vib)   ...       0.01
freq.    1404.43  E(vib)   ...       0.00
freq.    1468.66  E(vib)   ...       0.00
freq.    1485.30  E(vib)   ...       0.00
freq.    1491.63  E(vib)   ...       0.00
freq.    2654.32  E(vib)   ...       0.00
freq.    3003.77  E(vib)   ...       0.00
freq.    3041.06  E(vib)   ...       0.00
freq.    3077.14  E(vib)   ...       0.00
freq.    3085.54  E(vib)   ...       0.00
freq.    3110.48  E(vib)   ...       0.00

------------
INNER ENERGY
------------

The inner energy is: U= E(el) + E(ZPE) + E(vib) + E(rot) + E(trans)
    E(el)   - is the total energy from the electronic structure calculation
              = E(kin-el) + E(nuc-el) + E(el-el) + E(nuc-nuc)
    E(ZPE)  - the the zero temperature vibrational energy from the frequency calculation
    E(vib)  - the the finite temperature correction to E(ZPE) due to population
              of excited vibrational states
    E(rot)  - is the rotational thermal energy
    E(trans)- is the translational thermal energy

Summary of contributions to the inner energy U:
Electronic energy                ...   -477.96999391 Eh
Zero point energy                ...      0.07447196 Eh      46.73 kcal/mol
Thermal vibrational correction   ...      0.00173825 Eh       1.09 kcal/mol
Thermal rotational correction    ...      0.00141627 Eh       0.89 kcal/mol
Thermal translational correction ...      0.00141627 Eh       0.89 kcal/mol
-----------------------------------------------------------------------
Total thermal energy                   -477.89095117 Eh

Summary of corrections to the electronic energy:
(perhaps to be used in another calculation)
Total thermal correction                  0.00457079 Eh       2.87 kcal/mol
Non-thermal (ZPE) correction              0.07447196 Eh      46.73 kcal/mol
-----------------------------------------------------------------------
Total correction                          0.07904274 Eh      49.60 kcal/mol

--------
ENTHALPY
--------

The enthalpy is H = U + kB*T
                kB is Boltzmann's constant
Total thermal energy              ...   -477.89095117 Eh
Thermal Enthalpy correction       ...      0.00094421 Eh       0.59 kcal/mol
-----------------------------------------------------------------------
Total Enthalpy                    ...   -477.89000696 Eh

Note: Only C1 symmetry has been detected, increase convergence thresholds
      if your molecule has a higher symmetry. Symmetry factor of 1.0 is
      used for the rotational entropy correction.

Note: Rotational entropy computed according to Herzberg
Infrared and Raman Spectra, Chapter V,1, Van Nostrand Reinhold, 1945
Point Group:  C1, Symmetry Number:   1
Rotational constants in cm-1:     0.952918     0.173886     0.159267

Vibrational entropy computed according to the QRRHO of S. Grimme
Chem.Eur.J. 2012 18 9955 using a reference frequency of 100.0 cm-1

-------
ENTROPY
-------

The entropy contributions are T*S = T*(S(el)+S(vib)+S(rot)+S(trans))
     S(el)   - electronic entropy
     S(vib)  - vibrational entropy
     S(rot)  - rotational entropy
     S(trans)- translational entropy
The entropies will be listed as multiplied by the temperature to get
units of energy

Electronic entropy                ...      0.00000000 Eh      0.00 kcal/mol
Vibrational entropy               ...      0.00266965 Eh      1.68 kcal/mol
Rotational entropy                ...      0.01122674 Eh      7.04 kcal/mol
Translational entropy             ...      0.01819718 Eh     11.42 kcal/mol
-----------------------------------------------------------------------
Final entropy term                ...      0.03209357 Eh     20.14 kcal/mol

In case the symmetry of your molecule has not been determined correctly
or in case you have a reason to use a different symmetry number we print
out the resulting rotational entropy values for sn=1,12:

 non-linear molecules -----------------------------------
|  sn= 1 | S(rot)=       0.01122674 Eh      7.04 kcal/mol|
|  sn= 2 | S(rot)=       0.01057228 Eh      6.63 kcal/mol|
|  sn= 3 | S(rot)=       0.01018945 Eh      6.39 kcal/mol|
|  sn= 4 | S(rot)=       0.00991783 Eh      6.22 kcal/mol|
|  sn= 5 | S(rot)=       0.00970714 Eh      6.09 kcal/mol|
|  sn= 6 | S(rot)=       0.00953500 Eh      5.98 kcal/mol|
|  sn= 7 | S(rot)=       0.00938945 Eh      5.89 kcal/mol|
|  sn= 8 | S(rot)=       0.00926337 Eh      5.81 kcal/mol|
|  sn= 9 | S(rot)=       0.00915216 Eh      5.74 kcal/mol|
|  sn=10 | S(rot)=       0.00905268 Eh      5.68 kcal/mol|
|  sn=11 | S(rot)=       0.00896269 Eh      5.62 kcal/mol|
|  sn=12 | S(rot)=       0.00888054 Eh      5.57 kcal/mol|
 linear molecules ---------------------------------------
|  Dinfh | S(rot)=       0.00706043 Eh      4.43 kcal/mol|
|  Cinfv | S(rot)=       0.00771488 Eh      4.84 kcal/mol|
 --------------------------------------------------------

-------------------
GIBBS FREE ENERGY
-------------------

The Gibbs free energy is G = H - T*S

Total enthalpy                    ...   -477.89000696 Eh
Total entropy correction          ...     -0.03209357 Eh    -20.14 kcal/mol
-----------------------------------------------------------------------
Final Gibbs free energy         ...   -477.92210053 Eh

For completeness - the Gibbs free energy minus the electronic energy
G-E(el)                           ...      0.04789339 Eh     30.05 kcal/mol

                             ****ORCA TERMINATED NORMALLY****
TOTAL RUN TIME: 0 days 0 hours 1 minutes 45 seconds 814 msec
