                         Program Version 6.0.0  -   RELEASE  -
|  1> ! r2SCAN-3c DEF2-TZVP FREQ
|  2> * xyzfile 0 1 vacuum_censo.xyz
|  3>
|  4>                          ****END OF INPUT****

CARTESIAN COORDINATES (ANGSTROEM)
---------------------------------
  C     -1.717652    0.372930   -0.039397
  C     -0.594617   -0.647180    0.057502
  S      1.092630    0.098134   -0.041439
  H     -1.691063    1.068435    0.804818
  H     -1.638247    0.955632   -0.960439
  H     -2.690335   -0.132549   -0.028062
  H     -0.628901   -1.346639   -0.783820
  H     -0.665960   -1.237495    0.975427
  H      0.975092    0.871648    1.052787

 Total Charge           Charge          ....    0
 Multiplicity           Mult            ....    1
 Number of Electrons    NEL             ....   34
 Basis Dimension        Dim             ....  135

ORBITAL ENERGIES
----------------

  NO   OCC          E(Eh)            E(eV)
   0   2.0000     -88.524530     -2408.8749
   1   2.0000     -10.070636      -274.0359
   2   2.0000     -10.032450      -272.9969
   3   2.0000      -7.838682      -213.3014
   4   2.0000      -5.784208      -157.3963
   5   2.0000      -5.780568      -157.2973
   6   2.0000      -5.775542      -157.1605
   7   2.0000      -0.764450       -20.8017
   8   2.0000      -0.667734       -18.1700
   9   2.0000      -0.575074       -15.6486
  10   2.0000      -0.438105       -11.9214
  11   2.0000      -0.404786       -11.0148
  12   2.0000      -0.380346       -10.3498
  13   2.0000      -0.348045        -9.4708
  14   2.0000      -0.328112        -8.9284
  15   2.0000      -0.296856        -8.0779
  16   2.0000      -0.211766        -5.7624
  17   0.0000      -0.002962        -0.0806
  18   0.0000       0.038986         1.0609
  19   0.0000       0.063512         1.7282
  20   0.0000       0.093860         2.5540
  21   0.0000       0.099814         2.7161

MULLIKEN ATOMIC CHARGES
-----------------------
   0 C :   -0.298159
   1 C :   -0.133264
   2 S :   -0.238620
   3 H :    0.098617
   4 H :    0.114101
   5 H :    0.102571
   6 H :    0.109523
   7 H :    0.114007
   8 H :    0.131224
Sum of atomic charges:   -0.0000000

LOEWDIN ATOMIC CHARGES
----------------------
   0 C :   -0.340975
   1 C :   -0.501228
   2 S :    0.205273
   3 H :    0.116450
   4 H :    0.119963
   5 H :    0.120229
   6 H :    0.126365
   7 H :    0.119523
   8 H :    0.034400

  Mayer bond orders larger than 0.100000
B(  0-C ,  1-C ) :   0.9762 B(  0-C ,  3-H ) :   0.9729 B(  0-C ,  4-H ) :   0.9715
B(  0-C ,  5-H ) :   0.9586 B(  1-C ,  2-S ) :   1.0172 B(  1-C ,  6-H ) :   0.9553
B(  1-C ,  7-H ) :   0.9621 B(  2-S ,  8-H ) :   0.9656

Dispersion correction           -0.001619552
FINAL SINGLE POINT ENERGY      -477.970097966415

DIPOLE MOMENT
-------------

Method             : SCF
Type of density    : Electron Density
Multiplicity       :   1
Irrep              :   0
Energy             :  -477.9760771765681397 Eh
Relativity type    :
Basis              : AO
                                X                 Y                 Z
Electronic contribution:      5.423582651      -0.220269478      -0.741836939
Nuclear contribution   :     -6.057259772       0.162181030       1.000107585
                        -----------------------------------------
Total Dipole Moment    :     -0.633677121      -0.058088449       0.258270646
                        -----------------------------------------
Magnitude (a.u.)       :      0.686749363
Magnitude (Debye)      :      1.745578159

VIBRATIONAL FREQUENCIES
-----------------------

Scaling factor for frequencies =  1.000000000  (already applied!)

     0:       0.00 cm**-1
     1:       0.00 cm**-1
     2:       0.00 cm**-1
     3:       0.00 cm**-1
     4:       0.00 cm**-1
     5:       0.00 cm**-1
     6:     248.59 cm**-1
     7:     274.85 cm**-1
     8:     334.46 cm**-1
     9:     627.85 cm**-1
    10:     745.33 cm**-1
    11:     880.77 cm**-1
    12:     977.78 cm**-1
    13:    1064.13 cm**-1
    14:    1122.08 cm**-1
    15:    1278.95 cm**-1
    16:    1296.71 cm**-1
    17:    1402.62 cm**-1
    18:    1469.44 cm**-1
    19:    1483.88 cm**-1
    20:    1492.21 cm**-1
    21:    2662.73 cm**-1
    22:    3006.32 cm**-1
    23:    3035.80 cm**-1
    24:    3076.97 cm**-1
    25:    3085.42 cm**-1
    26:    3110.24 cm**-1

IR SPECTRUM
-----------

 Mode   freq       eps      Int      T**2         TX        TY        TZ
       cm**-1   L/(mol*cm) km/mol    a.u.
----------------------------------------------------------------------------
  6:    248.59   0.002180   11.02  0.002737  (-0.022087  0.034121 -0.032941)
  7:    274.85   0.000917    4.63  0.001041  ( 0.017994 -0.013957  0.022854)
  8:    334.46   0.000461    2.33  0.000430  ( 0.013798 -0.013986  0.006660)
  9:    627.85   0.000930    4.70  0.000462  ( 0.021146  0.003809 -0.000599)
 10:    745.33   0.000407    2.06  0.000170  (-0.001313 -0.008189  0.010085)
 11:    880.77   0.001209    6.11  0.000428  ( 0.001855  0.010397  0.017803)
 12:    977.78   0.001588    8.02  0.000507  ( 0.022490  0.000583 -0.000742)
 13:   1064.13   0.000040    0.20  0.000012  (-0.000180  0.001100  0.003239)
 14:   1122.08   0.001318    6.66  0.000366  (-0.015715 -0.001125  0.010875)
 15:   1278.95   0.000852    4.31  0.000208  (-0.012784 -0.004239  0.005146)
 16:   1296.71   0.003865   19.53  0.000930  ( 0.028611  0.010516  0.000961)
 17:   1402.62   0.000714    3.61  0.000159  ( 0.005622 -0.011202  0.001289)
 18:   1469.44   0.000353    1.79  0.000075  (-0.001396  0.008427 -0.001452)
 19:   1483.88   0.002188   11.05  0.000460  ( 0.002364  0.004209  0.020898)
 20:   1492.21   0.000657    3.32  0.000137  (-0.005220 -0.009946  0.003349)
 21:   2662.73   0.000586    2.96  0.000069  (-0.000413 -0.005162 -0.006470)
 22:   3006.32   0.006141   31.04  0.000637  (-0.023770  0.008429  0.001190)
 23:   3035.80   0.003029   15.31  0.000311  (-0.003795 -0.016966  0.003027)
 24:   3076.97   0.003694   18.67  0.000375  ( 0.012567  0.014512  0.002483)
 25:   3085.42   0.002405   12.15  0.000243  (-0.007638 -0.012786 -0.004630)
 26:   3110.24   0.005485   27.72  0.000550  ( 0.003578  0.002366 -0.023063)

--------------------------
THERMOCHEMISTRY AT 298.15K
--------------------------

Temperature         ...   298.15 K
Pressure            ...     1.00 atm
Total Mass          ...    62.13 AMU
Quasi RRHO          ...     True
Cut-Off Frequency   ...     1.00 cm^-1

Throughout the following assumptions are being made:
  (1) The electronic state is orbitally nondegenerate
  (2) There are no thermally accessible electronically excited states
  (3) Hindered rotations indicated by low frequency modes are not
      treated as such but are treated as vibrations and this may
      cause some error
  (4) All equations used are the standard statistical mechanics
      equations for an ideal gas
  (5) All vibrations are strictly harmonic

freq.     248.59  E(vib)   ...       0.31
freq.     274.85  E(vib)   ...       0.28
freq.     334.46  E(vib)   ...       0.24
freq.     627.85  E(vib)   ...       0.09
freq.     745.33  E(vib)   ...       0.06
freq.     880.77  E(vib)   ...       0.04
freq.     977.78  E(vib)   ...       0.03
freq.    1064.13  E(vib)   ...       0.02
freq.    1122.08  E(vib)   ...       0.01
freq.    1278.95  E(vib)   ...       0.01
freq.    1296.71  E(vib)   ...       0.01
freq.    1402.62  E(vib)   ...       0.00
freq.    1469.44  E(vib)   ...       0.00
freq.    1483.88  E(vib)   ...       0.00
freq.    1492.21  E(vib)   ...       0.00
freq.    2662.73  E(vib)   ...       0.00
freq.    3006.32  E(vib)   ...       0.00
freq.    3035.80  E(vib)   ...       0.00
freq.    3076.97  E(vib)   ...       0.00
freq.    3085.42  E(vib)   ...       0.00
freq.    3110.24  E(vib)   ...       0.00

------------
INNER ENERGY
------------

The inner energy is: U= E(el) + E(ZPE) + E(vib) + E(rot) + E(trans)
    E(el)   - is the total energy from the electronic structure calculation
              = E(kin-el) + E(nuc-el) + E(el-el) + E(nuc-nuc)
    E(ZPE)  - the the zero temperature vibrational energy from the frequency calculation
    E(vib)  - the the finite temperature correction to E(ZPE) due to population
              of excited vibrational states
    E(rot)  - is the rotational thermal energy
    E(trans)- is the translational thermal energy

Summary of contributions to the inner energy U:
Electronic energy                ...   -477.97009797 Eh
Zero point energy                ...      0.07444392 Eh      46.71 kcal/mol
Thermal vibrational correction   ...      0.00175752 Eh       1.10 kcal/mol
Thermal rotational correction    ...      0.00141627 Eh       0.89 kcal/mol
Thermal translational correction ...      0.00141627 Eh       0.89 kcal/mol
-----------------------------------------------------------------------
Total thermal energy                   -477.89106398 Eh

Summary of corrections to the electronic energy:
(perhaps to be used in another calculation)
Total thermal correction                  0.00459006 Eh       2.88 kcal/mol
Non-thermal (ZPE) correction              0.07444392 Eh      46.71 kcal/mol
-----------------------------------------------------------------------
Total correction                          0.07903399 Eh      49.59 kcal/mol

--------
ENTHALPY
--------

The enthalpy is H = U + kB*T
                kB is Boltzmann's constant
Total thermal energy              ...   -477.89106398 Eh
Thermal Enthalpy correction       ...      0.00094421 Eh       0.59 kcal/mol
-----------------------------------------------------------------------
Total Enthalpy                    ...   -477.89011977 Eh

Note: Only C1 symmetry has been detected, increase convergence thresholds
      if your molecule has a higher symmetry. Symmetry factor of 1.0 is
      used for the rotational entropy correction.

Note: Rotational entropy computed according to Herzberg
Infrared and Raman Spectra, Chapter V,1, Van Nostrand Reinhold, 1945
Point Group:  C1, Symmetry Number:   1
Rotational constants in cm-1:     0.956279     0.173744     0.159230

Vibrational entropy computed according to the QRRHO of S. Grimme
Chem.Eur.J. 2012 18 9955 using a reference frequency of 100.0 cm-1

-------
ENTROPY
-------

The entropy contributions are T*S = T*(S(el)+S(vib)+S(rot)+S(trans))
     S(el)   - electronic entropy
     S(vib)  - vibrational entropy
     S(rot)  - rotational entropy
     S(trans)- translational entropy
The entropies will be listed as multiplied by the temperature to get
units of energy

Electronic entropy                ...      0.00000000 Eh      0.00 kcal/mol
Vibrational entropy               ...      0.00271568 Eh      1.70 kcal/mol
Rotational entropy                ...      0.01122558 Eh      7.04 kcal/mol
Translational entropy             ...      0.01819718 Eh     11.42 kcal/mol
-----------------------------------------------------------------------
Final entropy term                ...      0.03213844 Eh     20.17 kcal/mol

In case the symmetry of your molecule has not been determined correctly
or in case you have a reason to use a different symmetry number we print
out the resulting rotational entropy values for sn=1,12:

 non-linear molecules -----------------------------------
|  sn= 1 | S(rot)=       0.01122558 Eh      7.04 kcal/mol|
|  sn= 2 | S(rot)=       0.01057112 Eh      6.63 kcal/mol|
|  sn= 3 | S(rot)=       0.01018829 Eh      6.39 kcal/mol|
|  sn= 4 | S(rot)=       0.00991667 Eh      6.22 kcal/mol|
|  sn= 5 | S(rot)=       0.00970598 Eh      6.09 kcal/mol|
|  sn= 6 | S(rot)=       0.00953383 Eh      5.98 kcal/mol|
|  sn= 7 | S(rot)=       0.00938829 Eh      5.89 kcal/mol|
|  sn= 8 | S(rot)=       0.00926221 Eh      5.81 kcal/mol|
|  sn= 9 | S(rot)=       0.00915100 Eh      5.74 kcal/mol|
|  sn=10 | S(rot)=       0.00905152 Eh      5.68 kcal/mol|
|  sn=11 | S(rot)=       0.00896153 Eh      5.62 kcal/mol|
|  sn=12 | S(rot)=       0.00887938 Eh      5.57 kcal/mol|
 linear molecules ---------------------------------------
|  Dinfh | S(rot)=       0.00706065 Eh      4.43 kcal/mol|
|  Cinfv | S(rot)=       0.00771511 Eh      4.84 kcal/mol|
 --------------------------------------------------------

-------------------
GIBBS FREE ENERGY
-------------------

The Gibbs free energy is G = H - T*S

Total enthalpy                    ...   -477.89011977 Eh
Total entropy correction          ...     -0.03213844 Eh    -20.17 kcal/mol
-----------------------------------------------------------------------
Final Gibbs free energy         ...   -477.92225821 Eh

For completeness - the Gibbs free energy minus the electronic energy
G-E(el)                           ...      0.04783976 Eh     30.02 kcal/mol

                             ****ORCA TERMINATED NORMALLY****
TOTAL RUN TIME: 0 days 0 hours 1 minutes 47 seconds 328 msec
