                         Program Version 6.0.1  -  RELEASE   -
|  1> ! pbe def2-sv(p) def2/J RI DEFGRID1 loosescf d4 GCP(DFT/SV(P)) printgap
|  2> %output
|  3>     printlevel normal
|  4> end
|  5> * xyz 0 1
|  6> C -2.6689073601 -1.435366472 -0.0755458654
|  7> C -1.9577848263 -0.0908326832 0.0125009018
|  8> C -0.4516615069 -0.141634304 -0.0054586979
|  9> C 0.2486197306 -1.3363282114 -0.096207549
| 10> C 1.6327848723 -1.3586014636 -0.1112099269
| 11> C 2.3417263751 -0.1752500513 -0.0347823379
| 12> C 1.6552285925 1.0222927458 0.0560068117
| 13> C 0.2684627079 1.0575309687 0.0718346998
| 14> C -0.4385834949 2.3758036678 0.171091946
| 15> H -2.4036735647 -2.0729347969 0.7647803193
| 16> H -2.4198108178 -1.9487308003 -1.0014991041
| 17> H -3.7458061508 -1.2794929504 -0.0547504212
| 18> H -2.2739621159 0.4128958225 0.9317563803
| 19> H -2.2908394315 0.5366340694 -0.8206215334
| 20> H -0.2840205086 -2.2719926799 -0.1571179253
| 21> H 2.153625721 -2.3024224884 -0.1826246055
| 22> H 3.4217807181 -0.1817841428 -0.0453685443
| 23> H 2.2072102063 1.9500735436 0.1162671327
| 24> H -1.0818661293 2.5359388166 -0.6939843659
| 25> H -1.0669594906 2.4119649336 1.0608192356
| 26> H 0.2780711222 3.1916304954 0.2226050494
| 27> *
| 28>
| 29>                          ****END OF INPUT****

CARTESIAN COORDINATES (ANGSTROEM)
---------------------------------
  C     -2.668907   -1.435366   -0.075546
  C     -1.957785   -0.090833    0.012501
  C     -0.451662   -0.141634   -0.005459
  C      0.248620   -1.336328   -0.096208
  C      1.632785   -1.358601   -0.111210
  C      2.341726   -0.175250   -0.034782
  C      1.655229    1.022293    0.056007
  C      0.268463    1.057531    0.071835
  C     -0.438583    2.375804    0.171092
  H     -2.403674   -2.072935    0.764780
  H     -2.419811   -1.948731   -1.001499
  H     -3.745806   -1.279493   -0.054750
  H     -2.273962    0.412896    0.931756
  H     -2.290839    0.536634   -0.820622
  H     -0.284021   -2.271993   -0.157118
  H      2.153626   -2.302422   -0.182625
  H      3.421781   -0.181784   -0.045369
  H      2.207210    1.950074    0.116267
  H     -1.081866    2.535939   -0.693984
  H     -1.066959    2.411965    1.060819
  H      0.278071    3.191630    0.222605

 Total Charge           Charge          ....    0
 Multiplicity           Mult            ....    1
 Number of Electrons    NEL             ....   66
 Basis Dimension        Dim             ....  150

ORBITAL ENERGIES
----------------

  NO   OCC          E(Eh)            E(eV)
   0   2.0000      -9.895413      -269.2679
   1   2.0000      -9.895102      -269.2594
   2   2.0000      -9.891876      -269.1716
   3   2.0000      -9.881730      -268.8956
   4   2.0000      -9.881496      -268.8892
   5   2.0000      -9.881209      -268.8814
   6   2.0000      -9.881108      -268.8786
   7   2.0000      -9.880700      -268.8675
   8   2.0000      -9.877984      -268.7936
   9   2.0000      -0.776142       -21.1199
  10   2.0000      -0.708395       -19.2764
  11   2.0000      -0.689415       -18.7599
  12   2.0000      -0.645513       -17.5653
  13   2.0000      -0.608682       -16.5631
  14   2.0000      -0.570372       -15.5206
  15   2.0000      -0.519645       -14.1402
  16   2.0000      -0.504248       -13.7213
  17   2.0000      -0.448990       -12.2176
  18   2.0000      -0.417568       -11.3626
  19   2.0000      -0.410906       -11.1813
  20   2.0000      -0.387523       -10.5450
  21   2.0000      -0.381075       -10.3696
  22   2.0000      -0.372446       -10.1348
  23   2.0000      -0.356249        -9.6940
  24   2.0000      -0.339074        -9.2267
  25   2.0000      -0.330276        -8.9873
  26   2.0000      -0.320806        -8.7296
  27   2.0000      -0.319026        -8.6811
  28   2.0000      -0.304727        -8.2920
  29   2.0000      -0.285725        -7.7750
  30   2.0000      -0.282093        -7.6761
  31   2.0000      -0.218214        -5.9379
  32   2.0000      -0.209322        -5.6959
  33   0.0000      -0.025907        -0.7050
  34   0.0000      -0.023420        -0.6373
  35   0.0000       0.038490         1.0474
  36   0.0000       0.053721         1.4618
  37   0.0000       0.059145         1.6094

MULLIKEN ATOMIC CHARGES
-----------------------
   0 C :   -0.254526
   1 C :   -0.159284
   2 C :    0.028008
   3 C :   -0.165944
   4 C :   -0.034281
   5 C :   -0.038341
   6 C :   -0.138292
   7 C :   -0.024858
   8 C :   -0.202710
   9 H :    0.108924
  10 H :    0.109048
  11 H :    0.102336
  12 H :    0.095473
  13 H :    0.095381
  14 H :    0.036897
  15 H :    0.044362
  16 H :    0.045199
  17 H :    0.032282
  18 H :    0.109692
  19 H :    0.109828
  20 H :    0.100807
Sum of atomic charges:    0.0000000

LOEWDIN ATOMIC CHARGES
----------------------
   0 C :   -0.339624
   1 C :   -0.221841
   2 C :   -0.041732
   3 C :   -0.129823
   4 C :   -0.128138
   5 C :   -0.129006
   6 C :   -0.125899
   7 C :   -0.046769
   8 C :   -0.322150
   9 H :    0.121022
  10 H :    0.121083
  11 H :    0.122104
  12 H :    0.127715
  13 H :    0.127654
  14 H :    0.121866
  15 H :    0.120761
  16 H :    0.121187
  17 H :    0.118821
  18 H :    0.129341
  19 H :    0.129337
  20 H :    0.124090

  Mayer bond orders larger than 0.100000
B(  0-C ,  1-C ) :   1.1948 B(  0-C ,  9-H ) :   0.9425 B(  0-C , 10-H ) :   0.9424
B(  0-C , 11-H ) :   0.9451 B(  1-C ,  2-C ) :   1.0889 B(  1-C , 12-H ) :   0.8889
B(  1-C , 13-H ) :   0.8889 B(  2-C ,  3-C ) :   1.4155 B(  2-C ,  7-C ) :   1.3967
B(  3-C ,  4-C ) :   1.3429 B(  3-C , 14-H ) :   0.9499 B(  4-C ,  5-C ) :   1.3782
B(  4-C , 15-H ) :   0.9627 B(  5-C ,  6-C ) :   1.3588 B(  5-C , 16-H ) :   0.9646
B(  6-C ,  7-C ) :   1.4118 B(  6-C , 17-H ) :   0.9557 B(  7-C ,  8-C ) :   1.1521
B(  8-C , 18-H ) :   0.9203 B(  8-C , 19-H ) :   0.9203 B(  8-C , 20-H ) :   0.9353

Dispersion correction           -0.021280801
FINAL SINGLE POINT ENERGY      -349.371807549426

DIPOLE MOMENT
-------------

Method             : SCF
Type of density    : Electron Density
Multiplicity       :   1
Irrep              :   0
Energy             :  -349.4313881460657853 Eh
Relativity type    :
Basis              : AO
                                X                 Y                 Z
Electronic contribution:      6.778335276      -0.792224473      -0.119959698
Nuclear contribution   :     -7.042116832       0.921073479       0.131588828
                        -----------------------------------------
Total Dipole Moment    :     -0.263781555       0.128849006       0.011629130
                        -----------------------------------------
Magnitude (a.u.)       :      0.293799272
Magnitude (Debye)      :      0.746778401

Rotational constants in cm-1:             0.081119             0.049330             0.031209
Rotational constants in MHz :          2431.886666          1478.866483           935.616286

                             ****ORCA TERMINATED NORMALLY****
TOTAL RUN TIME: 0 days 0 hours 0 minutes 16 seconds 197 msec
