                         Program Version 6.0.1  -  RELEASE   -
|  1> ! pbe def2-sv(p) def2/J RI DEFGRID1 loosescf d4 GCP(DFT/SV(P)) printgap
|  2> %output
|  3>     printlevel normal
|  4> end
|  5> * xyz 0 1
|  6> C -1.3570313565 -0.854643583 0.4125973419
|  7> C -0.5915211368 0.0873432052 -0.5123261588
|  8> C -0.6522571485 1.521691896 0.0051217579
|  9> C 0.8660918822 -0.3672578939 -0.6447649462
| 10> O 1.4895533391 -0.3346466324 0.6216249867
| 11> H -2.3888395653 -0.5285765417 0.5180058529
| 12> H -0.8881877503 -0.8616235216 1.3926707629
| 13> H -1.3524786658 -1.8681959897 0.0174046322
| 14> H -1.0345566326 0.0468508319 -1.5142719468
| 15> H -1.6851829285 1.8436739289 0.1119134259
| 16> H -0.1472483104 2.1987220964 -0.6805272892
| 17> H -0.163519276 1.5794985459 0.9737275952
| 18> H 0.8928035237 -1.3874312884 -1.0563980457
| 19> H 1.3923976595 0.2981311206 -1.3456873145
| 20> H 2.4020322212 -0.6222860417 0.5264804558
| 21> *
| 22>
| 23>                          ****END OF INPUT****

CARTESIAN COORDINATES (ANGSTROEM)
---------------------------------
  C     -1.357031   -0.854644    0.412597
  C     -0.591521    0.087343   -0.512326
  C     -0.652257    1.521692    0.005122
  C      0.866092   -0.367258   -0.644765
  O      1.489553   -0.334647    0.621625
  H     -2.388840   -0.528577    0.518006
  H     -0.888188   -0.861624    1.392671
  H     -1.352479   -1.868196    0.017405
  H     -1.034557    0.046851   -1.514272
  H     -1.685183    1.843674    0.111913
  H     -0.147248    2.198722   -0.680527
  H     -0.163519    1.579499    0.973728
  H      0.892804   -1.387431   -1.056398
  H      1.392398    0.298131   -1.345687
  H      2.402032   -0.622286    0.526480

 Total Charge           Charge          ....    0
 Multiplicity           Mult            ....    1
 Number of Electrons    NEL             ....   42
 Basis Dimension        Dim             ....   90

ORBITAL ENERGIES
----------------

  NO   OCC          E(Eh)            E(eV)
   0   2.0000     -18.740505      -509.9551
   1   2.0000      -9.925734      -270.0929
   2   2.0000      -9.890326      -269.1295
   3   2.0000      -9.863448      -268.3981
   4   2.0000      -9.863412      -268.3971
   5   2.0000      -0.918554       -24.9951
   6   2.0000      -0.714821       -19.4513
   7   2.0000      -0.602351       -16.3908
   8   2.0000      -0.598316       -16.2810
   9   2.0000      -0.494073       -13.4444
  10   2.0000      -0.461746       -12.5647
  11   2.0000      -0.403076       -10.9682
  12   2.0000      -0.391924       -10.6648
  13   2.0000      -0.379848       -10.3362
  14   2.0000      -0.335974        -9.1423
  15   2.0000      -0.322442        -8.7741
  16   2.0000      -0.316277        -8.6063
  17   2.0000      -0.285537        -7.7699
  18   2.0000      -0.283160        -7.7052
  19   2.0000      -0.264043        -7.1850
  20   2.0000      -0.211523        -5.7558
  21   0.0000       0.023917         0.6508
  22   0.0000       0.057885         1.5751
  23   0.0000       0.084382         2.2962
  24   0.0000       0.088337         2.4038
  25   0.0000       0.104779         2.8512

MULLIKEN ATOMIC CHARGES
-----------------------
   0 C :   -0.250604
   1 C :   -0.185725
   2 C :   -0.249877
   3 C :    0.022232
   4 O :   -0.434191
   5 H :    0.096195
   6 H :    0.111438
   7 H :    0.089799
   8 H :    0.072299
   9 H :    0.096032
  10 H :    0.089697
  11 H :    0.111346
  12 H :    0.066179
  13 H :    0.066172
  14 H :    0.299006
Sum of atomic charges:    0.0000000

LOEWDIN ATOMIC CHARGES
----------------------
   0 C :   -0.331923
   1 C :   -0.169796
   2 C :   -0.331814
   3 C :   -0.113748
   4 O :   -0.343637
   5 H :    0.115494
   6 H :    0.123360
   7 H :    0.114338
   8 H :    0.115990
   9 H :    0.115414
  10 H :    0.114318
  11 H :    0.123354
  12 H :    0.091167
  13 H :    0.091167
  14 H :    0.286318

  Mayer bond orders larger than 0.100000
B(  0-C ,  1-C ) :   1.1072 B(  0-C ,  5-H ) :   0.9539 B(  0-C ,  6-H ) :   0.9469
B(  0-C ,  7-H ) :   0.9518 B(  1-C ,  2-C ) :   1.1073 B(  1-C ,  3-C ) :   1.0724
B(  1-C ,  8-H ) :   0.9041 B(  2-C ,  9-H ) :   0.9539 B(  2-C , 10-H ) :   0.9518
B(  2-C , 11-H ) :   0.9469 B(  3-C ,  4-O ) :   1.0734 B(  3-C , 12-H ) :   0.9222
B(  3-C , 13-H ) :   0.9221 B(  4-O , 14-H ) :   0.8532

Dispersion correction           -0.009911193
FINAL SINGLE POINT ENERGY      -233.088112368420

DIPOLE MOMENT
-------------

Method             : SCF
Type of density    : Electron Density
Multiplicity       :   1
Irrep              :   0
Energy             :  -233.1478599361136048 Eh
Relativity type    :
Basis              : AO
                                X                 Y                 Z
Electronic contribution:      3.159133102      -0.838317713       0.569597090
Nuclear contribution   :     -2.766849162       0.650588083      -0.982115697
                        -----------------------------------------
Total Dipole Moment    :      0.392283940      -0.187729630      -0.412518607
                        -----------------------------------------
Magnitude (a.u.)       :      0.599416970
Magnitude (Debye)      :      1.523596856

Rotational constants in cm-1:             0.210957             0.134850             0.108225
Rotational constants in MHz :          6324.339438          4042.699343          3244.516353

                             ****ORCA TERMINATED NORMALLY****
TOTAL RUN TIME: 0 days 0 hours 0 minutes 5 seconds 965 msec
