                         Program Version 6.0.1  -  RELEASE   -
|  1> ! r2scan-3c def2/J RI DEFGRID2 scfconv6 printgap
|  2> %output
|  3>     printlevel normal
|  4> end
|  5> * xyz 0 1
|  6> C -3.5475864164 -0.25678606 -0.4115345628
|  7> O -2.1860467216 -0.0907029714 -0.7837474123
|  8> C -1.3140550691 0.0808862592 0.2198355674
|  9> O -1.6370336436 0.11164729 1.3778923119
| 10> C 0.1015182435 0.1857138154 -0.3021482162
| 11> C 0.7558471852 -1.1977479097 -0.1745615518
| 12> C 2.2049085139 -1.1464154235 -0.6472628892
| 13> C 2.9926025153 -0.1169529549 0.1565178472
| 14> C 2.3473838797 1.2593627245 0.030043216
| 15> C 0.8966008269 1.2181566696 0.4980406628
| 16> H -3.9123249393 0.6380895533 0.0964683442
| 17> H -3.6542676055 -1.1097743193 0.2614640448
| 18> H -4.097960353 -0.4242657922 -1.3336074757
| 19> H 0.0596470552 0.4677452973 -1.3579619563
| 20> H 0.7209705076 -1.5072417389 0.8723148056
| 21> H 0.1937094215 -1.9252906325 -0.7641846197
| 22> H 2.6591444797 -2.1332437197 -0.538454187
| 23> H 2.2319759001 -0.8794037017 -1.7062485112
| 24> H 3.0086792906 -0.413828115 1.2073182221
| 25> H 4.0247214584 -0.0787513583 -0.1977169672
| 26> H 2.9030464274 1.9876132376 0.6237102475
| 27> H 2.3828418646 1.581440303 -1.0135388015
| 28> H 0.8511899925 0.9490522519 1.5547985408
| 29> H 0.4384751256 2.2029630435 0.3845548529
| 30> *
| 31>
| 32>                          ****END OF INPUT****

CARTESIAN COORDINATES (ANGSTROEM)
---------------------------------
  C     -3.547586   -0.256786   -0.411535
  O     -2.186047   -0.090703   -0.783747
  C     -1.314055    0.080886    0.219836
  O     -1.637034    0.111647    1.377892
  C      0.101518    0.185714   -0.302148
  C      0.755847   -1.197748   -0.174562
  C      2.204909   -1.146415   -0.647263
  C      2.992603   -0.116953    0.156518
  C      2.347384    1.259363    0.030043
  C      0.896601    1.218157    0.498041
  H     -3.912325    0.638090    0.096468
  H     -3.654268   -1.109774    0.261464
  H     -4.097960   -0.424266   -1.333607
  H      0.059647    0.467745   -1.357962
  H      0.720971   -1.507242    0.872315
  H      0.193709   -1.925291   -0.764185
  H      2.659144   -2.133244   -0.538454
  H      2.231976   -0.879404   -1.706249
  H      3.008679   -0.413828    1.207318
  H      4.024721   -0.078751   -0.197717
  H      2.903046    1.987613    0.623710
  H      2.382842    1.581440   -1.013539
  H      0.851190    0.949052    1.554799
  H      0.438475    2.202963    0.384555

 Total Charge           Charge          ....    0
 Multiplicity           Mult            ....    1
 Number of Electrons    NEL             ....   78
 Basis Dimension        Dim             ....  270

ORBITAL ENERGIES
----------------

  NO   OCC          E(Eh)            E(eV)
   0   2.0000     -18.996899      -516.9319
   1   2.0000     -18.931084      -515.1410
   2   2.0000     -10.148345      -276.1505
   3   2.0000     -10.083366      -274.3823
   4   2.0000     -10.044555      -273.3262
   5   2.0000     -10.032965      -273.0109
   6   2.0000     -10.027720      -272.8681
   7   2.0000     -10.026325      -272.8302
   8   2.0000     -10.025572      -272.8097
   9   2.0000     -10.024658      -272.7848
  10   2.0000      -1.071768       -29.1643
  11   2.0000      -0.980955       -26.6931
  12   2.0000      -0.809509       -22.0279
  13   2.0000      -0.736027       -20.0283
  14   2.0000      -0.712982       -19.4012
  15   2.0000      -0.688220       -18.7274
  16   2.0000      -0.594432       -16.1753
  17   2.0000      -0.580047       -15.7839
  18   2.0000      -0.537123       -14.6158
  19   2.0000      -0.517859       -14.0916
  20   2.0000      -0.476853       -12.9758
  21   2.0000      -0.451044       -12.2735
  22   2.0000      -0.445062       -12.1107
  23   2.0000      -0.434505       -11.8235
  24   2.0000      -0.411874       -11.2077
  25   2.0000      -0.409244       -11.1361
  26   2.0000      -0.398933       -10.8555
  27   2.0000      -0.375606       -10.2207
  28   2.0000      -0.359280        -9.7765
  29   2.0000      -0.351520        -9.5653
  30   2.0000      -0.333633        -9.0786
  31   2.0000      -0.324227        -8.8227
  32   2.0000      -0.320318        -8.7163
  33   2.0000      -0.315595        -8.5878
  34   2.0000      -0.294648        -8.0178
  35   2.0000      -0.281222        -7.6525
  36   2.0000      -0.273149        -7.4328
  37   2.0000      -0.271244        -7.3809
  38   2.0000      -0.235243        -6.4013
  39   0.0000      -0.013652        -0.3715
  40   0.0000       0.064898         1.7660
  41   0.0000       0.092483         2.5166
  42   0.0000       0.099387         2.7045
  43   0.0000       0.107866         2.9352

MULLIKEN ATOMIC CHARGES
-----------------------
   0 C :   -0.302318
   1 O :   -0.187688
   2 C :    0.354947
   3 O :   -0.420109
   4 C :   -0.096308
   5 C :   -0.333600
   6 C :   -0.277380
   7 C :   -0.294574
   8 C :   -0.269975
   9 C :   -0.346405
  10 H :    0.158682
  11 H :    0.160864
  12 H :    0.149131
  13 H :    0.181960
  14 H :    0.170766
  15 H :    0.147500
  16 H :    0.148099
  17 H :    0.146590
  18 H :    0.145643
  19 H :    0.148572
  20 H :    0.148031
  21 H :    0.144269
  22 H :    0.177306
  23 H :    0.145996
Sum of atomic charges:    0.0000000

LOEWDIN ATOMIC CHARGES
----------------------
   0 C :   -0.047926
   1 O :   -0.604934
   2 C :    0.359621
   3 O :   -0.416871
   4 C :   -0.156529
   5 C :   -0.267621
   6 C :   -0.299405
   7 C :   -0.303618
   8 C :   -0.300481
   9 C :   -0.273882
  10 H :    0.175460
  11 H :    0.176331
  12 H :    0.174909
  13 H :    0.182134
  14 H :    0.167767
  15 H :    0.163190
  16 H :    0.157118
  17 H :    0.155778
  18 H :    0.156071
  19 H :    0.155353
  20 H :    0.156935
  21 H :    0.155023
  22 H :    0.172972
  23 H :    0.162604

  Mayer bond orders larger than 0.100000
B(  0-C ,  1-O ) :   0.8558 B(  0-C , 10-H ) :   0.9638 B(  0-C , 11-H ) :   0.9644
B(  0-C , 12-H ) :   0.9695 B(  1-O ,  2-C ) :   1.0388 B(  2-C ,  3-O ) :   1.8371
B(  2-C ,  4-C ) :   0.9369 B(  4-C ,  5-C ) :   0.9259 B(  4-C ,  9-C ) :   0.9030
B(  4-C , 13-H ) :   0.9624 B(  5-C ,  6-C ) :   0.8939 B(  5-C , 14-H ) :   0.9951
B(  5-C , 15-H ) :   0.9304 B(  6-C ,  7-C ) :   0.9214 B(  6-C , 16-H ) :   0.9436
B(  6-C , 17-H ) :   0.9956 B(  7-C ,  8-C ) :   0.9161 B(  7-C , 18-H ) :   0.9934
B(  7-C , 19-H ) :   0.9511 B(  8-C ,  9-C ) :   0.8908 B(  8-C , 20-H ) :   0.9452
B(  8-C , 21-H ) :   0.9911 B(  9-C , 22-H ) :   0.9944 B(  9-C , 23-H ) :   0.9439

Dispersion correction           -0.007535859
FINAL SINGLE POINT ENERGY      -463.637432175676

DIPOLE MOMENT
-------------

Method             : SCF
Type of density    : Electron Density
Multiplicity       :   1
Irrep              :   0
Energy             :  -463.6429240501599907 Eh
Relativity type    :
Basis              : AO
                                X                 Y                 Z
Electronic contribution:     -7.192188089       0.499649610       1.114336643
Nuclear contribution   :      7.270261252      -0.604709431      -1.784106753
                        -----------------------------------------
Total Dipole Moment    :      0.078073163      -0.105059821      -0.669770110
                        -----------------------------------------
Magnitude (a.u.)       :      0.682440463
Magnitude (Debye)      :      1.734625803

Rotational constants in cm-1:             0.103126             0.024427             0.022395
Rotational constants in MHz :          3091.626854           732.300260           671.373833

                             ****ORCA TERMINATED NORMALLY****
TOTAL RUN TIME: 0 days 0 hours 0 minutes 23 seconds 890 msec
