                         Program Version 6.0.1  -  RELEASE   -
|  1> ! pbe def2-sv(p) def2/J RI DEFGRID1 loosescf d4 GCP(DFT/SV(P)) printgap
|  2> %output
|  3>     printlevel normal
|  4> end
|  5> * xyz 0 1
|  6> C -2.2497981969 -0.9982419568 0.7550637515
|  7> C -0.798938355 -0.4712193145 0.7516512287
|  8> H -0.5264019219 -0.180820564 1.7784929241
|  9> C -0.6370224726 0.739396754 -0.184331593
| 10> H -0.8036826497 0.4040511463 -1.2149928428
| 11> C 0.7974484421 1.3003457997 -0.0826741715
| 12> H 0.8150509368 2.0965385704 0.6744896996
| 13> C 1.7896710281 0.1897127682 0.3468641334
| 14> H 2.7525366231 0.3947207273 -0.1427227921
| 15> C 1.2872713349 -1.159901851 -0.1795618732
| 16> H 1.9873986416 -1.9596812444 0.1101145958
| 17> O 0.0534314095 -1.5336504739 0.3442506794
| 18> O 1.2369164176 -1.0413853991 -1.5810694631
| 19> O 1.9414693135 0.0919042362 1.7400199671
| 20> O 1.2147725671 1.9061830114 -1.2730113679
| 21> O -1.6283457244 1.7103429669 0.050943194
| 22> O -2.9092518993 -0.8764821272 -0.4721490936
| 23> H -2.8079610058 -0.4812432121 1.5475498308
| 24> H -2.2141315635 -2.0647962779 0.9837690897
| 25> H 0.7624265188 -1.8093283054 -1.923511243
| 26> H 2.4311900425 0.8596908468 2.0559273692
| 27> H 1.2583689332 1.2210331509 -1.954081875
| 28> H -1.4605407472 2.1421565682 0.8963256215
| 29> H -2.9974924874 0.0650992787 -0.6723308134
| 30> *
| 31>
| 32>                          ****END OF INPUT****

CARTESIAN COORDINATES (ANGSTROEM)
---------------------------------
  C     -2.249798   -0.998242    0.755064
  C     -0.798938   -0.471219    0.751651
  H     -0.526402   -0.180821    1.778493
  C     -0.637022    0.739397   -0.184332
  H     -0.803683    0.404051   -1.214993
  C      0.797448    1.300346   -0.082674
  H      0.815051    2.096539    0.674490
  C      1.789671    0.189713    0.346864
  H      2.752537    0.394721   -0.142723
  C      1.287271   -1.159902   -0.179562
  H      1.987399   -1.959681    0.110115
  O      0.053431   -1.533650    0.344251
  O      1.236916   -1.041385   -1.581069
  O      1.941469    0.091904    1.740020
  O      1.214773    1.906183   -1.273011
  O     -1.628346    1.710343    0.050943
  O     -2.909252   -0.876482   -0.472149
  H     -2.807961   -0.481243    1.547550
  H     -2.214132   -2.064796    0.983769
  H      0.762427   -1.809328   -1.923511
  H      2.431190    0.859691    2.055927
  H      1.258369    1.221033   -1.954082
  H     -1.460541    2.142157    0.896326
  H     -2.997492    0.065099   -0.672331

 Total Charge           Charge          ....    0
 Multiplicity           Mult            ....    1
 Number of Electrons    NEL             ....   96
 Basis Dimension        Dim             ....  192

ORBITAL ENERGIES
----------------

  NO   OCC          E(Eh)            E(eV)
   0   2.0000     -18.774213      -510.8723
   1   2.0000     -18.771245      -510.7915
   2   2.0000     -18.768525      -510.7175
   3   2.0000     -18.766392      -510.6595
   4   2.0000     -18.744003      -510.0502
   5   2.0000     -18.738830      -509.9095
   6   2.0000      -9.991817      -271.8912
   7   2.0000      -9.950149      -270.7573
   8   2.0000      -9.947011      -270.6719
   9   2.0000      -9.944139      -270.5938
  10   2.0000      -9.939240      -270.4605
  11   2.0000      -9.926616      -270.1170
  12   2.0000      -0.990282       -26.9469
  13   2.0000      -0.948748       -25.8167
  14   2.0000      -0.944395       -25.6983
  15   2.0000      -0.927726       -25.2447
  16   2.0000      -0.918912       -25.0049
  17   2.0000      -0.912967       -24.8431
  18   2.0000      -0.701865       -19.0987
  19   2.0000      -0.693586       -18.8734
  20   2.0000      -0.624807       -17.0019
  21   2.0000      -0.591091       -16.0844
  22   2.0000      -0.567884       -15.4529
  23   2.0000      -0.528381       -14.3780
  24   2.0000      -0.513065       -13.9612
  25   2.0000      -0.498286       -13.5590
  26   2.0000      -0.474009       -12.8984
  27   2.0000      -0.446663       -12.1543
  28   2.0000      -0.443977       -12.0812
  29   2.0000      -0.437249       -11.8982
  30   2.0000      -0.425027       -11.5656
  31   2.0000      -0.397081       -10.8051
  32   2.0000      -0.381190       -10.3727
  33   2.0000      -0.370618       -10.0850
  34   2.0000      -0.367524       -10.0008
  35   2.0000      -0.355393        -9.6707
  36   2.0000      -0.348330        -9.4785
  37   2.0000      -0.321807        -8.7568
  38   2.0000      -0.306863        -8.3502
  39   2.0000      -0.297021        -8.0824
  40   2.0000      -0.281605        -7.6629
  41   2.0000      -0.276610        -7.5269
  42   2.0000      -0.257112        -6.9964
  43   2.0000      -0.251905        -6.8547
  44   2.0000      -0.236827        -6.4444
  45   2.0000      -0.219682        -5.9778
  46   2.0000      -0.213265        -5.8032
  47   2.0000      -0.202739        -5.5168
  48   0.0000       0.008335         0.2268
  49   0.0000       0.015464         0.4208
  50   0.0000       0.027349         0.7442
  51   0.0000       0.048043         1.3073
  52   0.0000       0.069200         1.8830

MULLIKEN ATOMIC CHARGES
-----------------------
   0 C :    0.084661
   1 C :    0.023429
   2 H :    0.053820
   3 C :    0.031444
   4 H :    0.050672
   5 C :    0.105706
   6 H :    0.029573
   7 C :   -0.007486
   8 H :    0.080629
   9 C :    0.184333
  10 H :    0.071429
  11 O :   -0.300559
  12 O :   -0.412717
  13 O :   -0.406422
  14 O :   -0.423169
  15 O :   -0.416799
  16 O :   -0.437230
  17 H :    0.062639
  18 H :    0.092483
  19 H :    0.309694
  20 H :    0.308357
  21 H :    0.305187
  22 H :    0.301728
  23 H :    0.308599
Sum of atomic charges:   -0.0000000

LOEWDIN ATOMIC CHARGES
----------------------
   0 C :   -0.125741
   1 C :   -0.080339
   2 H :    0.103527
   3 C :   -0.091724
   4 H :    0.115018
   5 C :   -0.073356
   6 H :    0.105316
   7 C :   -0.092186
   8 H :    0.112761
   9 C :    0.004805
  10 H :    0.101323
  11 O :   -0.132436
  12 O :   -0.322406
  13 O :   -0.309826
  14 O :   -0.313342
  15 O :   -0.309147
  16 O :   -0.333332
  17 H :    0.094760
  18 H :    0.120891
  19 H :    0.289819
  20 H :    0.291370
  21 H :    0.278839
  22 H :    0.285109
  23 H :    0.280297

  Mayer bond orders larger than 0.100000
B(  0-C ,  1-C ) :   0.9913 B(  0-C , 16-O ) :   1.1078 B(  0-C , 17-H ) :   0.9156
B(  0-C , 18-H ) :   0.9207 B(  1-C ,  2-H ) :   0.8676 B(  1-C ,  3-C ) :   1.0515
B(  1-C , 11-O ) :   0.9682 B(  3-C ,  4-H ) :   0.8185 B(  3-C ,  5-C ) :   1.0285
B(  3-C , 15-O ) :   1.0049 B(  5-C ,  6-H ) :   0.8609 B(  5-C ,  7-C ) :   0.9693
B(  5-C , 14-O ) :   1.0558 B(  7-C ,  8-H ) :   0.8847 B(  7-C ,  9-C ) :   1.0364
B(  7-C , 13-O ) :   1.0438 B(  9-C , 10-H ) :   0.8924 B(  9-C , 11-O ) :   1.0964
B(  9-C , 12-O ) :   1.0822 B( 12-O , 19-H ) :   0.8370 B( 13-O , 20-H ) :   0.8479
B( 14-O , 21-H ) :   0.8339 B( 15-O , 22-H ) :   0.8469 B( 16-O , 23-H ) :   0.8289

Dispersion correction           -0.025185554
FINAL SINGLE POINT ENERGY      -685.690456709530

DIPOLE MOMENT
-------------

Method             : SCF
Type of density    : Electron Density
Multiplicity       :   1
Irrep              :   0
Energy             :  -685.8225253082962354 Eh
Relativity type    :
Basis              : AO
                                X                 Y                 Z
Electronic contribution:      1.396974869      -0.333154769      -1.390274094
Nuclear contribution   :     -0.754922763       0.648723569       1.989129322
                        -----------------------------------------
Total Dipole Moment    :      0.642052106       0.315568800       0.598855227
                        -----------------------------------------
Magnitude (a.u.)       :      0.932974897
Magnitude (Debye)      :      2.371433727

Rotational constants in cm-1:             0.041833             0.026652             0.023116
Rotational constants in MHz :          1254.126970           799.021495           693.002607

                             ****ORCA TERMINATED NORMALLY****
TOTAL RUN TIME: 0 days 0 hours 0 minutes 8 seconds 102 msec
