                         Program Version 6.0.1  -  RELEASE   -
|  1> ! r2scan-3c def2/J RI DEFGRID2 scfconv6 printgap
|  2> %output
|  3>     printlevel normal
|  4> end
|  5> * xyz 0 1
|  6> C -2.6712198368 -1.6858358217 0.8311883057
|  7> C -2.3231812564 -1.0078354746 -0.4961659901
|  8> C -1.2962850407 0.0722892099 -0.2939598886
|  9> C -1.7080019852 1.3769682864 -0.1888092594
| 10> C -0.8017444434 2.4208042894 0.0397498427
| 11> C 0.5305838329 2.1533994431 0.1667643667
| 12> C 1.0051462847 0.8293778208 0.067435101
| 13> C 0.0866285185 -0.2311195264 -0.1658686332
| 14> C 0.6021393498 -1.5427455515 -0.26124079
| 15> C 1.9397443525 -1.7916179593 -0.1282489595
| 16> C 2.840301342 -0.7428793232 0.1061733922
| 17> C 2.3794992879 0.5390972045 0.1990709038
| 18> H -1.7873340408 -2.1333161981 1.2794389794
| 19> H -3.4160808898 -2.463523136 0.6768852052
| 20> H -3.0724886297 -0.9554015792 1.5302610037
| 21> H -3.2295622302 -0.5645389261 -0.9141295574
| 22> H -1.963238531 -1.7527748451 -1.2078117485
| 23> H -2.759167575 1.6115255071 -0.2847783167
| 24> H -1.1689198844 3.4341782679 0.1144905113
| 25> H 1.2408578143 2.9481457693 0.3454171964
| 26> H -0.0684572057 -2.3678220773 -0.4440655831
| 27> H 2.3122565563 -2.803160942 -0.2043867796
| 28> H 3.8940912105 -0.9573155889 0.2092442316
| 29> H 3.063241754 1.3575903168 0.3760717583
| 30> *
| 31>
| 32>                          ****END OF INPUT****

CARTESIAN COORDINATES (ANGSTROEM)
---------------------------------
  C     -2.671220   -1.685836    0.831188
  C     -2.323181   -1.007835   -0.496166
  C     -1.296285    0.072289   -0.293960
  C     -1.708002    1.376968   -0.188809
  C     -0.801744    2.420804    0.039750
  C      0.530584    2.153399    0.166764
  C      1.005146    0.829378    0.067435
  C      0.086629   -0.231120   -0.165869
  C      0.602139   -1.542746   -0.261241
  C      1.939744   -1.791618   -0.128249
  C      2.840301   -0.742879    0.106173
  C      2.379499    0.539097    0.199071
  H     -1.787334   -2.133316    1.279439
  H     -3.416081   -2.463523    0.676885
  H     -3.072489   -0.955402    1.530261
  H     -3.229562   -0.564539   -0.914130
  H     -1.963239   -1.752775   -1.207812
  H     -2.759168    1.611526   -0.284778
  H     -1.168920    3.434178    0.114491
  H      1.240858    2.948146    0.345417
  H     -0.068457   -2.367822   -0.444066
  H      2.312257   -2.803161   -0.204387
  H      3.894091   -0.957316    0.209244
  H      3.063242    1.357590    0.376072

 Total Charge           Charge          ....    0
 Multiplicity           Mult            ....    1
 Number of Electrons    NEL             ....   84
 Basis Dimension        Dim             ....  288

ORBITAL ENERGIES
----------------

  NO   OCC          E(Eh)            E(eV)
   0   2.0000     -10.044230      -273.3174
   1   2.0000     -10.043617      -273.3007
   2   2.0000     -10.042867      -273.2803
   3   2.0000     -10.035747      -273.0866
   4   2.0000     -10.035565      -273.0816
   5   2.0000     -10.035379      -273.0765
   6   2.0000     -10.035205      -273.0718
   7   2.0000     -10.034749      -273.0594
   8   2.0000     -10.033567      -273.0272
   9   2.0000     -10.032310      -272.9930
  10   2.0000     -10.030964      -272.9564
  11   2.0000     -10.021803      -272.7071
  12   2.0000      -0.847378       -23.0583
  13   2.0000      -0.796045       -21.6615
  14   2.0000      -0.764965       -20.8158
  15   2.0000      -0.719221       -19.5710
  16   2.0000      -0.711564       -19.3627
  17   2.0000      -0.681353       -18.5405
  18   2.0000      -0.605843       -16.4858
  19   2.0000      -0.588737       -16.0204
  20   2.0000      -0.582784       -15.8584
  21   2.0000      -0.541848       -14.7444
  22   2.0000      -0.484492       -13.1837
  23   2.0000      -0.476270       -12.9600
  24   2.0000      -0.465334       -12.6624
  25   2.0000      -0.427963       -11.6455
  26   2.0000      -0.415884       -11.3168
  27   2.0000      -0.401888       -10.9359
  28   2.0000      -0.391899       -10.6641
  29   2.0000      -0.382207       -10.4004
  30   2.0000      -0.374673       -10.1954
  31   2.0000      -0.367560       -10.0018
  32   2.0000      -0.354362        -9.6427
  33   2.0000      -0.341497        -9.2926
  34   2.0000      -0.331445        -9.0191
  35   2.0000      -0.318670        -8.6715
  36   2.0000      -0.305380        -8.3098
  37   2.0000      -0.300979        -8.1900
  38   2.0000      -0.289411        -7.8753
  39   2.0000      -0.260568        -7.0904
  40   2.0000      -0.231324        -6.2947
  41   2.0000      -0.199171        -5.4197
  42   0.0000      -0.065623        -1.7857
  43   0.0000      -0.035378        -0.9627
  44   0.0000       0.000360         0.0098
  45   0.0000       0.064825         1.7640
  46   0.0000       0.074288         2.0215

MULLIKEN ATOMIC CHARGES
-----------------------
   0 C :   -0.459566
   1 C :   -0.323443
   2 C :    0.154159
   3 C :   -0.217363
   4 C :   -0.158455
   5 C :   -0.257958
   6 C :    0.155092
   7 C :    0.174908
   8 C :   -0.292275
   9 C :   -0.159244
  10 C :   -0.157323
  11 C :   -0.218376
  12 H :    0.154508
  13 H :    0.149514
  14 H :    0.149159
  15 H :    0.147097
  16 H :    0.148730
  17 H :    0.146445
  18 H :    0.143823
  19 H :    0.143101
  20 H :    0.144191
  21 H :    0.144752
  22 H :    0.145249
  23 H :    0.143274
Sum of atomic charges:    0.0000000

LOEWDIN ATOMIC CHARGES
----------------------
   0 C :   -0.405626
   1 C :   -0.288326
   2 C :   -0.071024
   3 C :   -0.162713
   4 C :   -0.160870
   5 C :   -0.151133
   6 C :   -0.055301
   7 C :   -0.048961
   8 C :   -0.148988
   9 C :   -0.164299
  10 C :   -0.165863
  11 C :   -0.143192
  12 H :    0.155503
  13 H :    0.149980
  14 H :    0.155011
  15 H :    0.162356
  16 H :    0.160520
  17 H :    0.168765
  18 H :    0.167667
  19 H :    0.169986
  20 H :    0.171147
  21 H :    0.167322
  22 H :    0.167633
  23 H :    0.170407

  Mayer bond orders larger than 0.100000
B(  0-C ,  1-C ) :   0.9277 B(  0-C , 12-H ) :   0.9770 B(  0-C , 13-H ) :   0.9743
B(  0-C , 14-H ) :   0.9748 B(  1-C ,  2-C ) :   0.7857 B(  1-C , 15-H ) :   0.9789
B(  1-C , 16-H ) :   0.9888 B(  2-C ,  3-C ) :   1.4581 B(  2-C ,  7-C ) :   1.2759
B(  3-C ,  4-C ) :   1.2989 B(  3-C , 17-H ) :   0.9295 B(  4-C ,  5-C ) :   1.5106
B(  4-C , 18-H ) :   0.9494 B(  5-C ,  6-C ) :   1.1785 B(  5-C , 19-H ) :   0.9492
B(  6-C ,  7-C ) :   1.4627 B(  6-C , 11-C ) :   1.1721 B(  7-C ,  8-C ) :   1.2157
B(  8-C ,  9-C ) :   1.5272 B(  8-C , 20-H ) :   0.9420 B(  9-C , 10-C ) :   1.2760
B(  9-C , 21-H ) :   0.9475 B( 10-C , 11-C ) :   1.5114 B( 10-C , 22-H ) :   0.9500
B( 11-C , 23-H ) :   0.9497

Dispersion correction           -0.009731390
FINAL SINGLE POINT ENERGY      -464.384327775197

DIPOLE MOMENT
-------------

Method             : SCF
Type of density    : Electron Density
Multiplicity       :   1
Irrep              :   0
Energy             :  -464.3813198535613083 Eh
Relativity type    :
Basis              : AO
                                X                 Y                 Z
Electronic contribution:      6.396967307       4.255994808      -1.370499762
Nuclear contribution   :     -6.524780772      -4.359122019       1.385335275
                        -----------------------------------------
Total Dipole Moment    :     -0.127813465      -0.103127211       0.014835513
                        -----------------------------------------
Magnitude (a.u.)       :      0.164898744
Magnitude (Debye)      :      0.419139298

Rotational constants in cm-1:             0.047010             0.030893             0.019619
Rotational constants in MHz :          1409.315053           926.141657           588.163043

                             ****ORCA TERMINATED NORMALLY****
TOTAL RUN TIME: 0 days 0 hours 3 minutes 21 seconds 513 msec
