                         Program Version 6.0.1  -  RELEASE   -
|  1> ! pbe def2-sv(p) def2/J RI DEFGRID1 loosescf d4 GCP(DFT/SV(P)) printgap
|  2> %output
|  3>     printlevel normal
|  4> end
|  5> * xyz 0 1
|  6> C -2.3291223005 -0.8305260346 -0.2447282213
|  7> O -0.9324256496 -0.5937730644 -0.1177880536
|  8> C -0.5567270715 0.6733275371 -0.0342194527
|  9> O -1.3051570038 1.6136105128 -0.0586314797
| 10> C 0.9474929452 0.8431860387 0.0957948451
| 11> Cl 1.8241041047 -0.6961376029 0.1581795189
| 12> H -2.7099497304 -0.3630562891 -1.1546205137
| 13> H -2.8617784472 -0.4165012236 0.6133435787
| 14> H -2.4489499389 -1.9096420313 -0.2878715387
| 15> H 1.1628503843 1.4001839279 1.0091472548
| 16> H 1.3132460484 1.4120266334 -0.7608928939
| 17> *
| 18>
| 19>                          ****END OF INPUT****

CARTESIAN COORDINATES (ANGSTROEM)
---------------------------------
  C     -2.329122   -0.830526   -0.244728
  O     -0.932426   -0.593773   -0.117788
  C     -0.556727    0.673328   -0.034219
  O     -1.305157    1.613611   -0.058631
  C      0.947493    0.843186    0.095795
  Cl     1.824104   -0.696138    0.158180
  H     -2.709950   -0.363056   -1.154621
  H     -2.861778   -0.416501    0.613344
  H     -2.448950   -1.909642   -0.287872
  H      1.162850    1.400184    1.009147
  H      1.313246    1.412027   -0.760893

 Total Charge           Charge          ....    0
 Multiplicity           Mult            ....    1
 Number of Electrons    NEL             ....   56
 Basis Dimension        Dim             ....   98

ORBITAL ENERGIES
----------------

  NO   OCC          E(Eh)            E(eV)
   0   2.0000    -100.625409     -2738.1566
   1   2.0000     -18.813325      -511.9366
   2   2.0000     -18.751491      -510.2540
   3   2.0000     -10.022302      -272.7207
   4   2.0000      -9.956942      -270.9422
   5   2.0000      -9.948737      -270.7189
   6   2.0000      -9.161472      -249.2963
   7   2.0000      -6.993444      -190.3013
   8   2.0000      -6.980862      -189.9589
   9   2.0000      -6.980792      -189.9570
  10   2.0000      -1.023626       -27.8543
  11   2.0000      -0.931682       -25.3524
  12   2.0000      -0.786870       -21.4118
  13   2.0000      -0.681946       -18.5567
  14   2.0000      -0.625566       -17.0225
  15   2.0000      -0.521992       -14.2041
  16   2.0000      -0.464902       -12.6506
  17   2.0000      -0.458377       -12.4731
  18   2.0000      -0.423475       -11.5233
  19   2.0000      -0.415644       -11.3102
  20   2.0000      -0.380256       -10.3473
  21   2.0000      -0.379530       -10.3275
  22   2.0000      -0.348149        -9.4736
  23   2.0000      -0.316253        -8.6057
  24   2.0000      -0.273945        -7.4544
  25   2.0000      -0.269011        -7.3202
  26   2.0000      -0.250907        -6.8275
  27   2.0000      -0.228008        -6.2044
  28   0.0000      -0.033624        -0.9149
  29   0.0000       0.009715         0.2644
  30   0.0000       0.043548         1.1850
  31   0.0000       0.056398         1.5347
  32   0.0000       0.089508         2.4356

MULLIKEN ATOMIC CHARGES
-----------------------
   0 C :   -0.114904
   1 O :   -0.215531
   2 C :    0.123827
   3 O :   -0.196603
   4 C :   -0.173632
   5 Cl:   -0.124576
   6 H :    0.122403
   7 H :    0.122736
   8 H :    0.128411
   9 H :    0.163582
  10 H :    0.164287
Sum of atomic charges:   -0.0000000

LOEWDIN ATOMIC CHARGES
----------------------
   0 C :   -0.202891
   1 O :   -0.059619
   2 C :    0.006806
   3 O :   -0.150006
   4 C :   -0.309174
   5 Cl:    0.051380
   6 H :    0.120899
   7 H :    0.121072
   8 H :    0.124084
   9 H :    0.148505
  10 H :    0.148943

  Mayer bond orders larger than 0.100000
B(  0-C ,  1-O ) :   0.9398 B(  0-C ,  6-H ) :   0.9519 B(  0-C ,  7-H ) :   0.9513
B(  0-C ,  8-H ) :   0.9584 B(  1-O ,  2-C ) :   1.2672 B(  1-O ,  3-O ) :   0.1012
B(  2-C ,  3-O ) :   2.0486 B(  2-C ,  4-C ) :   0.9793 B(  4-C ,  5-Cl) :   1.0692
B(  4-C ,  9-H ) :   0.9099 B(  4-C , 10-H ) :   0.9086

Dispersion correction           -0.008326334
FINAL SINGLE POINT ENERGY      -727.082108853538

DIPOLE MOMENT
-------------

Method             : SCF
Type of density    : Electron Density
Multiplicity       :   1
Irrep              :   0
Energy             :  -727.1240266804486509 Eh
Relativity type    :
Basis              : AO
                                X                 Y                 Z
Electronic contribution:      7.376592875      -1.267625805       0.704985340
Nuclear contribution   :     -7.683224766       1.064862106      -0.759900395
                        -----------------------------------------
Total Dipole Moment    :     -0.306631891      -0.202763699      -0.054915055
                        -----------------------------------------
Magnitude (a.u.)       :      0.371687903
Magnitude (Debye)      :      0.944755568

Rotational constants in cm-1:             0.182146             0.061439             0.046756
Rotational constants in MHz :          5460.586898          1841.896733          1401.709232

                             ****ORCA TERMINATED NORMALLY****
TOTAL RUN TIME: 0 days 0 hours 0 minutes 7 seconds 421 msec
