                         Program Version 6.0.1  -  RELEASE   -
|  1> ! pbe def2-sv(p) def2/J RI DEFGRID1 loosescf d4 GCP(DFT/SV(P)) printgap
|  2> %output
|  3>     printlevel normal
|  4> end
|  5> * xyz 0 1
|  6> C -3.6967637423 0.0375608963 -0.1122520358
|  7> C -2.2252117175 0.0191283128 0.2902252169
|  8> H -2.1450582122 -0.3829350176 1.3065532196
|  9> C -1.6251289246 1.4235992257 0.2733991839
| 10> C -0.1508568388 1.3834860928 0.6581639694
| 11> C 0.651519728 0.5059680664 -0.3167155814
| 12> H 0.4726620356 0.8942987305 -1.3277349747
| 13> C 0.0453361272 -0.8837848318 -0.2793013566
| 14> O 0.6309094417 -1.8921805964 0.0245667589
| 15> C -1.4221304301 -0.8897083902 -0.6495841897
| 16> C 2.1695837368 0.5726807088 -0.0644479296
| 17> C 2.5776672922 0.0507025867 1.3115170257
| 18> C 2.9223842736 -0.1835749121 -1.1586450263
| 19> H -4.1128500535 -0.9667603935 -0.0903704975
| 20> H -4.2694561345 0.6609842897 0.5705653124
| 21> H -3.8118790193 0.4353514442 -1.1185330161
| 22> H -1.7354596282 1.8547798876 -0.7248954412
| 23> H -2.1683751804 2.0619547673 0.9735144828
| 24> H 0.2660745768 2.3930054272 0.6542629365
| 25> H -0.0563554271 0.9843158687 1.6694278596
| 26> H -1.5295142748 -0.5288722309 -1.6752588123
| 27> H -1.7962552544 -1.9138214934 -0.6000775331
| 28> H 2.4520526738 1.6324831898 -0.1257266112
| 29> H 2.1350481713 0.6452975067 2.1068489089
| 30> H 3.6592157094 0.1018002339 1.4160205326
| 31> H 2.269706187 -0.9835613505 1.4290008213
| 32> H 2.6519876413 0.1898447356 -2.1448767421
| 33> H 2.6885971422 -1.2432286965 -1.1110362979
| 34> H 3.9953546615 -0.0618795206 -1.0299290839
| 35> *
| 36>
| 37>                          ****END OF INPUT****

CARTESIAN COORDINATES (ANGSTROEM)
---------------------------------
  C     -3.696764    0.037561   -0.112252
  C     -2.225212    0.019128    0.290225
  H     -2.145058   -0.382935    1.306553
  C     -1.625129    1.423599    0.273399
  C     -0.150857    1.383486    0.658164
  C      0.651520    0.505968   -0.316716
  H      0.472662    0.894299   -1.327735
  C      0.045336   -0.883785   -0.279301
  O      0.630909   -1.892181    0.024567
  C     -1.422130   -0.889708   -0.649584
  C      2.169584    0.572681   -0.064448
  C      2.577667    0.050703    1.311517
  C      2.922384   -0.183575   -1.158645
  H     -4.112850   -0.966760   -0.090370
  H     -4.269456    0.660984    0.570565
  H     -3.811879    0.435351   -1.118533
  H     -1.735460    1.854780   -0.724895
  H     -2.168375    2.061955    0.973514
  H      0.266075    2.393005    0.654263
  H     -0.056355    0.984316    1.669428
  H     -1.529514   -0.528872   -1.675259
  H     -1.796255   -1.913821   -0.600078
  H      2.452053    1.632483   -0.125727
  H      2.135048    0.645298    2.106849
  H      3.659216    0.101800    1.416021
  H      2.269706   -0.983561    1.429001
  H      2.651988    0.189845   -2.144877
  H      2.688597   -1.243229   -1.111036
  H      3.995355   -0.061880   -1.029929

 Total Charge           Charge          ....    0
 Multiplicity           Mult            ....    1
 Number of Electrons    NEL             ....   86
 Basis Dimension        Dim             ....  190

ORBITAL ENERGIES
----------------

  NO   OCC          E(Eh)            E(eV)
   0   2.0000     -18.736865      -509.8560
   1   2.0000      -9.970629      -271.3146
   2   2.0000      -9.909082      -269.6398
   3   2.0000      -9.899658      -269.3834
   4   2.0000      -9.895800      -269.2784
   5   2.0000      -9.893289      -269.2101
   6   2.0000      -9.892262      -269.1821
   7   2.0000      -9.889051      -269.0948
   8   2.0000      -9.880735      -268.8685
   9   2.0000      -9.862738      -268.3788
  10   2.0000      -9.861486      -268.3447
  11   2.0000      -0.940817       -25.6009
  12   2.0000      -0.769877       -20.9494
  13   2.0000      -0.727575       -19.7983
  14   2.0000      -0.678166       -18.4538
  15   2.0000      -0.656535       -17.8652
  16   2.0000      -0.611573       -16.6417
  17   2.0000      -0.602870       -16.4049
  18   2.0000      -0.547691       -14.9034
  19   2.0000      -0.523601       -14.2479
  20   2.0000      -0.510757       -13.8984
  21   2.0000      -0.464154       -12.6303
  22   2.0000      -0.433135       -11.7862
  23   2.0000      -0.428419       -11.6579
  24   2.0000      -0.402579       -10.9547
  25   2.0000      -0.396406       -10.7867
  26   2.0000      -0.389182       -10.5902
  27   2.0000      -0.378497       -10.2994
  28   2.0000      -0.369936       -10.0665
  29   2.0000      -0.357788        -9.7359
  30   2.0000      -0.352726        -9.5982
  31   2.0000      -0.345333        -9.3970
  32   2.0000      -0.330535        -8.9943
  33   2.0000      -0.329403        -8.9635
  34   2.0000      -0.318771        -8.6742
  35   2.0000      -0.310190        -8.4407
  36   2.0000      -0.306249        -8.3335
  37   2.0000      -0.294690        -8.0189
  38   2.0000      -0.285454        -7.7676
  39   2.0000      -0.282098        -7.6763
  40   2.0000      -0.276127        -7.5138
  41   2.0000      -0.267398        -7.2763
  42   2.0000      -0.188082        -5.1180
  43   0.0000      -0.050833        -1.3832
  44   0.0000       0.032963         0.8970
  45   0.0000       0.037417         1.0182
  46   0.0000       0.045822         1.2469
  47   0.0000       0.066280         1.8036

MULLIKEN ATOMIC CHARGES
-----------------------
   0 C :   -0.196530
   1 C :   -0.233823
   2 H :    0.077940
   3 C :   -0.107942
   4 C :   -0.099068
   5 C :   -0.175851
   6 H :    0.077093
   7 C :    0.009405
   8 O :   -0.146000
   9 C :   -0.058465
  10 C :   -0.100055
  11 C :   -0.272622
  12 C :   -0.249023
  13 H :    0.103138
  14 H :    0.100846
  15 H :    0.092436
  16 H :    0.071255
  17 H :    0.085859
  18 H :    0.088585
  19 H :    0.088968
  20 H :    0.086082
  21 H :    0.084624
  22 H :    0.058892
  23 H :    0.098503
  24 H :    0.092872
  25 H :    0.122455
  26 H :    0.086389
  27 H :    0.119202
  28 H :    0.094834
Sum of atomic charges:    0.0000000

LOEWDIN ATOMIC CHARGES
----------------------
   0 C :   -0.326980
   1 C :   -0.145969
   2 H :    0.120026
   3 C :   -0.217215
   4 C :   -0.207395
   5 C :   -0.161424
   6 H :    0.130059
   7 C :    0.058126
   8 O :   -0.112929
   9 C :   -0.234518
  10 C :   -0.142109
  11 C :   -0.340087
  12 C :   -0.335259
  13 H :    0.120837
  14 H :    0.119984
  15 H :    0.117758
  16 H :    0.114791
  17 H :    0.119848
  18 H :    0.121158
  19 H :    0.121454
  20 H :    0.131297
  21 H :    0.126530
  22 H :    0.112362
  23 H :    0.112619
  24 H :    0.117559
  25 H :    0.126268
  26 H :    0.111420
  27 H :    0.125092
  28 H :    0.116697

  Mayer bond orders larger than 0.100000
B(  0-C ,  1-C ) :   1.1140 B(  0-C , 13-H ) :   0.9474 B(  0-C , 14-H ) :   0.9471
B(  0-C , 15-H ) :   0.9452 B(  1-C ,  2-H ) :   0.8930 B(  1-C ,  3-C ) :   1.0886
B(  1-C ,  9-C ) :   1.0796 B(  3-C ,  4-C ) :   1.1360 B(  3-C , 16-H ) :   0.9055
B(  3-C , 17-H ) :   0.9098 B(  4-C ,  5-C ) :   1.0851 B(  4-C , 18-H ) :   0.9092
B(  4-C , 19-H ) :   0.8931 B(  5-C ,  6-H ) :   0.8640 B(  5-C ,  7-C ) :   0.9246
B(  5-C , 10-C ) :   1.0305 B(  7-C ,  8-O ) :   2.1710 B(  7-C ,  9-C ) :   1.0403
B(  9-C , 20-H ) :   0.8809 B(  9-C , 21-H ) :   0.8922 B( 10-C , 11-C ) :   1.1001
B( 10-C , 12-C ) :   1.1119 B( 10-C , 22-H ) :   0.8954 B( 11-C , 23-H ) :   0.9446
B( 11-C , 24-H ) :   0.9464 B( 11-C , 25-H ) :   0.9380 B( 12-C , 26-H ) :   0.9481
B( 12-C , 27-H ) :   0.9402 B( 12-C , 28-H ) :   0.9488

Dispersion correction           -0.030042744
FINAL SINGLE POINT ENERGY      -466.035878851698

DIPOLE MOMENT
-------------

Method             : SCF
Type of density    : Electron Density
Multiplicity       :   1
Irrep              :   0
Energy             :  -466.1329578744865785 Eh
Relativity type    :
Basis              : AO
                                X                 Y                 Z
Electronic contribution:      0.349183133      -4.543564677      -0.307092269
Nuclear contribution   :     -0.961177922       5.388016070       0.167128063
                        -----------------------------------------
Total Dipole Moment    :     -0.611994789       0.844451393      -0.139964206
                        -----------------------------------------
Magnitude (a.u.)       :      1.052247954
Magnitude (Debye)      :      2.674601744

Rotational constants in cm-1:             0.071338             0.023134             0.020382
Rotational constants in MHz :          2138.649566           693.547653           611.037675

                             ****ORCA TERMINATED NORMALLY****
TOTAL RUN TIME: 0 days 0 hours 0 minutes 18 seconds 285 msec
