                         Program Version 6.0.0  -   RELEASE  -
|  1> ! r2SCAN-3c DEF2-TZVP FREQ
|  2> * xyzfile 0 1 censo.xyz
|  3>
|  4>                          ****END OF INPUT****

CARTESIAN COORDINATES (ANGSTROEM)
---------------------------------
  C     -3.792130    0.894653   -0.042498
  O     -2.345391    0.943786   -0.043222
  C     -1.720100   -0.249561    0.035869
  O     -2.329309   -1.309696    0.109336
  C     -0.253227   -0.129204    0.020934
  C      0.399943    1.109076   -0.070889
  C      1.781910    1.176857   -0.088864
  C      2.532121   -0.000397   -0.015579
  C      1.896488   -1.242036    0.079798
  C      0.513998   -1.299001    0.097137
  O      3.890719    0.119344   -0.041507
  H     -4.115655    1.930421   -0.140947
  H     -4.156632    0.470031    0.896410
  H     -4.152501    0.301496   -0.886672
  H     -0.175780    2.025037   -0.129113
  H      2.292997    2.131043   -0.160471
  H      2.490079   -2.149780    0.136791
  H      0.016934   -2.260031    0.169806
  H      4.294622   -0.759358    0.011802

 Total Charge           Charge          ....    0
 Multiplicity           Mult            ....    1
 Number of Electrons    NEL             ....   80
 Basis Dimension        Dim             ....  389

ORBITAL ENERGIES
----------------

  NO   OCC          E(Eh)            E(eV)
   0   2.0000     -19.002343      -517.0800
   1   2.0000     -18.997446      -516.9468
   2   2.0000     -18.927116      -515.0330
   3   2.0000     -10.152167      -276.2545
   4   2.0000     -10.115017      -275.2436
   5   2.0000     -10.085753      -274.4473
   6   2.0000     -10.052220      -273.5348
   7   2.0000     -10.052027      -273.5296
   8   2.0000     -10.050534      -273.4889
   9   2.0000     -10.049450      -273.4594
  10   2.0000     -10.044257      -273.3181
  11   2.0000      -1.060453       -28.8564
  12   2.0000      -1.043262       -28.3886
  13   2.0000      -0.967199       -26.3188
  14   2.0000      -0.833851       -22.6902
  15   2.0000      -0.740222       -20.1425
  16   2.0000      -0.731552       -19.9066
  17   2.0000      -0.686468       -18.6798
  18   2.0000      -0.615033       -16.7359
  19   2.0000      -0.591967       -16.1082
  20   2.0000      -0.539205       -14.6725
  21   2.0000      -0.527264       -14.3476
  22   2.0000      -0.499459       -13.5910
  23   2.0000      -0.452843       -12.3225
  24   2.0000      -0.446201       -12.1417
  25   2.0000      -0.433924       -11.8077
  26   2.0000      -0.419073       -11.4035
  27   2.0000      -0.405815       -11.0428
  28   2.0000      -0.398892       -10.8544
  29   2.0000      -0.397541       -10.8176
  30   2.0000      -0.374666       -10.1952
  31   2.0000      -0.369814       -10.0631
  32   2.0000      -0.352567        -9.5938
  33   2.0000      -0.329271        -8.9599
  34   2.0000      -0.317921        -8.6511
  35   2.0000      -0.315400        -8.5825
  36   2.0000      -0.273644        -7.4462
  37   2.0000      -0.251426        -6.8416
  38   2.0000      -0.238227        -6.4825
  39   2.0000      -0.221244        -6.0204
  40   0.0000      -0.068241        -1.8569
  41   0.0000      -0.046136        -1.2554
  42   0.0000       0.025948         0.7061
  43   0.0000       0.030693         0.8352
  44   0.0000       0.052387         1.4255

MULLIKEN ATOMIC CHARGES
-----------------------
   0 C :   -0.157840
   1 O :   -0.255634
   2 C :    0.353734
   3 O :   -0.385576
   4 C :    0.057836
   5 C :   -0.154025
   6 C :   -0.192762
   7 C :    0.310634
   8 C :   -0.179200
   9 C :   -0.176671
  10 O :   -0.385378
  11 H :    0.116878
  12 H :    0.121973
  13 H :    0.123068
  14 H :    0.125662
  15 H :    0.115340
  16 H :    0.103023
  17 H :    0.140773
  18 H :    0.318166
Sum of atomic charges:   -0.0000000

LOEWDIN ATOMIC CHARGES
----------------------
   0 C :   -0.292339
   1 O :    0.233455
   2 C :   -0.441537
   3 O :    0.081485
   4 C :   -0.138492
   5 C :   -0.084054
   6 C :   -0.116104
   7 C :   -0.259609
   8 C :   -0.139903
   9 C :   -0.073359
  10 O :    0.094781
  11 H :    0.110181
  12 H :    0.112738
  13 H :    0.113079
  14 H :    0.153990
  15 H :    0.151165
  16 H :    0.143550
  17 H :    0.158907
  18 H :    0.192066

  Mayer bond orders larger than 0.100000
B(  0-C ,  1-O ) :   0.8881 B(  0-C , 11-H ) :   0.9715 B(  0-C , 12-H ) :   0.9724
B(  0-C , 13-H ) :   0.9719 B(  1-O ,  2-C ) :   1.1876 B(  1-O ,  4-C ) :  -0.1050
B(  2-C ,  3-O ) :   1.9387 B(  2-C ,  4-C ) :   0.9838 B(  4-C ,  5-C ) :   1.3148
B(  4-C ,  9-C ) :   1.3584 B(  5-C ,  6-C ) :   1.4368 B(  5-C , 14-H ) :   0.9669
B(  6-C ,  7-C ) :   1.3358 B(  6-C , 15-H ) :   0.9857 B(  7-C ,  8-C ) :   1.2967
B(  7-C , 10-O ) :   1.1339 B(  8-C ,  9-C ) :   1.4152 B(  8-C , 16-H ) :   0.9637
B(  9-C , 17-H ) :   0.9430 B( 10-O , 18-H ) :   0.8807

Dispersion correction           -0.006335177
FINAL SINGLE POINT ENERGY      -535.287492392371

DIPOLE MOMENT
-------------

Method             : SCF
Type of density    : Electron Density
Multiplicity       :   1
Irrep              :   0
Energy             :  -535.2906539441548830 Eh
Relativity type    :
Basis              : AO
                                X                 Y                 Z
Electronic contribution:      3.902217973      -1.315252963       0.093036484
Nuclear contribution   :     -3.312993473       1.536882272      -0.119594714
                        -----------------------------------------
Total Dipole Moment    :      0.589224500       0.221629309      -0.026558230
                        -----------------------------------------
Magnitude (a.u.)       :      0.630087615
Magnitude (Debye)      :      1.601555438

VIBRATIONAL FREQUENCIES
-----------------------

Scaling factor for frequencies =  1.000000000  (already applied!)

     0:       0.00 cm**-1
     1:       0.00 cm**-1
     2:       0.00 cm**-1
     3:       0.00 cm**-1
     4:       0.00 cm**-1
     5:       0.00 cm**-1
     6:      77.88 cm**-1
     7:     105.52 cm**-1
     8:     150.44 cm**-1
     9:     158.44 cm**-1
    10:     183.07 cm**-1
    11:     311.62 cm**-1
    12:     319.69 cm**-1
    13:     335.05 cm**-1
    14:     413.32 cm**-1
    15:     421.62 cm**-1
    16:     463.23 cm**-1
    17:     497.92 cm**-1
    18:     511.97 cm**-1
    19:     629.53 cm**-1
    20:     653.73 cm**-1
    21:     710.67 cm**-1
    22:     781.73 cm**-1
    23:     806.78 cm**-1
    24:     813.73 cm**-1
    25:     852.66 cm**-1
    26:     854.25 cm**-1
    27:     961.25 cm**-1
    28:     964.73 cm**-1
    29:     966.92 cm**-1
    30:    1028.91 cm**-1
    31:    1122.08 cm**-1
    32:    1130.83 cm**-1
    33:    1166.22 cm**-1
    34:    1186.40 cm**-1
    35:    1202.29 cm**-1
    36:    1203.76 cm**-1
    37:    1284.70 cm**-1
    38:    1303.38 cm**-1
    39:    1332.58 cm**-1
    40:    1381.91 cm**-1
    41:    1460.21 cm**-1
    42:    1466.28 cm**-1
    43:    1476.66 cm**-1
    44:    1484.26 cm**-1
    45:    1535.05 cm**-1
    46:    1618.25 cm**-1
    47:    1641.55 cm**-1
    48:    1692.43 cm**-1
    49:    3027.83 cm**-1
    50:    3115.53 cm**-1
    51:    3143.48 cm**-1
    52:    3158.62 cm**-1
    53:    3180.12 cm**-1
    54:    3192.30 cm**-1
    55:    3202.10 cm**-1
    56:    3742.72 cm**-1

IR SPECTRUM
-----------

 Mode   freq       eps      Int      T**2         TX        TY        TZ
       cm**-1   L/(mol*cm) km/mol    a.u.
----------------------------------------------------------------------------
  6:     77.88   0.000571    2.88  0.002287  (-0.000371 -0.003290 -0.047708)
  7:    105.52   0.000001    0.00  0.000002  (-0.000717  0.000486  0.001108)
  8:    150.44   0.000201    1.01  0.000416  (-0.000768 -0.004737 -0.019825)
  9:    158.44   0.000494    2.50  0.000974  (-0.021117 -0.022548  0.004417)
 10:    183.07   0.000505    2.55  0.000861  ( 0.001273  0.002133  0.029244)
 11:    311.62   0.000234    1.18  0.000235  ( 0.001380 -0.000301  0.015257)
 12:    319.69   0.002645   13.37  0.002582  ( 0.037737 -0.033975  0.001875)
 13:    335.05   0.001453    7.34  0.001353  ( 0.031877 -0.018345  0.000878)
 14:    413.32   0.000165    0.83  0.000124  (-0.011073 -0.001169 -0.000637)
 15:    421.62   0.000140    0.71  0.000104  (-0.000004  0.000883  0.010158)
 16:    463.23   0.019128   96.66  0.012886  (-0.001924 -0.007658 -0.113241)
 17:    497.92   0.001559    7.88  0.000977  (-0.030095 -0.008375  0.001095)
 18:    511.97   0.003383   17.10  0.002062  ( 0.000830  0.003175  0.045293)
 19:    629.53   0.004189   21.17  0.002077  ( 0.045383  0.004028 -0.000872)
 20:    653.73   0.000280    1.42  0.000134  ( 0.002848  0.011170 -0.000914)
 21:    710.67   0.003363   17.00  0.001477  (-0.000594 -0.002808 -0.038321)
 22:    781.73   0.006856   34.65  0.002737  ( 0.000111 -0.003688 -0.052184)
 23:    806.78   0.001102    5.57  0.000426  ( 0.017373 -0.011153  0.000050)
 24:    813.73   0.000313    1.58  0.000120  ( 0.000384  0.000759  0.010915)
 25:    852.66   0.001972    9.96  0.000722  ( 0.024020  0.011505 -0.003511)
 26:    854.25   0.005007   25.30  0.001829  ( 0.002537  0.003705  0.042532)
 27:    961.25   0.000207    1.04  0.000067  ( 0.001231  0.000963  0.008042)
 28:    964.73   0.004436   22.42  0.001435  (-0.037373 -0.006155  0.000517)
 29:    966.92   0.000040    0.20  0.000013  (-0.001097  0.000076  0.003404)
 30:   1028.91   0.000683    3.45  0.000207  (-0.013808  0.004062 -0.000317)
 31:   1122.08   0.030957  156.44  0.008609  (-0.079964  0.046971 -0.002990)
 32:   1130.83   0.000264    1.34  0.000073  ( 0.007140  0.004680 -0.000148)
 33:   1166.22   0.000152    0.77  0.000041  ( 0.001635  0.000009  0.006169)
 34:   1186.40   0.043639  220.53  0.011478  (-0.105941  0.015964 -0.000154)
 35:   1202.29   0.030319  153.22  0.007870  ( 0.087244 -0.016061  0.000182)
 36:   1203.76   0.007920   40.02  0.002053  (-0.040562 -0.020084  0.002126)
 37:   1284.70   0.027633  139.65  0.006712  ( 0.081916 -0.001068 -0.000932)
 38:   1303.38   0.062843  317.58  0.015046  ( 0.114301 -0.044454  0.002310)
 39:   1332.58   0.010622   53.68  0.002487  (-0.042236  0.026475 -0.001605)
 40:   1381.91   0.007725   39.04  0.001745  (-0.041581 -0.003861  0.000823)
 41:   1460.21   0.006725   33.99  0.001437  ( 0.037901 -0.000042  0.000843)
 42:   1466.28   0.013373   67.58  0.002846  (-0.053167  0.004406 -0.000108)
 43:   1476.66   0.001716    8.67  0.000363  ( 0.001279 -0.001465 -0.018944)
 44:   1484.26   0.001655    8.37  0.000348  (-0.008881  0.016399 -0.000511)
 45:   1535.05   0.005394   27.26  0.001097  ( 0.029730  0.014510 -0.001483)
 46:   1618.25   0.001152    5.82  0.000222  ( 0.014261  0.004305 -0.000578)
 47:   1641.55   0.040612  205.23  0.007720  (-0.087026 -0.011994  0.001736)
 48:   1692.43   0.048315  244.17  0.008909  ( 0.049428  0.080199 -0.005815)
 49:   3027.83   0.007777   39.30  0.000802  (-0.027802  0.005343  0.000092)
 50:   3115.53   0.003556   17.97  0.000356  (-0.000036  0.001373  0.018822)
 51:   3143.48   0.003093   15.63  0.000307  ( 0.005521 -0.016582  0.001275)
 52:   3158.62   0.002688   13.59  0.000266  ( 0.014117 -0.008133  0.000406)
 53:   3180.12   0.000705    3.56  0.000069  ( 0.007419  0.003751 -0.000284)
 54:   3192.30   0.000493    2.49  0.000048  (-0.005457  0.004285 -0.000219)
 55:   3202.10   0.000325    1.64  0.000032  (-0.002265 -0.005141  0.000306)
 56:   3742.72   0.014995   75.78  0.001250  ( 0.030546 -0.017790  0.000832)

--------------------------
THERMOCHEMISTRY AT 298.15K
--------------------------

Temperature         ...   298.15 K
Pressure            ...     1.00 atm
Total Mass          ...   152.15 AMU
Quasi RRHO          ...     True
Cut-Off Frequency   ...     1.00 cm^-1

Throughout the following assumptions are being made:
  (1) The electronic state is orbitally nondegenerate
  (2) There are no thermally accessible electronically excited states
  (3) Hindered rotations indicated by low frequency modes are not
      treated as such but are treated as vibrations and this may
      cause some error
  (4) All equations used are the standard statistical mechanics
      equations for an ideal gas
  (5) All vibrations are strictly harmonic

freq.      77.88  E(vib)   ...       0.49
freq.     105.52  E(vib)   ...       0.45
freq.     150.44  E(vib)   ...       0.40
freq.     158.44  E(vib)   ...       0.39
freq.     183.07  E(vib)   ...       0.37
freq.     311.62  E(vib)   ...       0.25
freq.     319.69  E(vib)   ...       0.25
freq.     335.05  E(vib)   ...       0.24
freq.     413.32  E(vib)   ...       0.19
freq.     421.62  E(vib)   ...       0.18
freq.     463.23  E(vib)   ...       0.16
freq.     497.92  E(vib)   ...       0.14
freq.     511.97  E(vib)   ...       0.14
freq.     629.53  E(vib)   ...       0.09
freq.     653.73  E(vib)   ...       0.08
freq.     710.67  E(vib)   ...       0.07
freq.     781.73  E(vib)   ...       0.05
freq.     806.78  E(vib)   ...       0.05
freq.     813.73  E(vib)   ...       0.05
freq.     852.66  E(vib)   ...       0.04
freq.     854.25  E(vib)   ...       0.04
freq.     961.25  E(vib)   ...       0.03
freq.     964.73  E(vib)   ...       0.03
freq.     966.92  E(vib)   ...       0.03
freq.    1028.91  E(vib)   ...       0.02
freq.    1122.08  E(vib)   ...       0.01
freq.    1130.83  E(vib)   ...       0.01
freq.    1166.22  E(vib)   ...       0.01
freq.    1186.40  E(vib)   ...       0.01
freq.    1202.29  E(vib)   ...       0.01
freq.    1203.76  E(vib)   ...       0.01
freq.    1284.70  E(vib)   ...       0.01
freq.    1303.38  E(vib)   ...       0.01
freq.    1332.58  E(vib)   ...       0.01
freq.    1381.91  E(vib)   ...       0.01
freq.    1460.21  E(vib)   ...       0.00
freq.    1466.28  E(vib)   ...       0.00
freq.    1476.66  E(vib)   ...       0.00
freq.    1484.26  E(vib)   ...       0.00
freq.    1535.05  E(vib)   ...       0.00
freq.    1618.25  E(vib)   ...       0.00
freq.    1641.55  E(vib)   ...       0.00
freq.    1692.43  E(vib)   ...       0.00
freq.    3027.83  E(vib)   ...       0.00
freq.    3115.53  E(vib)   ...       0.00
freq.    3143.48  E(vib)   ...       0.00
freq.    3158.62  E(vib)   ...       0.00
freq.    3180.12  E(vib)   ...       0.00
freq.    3192.30  E(vib)   ...       0.00
freq.    3202.10  E(vib)   ...       0.00
freq.    3742.72  E(vib)   ...       0.00

------------
INNER ENERGY
------------

The inner energy is: U= E(el) + E(ZPE) + E(vib) + E(rot) + E(trans)
    E(el)   - is the total energy from the electronic structure calculation
              = E(kin-el) + E(nuc-el) + E(el-el) + E(nuc-nuc)
    E(ZPE)  - the the zero temperature vibrational energy from the frequency calculation
    E(vib)  - the the finite temperature correction to E(ZPE) due to population
              of excited vibrational states
    E(rot)  - is the rotational thermal energy
    E(trans)- is the translational thermal energy

Summary of contributions to the inner energy U:
Electronic energy                ...   -535.28749239 Eh
Zero point energy                ...      0.14677364 Eh      92.10 kcal/mol
Thermal vibrational correction   ...      0.00691958 Eh       4.34 kcal/mol
Thermal rotational correction    ...      0.00141627 Eh       0.89 kcal/mol
Thermal translational correction ...      0.00141627 Eh       0.89 kcal/mol
-----------------------------------------------------------------------
Total thermal energy                   -535.13096663 Eh

Summary of corrections to the electronic energy:
(perhaps to be used in another calculation)
Total thermal correction                  0.00975212 Eh       6.12 kcal/mol
Non-thermal (ZPE) correction              0.14677364 Eh      92.10 kcal/mol
-----------------------------------------------------------------------
Total correction                          0.15652576 Eh      98.22 kcal/mol

--------
ENTHALPY
--------

The enthalpy is H = U + kB*T
                kB is Boltzmann's constant
Total thermal energy              ...   -535.13096663 Eh
Thermal Enthalpy correction       ...      0.00094421 Eh       0.59 kcal/mol
-----------------------------------------------------------------------
Total Enthalpy                    ...   -535.13002242 Eh

Note: Only C1 symmetry has been detected, increase convergence thresholds
      if your molecule has a higher symmetry. Symmetry factor of 1.0 is
      used for the rotational entropy correction.

Note: Rotational entropy computed according to Herzberg
Infrared and Raman Spectra, Chapter V,1, Van Nostrand Reinhold, 1945
Point Group:  C1, Symmetry Number:   1
Rotational constants in cm-1:     0.115106     0.019268     0.016558

Vibrational entropy computed according to the QRRHO of S. Grimme
Chem.Eur.J. 2012 18 9955 using a reference frequency of 100.0 cm-1

-------
ENTROPY
-------

The entropy contributions are T*S = T*(S(el)+S(vib)+S(rot)+S(trans))
     S(el)   - electronic entropy
     S(vib)  - vibrational entropy
     S(rot)  - rotational entropy
     S(trans)- translational entropy
The entropies will be listed as multiplied by the temperature to get
units of energy

Electronic entropy                ...      0.00000000 Eh      0.00 kcal/mol
Vibrational entropy               ...      0.01167241 Eh      7.32 kcal/mol
Rotational entropy                ...      0.01433184 Eh      8.99 kcal/mol
Translational entropy             ...      0.01946564 Eh     12.21 kcal/mol
-----------------------------------------------------------------------
Final entropy term                ...      0.04546989 Eh     28.53 kcal/mol

In case the symmetry of your molecule has not been determined correctly
or in case you have a reason to use a different symmetry number we print
out the resulting rotational entropy values for sn=1,12:

 non-linear molecules -----------------------------------
|  sn= 1 | S(rot)=       0.01433184 Eh      8.99 kcal/mol|
|  sn= 2 | S(rot)=       0.01367738 Eh      8.58 kcal/mol|
|  sn= 3 | S(rot)=       0.01329455 Eh      8.34 kcal/mol|
|  sn= 4 | S(rot)=       0.01302293 Eh      8.17 kcal/mol|
|  sn= 5 | S(rot)=       0.01281224 Eh      8.04 kcal/mol|
|  sn= 6 | S(rot)=       0.01264009 Eh      7.93 kcal/mol|
|  sn= 7 | S(rot)=       0.01249455 Eh      7.84 kcal/mol|
|  sn= 8 | S(rot)=       0.01236847 Eh      7.76 kcal/mol|
|  sn= 9 | S(rot)=       0.01225726 Eh      7.69 kcal/mol|

                             ****ORCA TERMINATED NORMALLY****
TOTAL RUN TIME: 0 days 0 hours 19 minutes 13 seconds 559 msec
