                         Program Version 6.0.0  -   RELEASE  -
|  1> ! r2SCAN-3c DEF2-TZVP FREQ
|  2> * xyzfile 0 1 vacuum_censo.xyz
|  3>
|  4>                          ****END OF INPUT****

CARTESIAN COORDINATES (ANGSTROEM)
---------------------------------
  C     -3.822984    0.697574   -0.000514
  O     -2.388421    0.832533    0.000304
  C     -1.710173   -0.343565   -0.000042
  O     -2.261115   -1.424572   -0.000754
  C     -0.245685   -0.143266    0.000160
  C      0.571082   -1.277641   -0.000032
  C      1.950406   -1.154937   -0.000072
  C      2.530164    0.116494    0.000006
  C      1.726446    1.258030    0.000253
  C      0.348734    1.124824    0.000330
  O      3.879129    0.305874   -0.000174
  H     -4.155161    0.159252   -0.892104
  H     -4.210698    1.716246    0.001935
  H     -4.155846    0.154614    0.887981
  H      0.102432   -2.255523   -0.000123
  H      2.579376   -2.041624   -0.000201
  H      2.198900    2.233802    0.000338
  H     -0.276959    2.008942    0.000491
  H      4.321290   -0.551145   -0.000492

 Total Charge           Charge          ....    0
 Multiplicity           Mult            ....    1
 Number of Electrons    NEL             ....   80
 Basis Dimension        Dim             ....  389

ORBITAL ENERGIES
----------------

  NO   OCC          E(Eh)            E(eV)
   0   2.0000     -19.002085      -517.0730
   1   2.0000     -18.996771      -516.9284
   2   2.0000     -18.930317      -515.1201
   3   2.0000     -10.152537      -276.2646
   4   2.0000     -10.114344      -275.2253
   5   2.0000     -10.084145      -274.4035
   6   2.0000     -10.051597      -273.5179
   7   2.0000     -10.051173      -273.5063
   8   2.0000     -10.049557      -273.4623
   9   2.0000     -10.049305      -273.4555
  10   2.0000     -10.043693      -273.3028
  11   2.0000      -1.061648       -28.8889
  12   2.0000      -1.044769       -28.4296
  13   2.0000      -0.973899       -26.5011
  14   2.0000      -0.834052       -22.6957
  15   2.0000      -0.739860       -20.1326
  16   2.0000      -0.731090       -19.8940
  17   2.0000      -0.684907       -18.6373
  18   2.0000      -0.615124       -16.7384
  19   2.0000      -0.591364       -16.0918
  20   2.0000      -0.538960       -14.6658
  21   2.0000      -0.527221       -14.3464
  22   2.0000      -0.499954       -13.6044
  23   2.0000      -0.453105       -12.3296
  24   2.0000      -0.446154       -12.1405
  25   2.0000      -0.434413       -11.8210
  26   2.0000      -0.420512       -11.4427
  27   2.0000      -0.405220       -11.0266
  28   2.0000      -0.398799       -10.8519
  29   2.0000      -0.397834       -10.8256
  30   2.0000      -0.375611       -10.2209
  31   2.0000      -0.370271       -10.0756
  32   2.0000      -0.352354        -9.5881
  33   2.0000      -0.330292        -8.9877
  34   2.0000      -0.318486        -8.6664
  35   2.0000      -0.316018        -8.5993
  36   2.0000      -0.274668        -7.4741
  37   2.0000      -0.250913        -6.8277
  38   2.0000      -0.241774        -6.5790
  39   2.0000      -0.221416        -6.0250
  40   0.0000      -0.067095        -1.8258
  41   0.0000      -0.046027        -1.2524
  42   0.0000       0.027319         0.7434
  43   0.0000       0.031014         0.8439
  44   0.0000       0.052989         1.4419

MULLIKEN ATOMIC CHARGES
-----------------------
   0 C :   -0.157640
   1 O :   -0.258425
   2 C :    0.349409
   3 O :   -0.370135
   4 C :    0.053133
   5 C :   -0.172536
   6 C :   -0.184875
   7 C :    0.311960
   8 C :   -0.191304
   9 C :   -0.156047
  10 O :   -0.384469
  11 H :    0.120553
  12 H :    0.116495
  13 H :    0.120650
  14 H :    0.141669
  15 H :    0.103501
  16 H :    0.114873
  17 H :    0.125719
  18 H :    0.317470
Sum of atomic charges:   -0.0000000

LOEWDIN ATOMIC CHARGES
----------------------
   0 C :   -0.299694
   1 O :    0.229346
   2 C :   -0.442959
   3 O :    0.098974
   4 C :   -0.139409
   5 C :   -0.075300
   6 C :   -0.139555
   7 C :   -0.262428
   8 C :   -0.115468
   9 C :   -0.084770
  10 O :    0.098624
  11 H :    0.112387
  12 H :    0.110193
  13 H :    0.112414
  14 H :    0.158905
  15 H :    0.143799
  16 H :    0.151117
  17 H :    0.153985
  18 H :    0.189838

  Mayer bond orders larger than 0.100000
B(  0-C ,  1-O ) :   0.8927 B(  0-C , 11-H ) :   0.9729 B(  0-C , 12-H ) :   0.9716
B(  0-C , 13-H ) :   0.9729 B(  1-O ,  2-C ) :   1.1768 B(  1-O ,  4-C ) :  -0.1039
B(  2-C ,  3-O ) :   1.9516 B(  2-C ,  4-C ) :   0.9807 B(  4-C ,  5-C ) :   1.3642
B(  4-C ,  9-C ) :   1.3188 B(  5-C ,  6-C ) :   1.4131 B(  5-C , 14-H ) :   0.9411
B(  6-C ,  7-C ) :   1.2975 B(  6-C , 15-H ) :   0.9625 B(  7-C ,  8-C ) :   1.3359
B(  7-C , 10-O ) :   1.1355 B(  8-C ,  9-C ) :   1.4353 B(  8-C , 16-H ) :   0.9863
B(  9-C , 17-H ) :   0.9671 B( 10-O , 18-H ) :   0.8820

Dispersion correction           -0.006341347
FINAL SINGLE POINT ENERGY      -535.287991982759

DIPOLE MOMENT
-------------

Method             : SCF
Type of density    : Electron Density
Multiplicity       :   1
Irrep              :   0
Energy             :  -535.2911911914984557 Eh
Relativity type    :
Basis              : AO
                                X                 Y                 Z
Electronic contribution:      3.968140058      -1.114843888       0.001457822
Nuclear contribution   :     -3.397585973       1.322792312      -0.001497634
                        -----------------------------------------
Total Dipole Moment    :      0.570554086       0.207948423      -0.000039813
                        -----------------------------------------
Magnitude (a.u.)       :      0.607268073
Magnitude (Debye)      :      1.543552774

VIBRATIONAL FREQUENCIES
-----------------------

Scaling factor for frequencies =  1.000000000  (already applied!)

     0:       0.00 cm**-1
     1:       0.00 cm**-1
     2:       0.00 cm**-1
     3:       0.00 cm**-1
     4:       0.00 cm**-1
     5:       0.00 cm**-1
     6:      66.03 cm**-1
     7:      95.39 cm**-1
     8:     155.53 cm**-1
     9:     158.68 cm**-1
    10:     177.93 cm**-1
    11:     309.57 cm**-1
    12:     319.92 cm**-1
    13:     335.73 cm**-1
    14:     397.64 cm**-1
    15:     409.88 cm**-1
    16:     422.26 cm**-1
    17:     498.01 cm**-1
    18:     508.96 cm**-1
    19:     628.67 cm**-1
    20:     654.24 cm**-1
    21:     707.60 cm**-1
    22:     778.70 cm**-1
    23:     804.10 cm**-1
    24:     816.08 cm**-1
    25:     853.51 cm**-1
    26:     853.86 cm**-1
    27:     961.02 cm**-1
    28:     965.42 cm**-1
    29:     979.73 cm**-1
    30:    1033.48 cm**-1
    31:    1116.56 cm**-1
    32:    1128.43 cm**-1
    33:    1169.34 cm**-1
    34:    1184.89 cm**-1
    35:    1193.86 cm**-1
    36:    1206.87 cm**-1
    37:    1287.48 cm**-1
    38:    1291.22 cm**-1
    39:    1334.29 cm**-1
    40:    1384.69 cm**-1
    41:    1462.28 cm**-1
    42:    1466.80 cm**-1
    43:    1474.67 cm**-1
    44:    1489.28 cm**-1
    45:    1537.94 cm**-1
    46:    1624.69 cm**-1
    47:    1643.87 cm**-1
    48:    1747.60 cm**-1
    49:    3025.61 cm**-1
    50:    3108.23 cm**-1
    51:    3141.03 cm**-1
    52:    3149.54 cm**-1
    53:    3185.85 cm**-1
    54:    3191.84 cm**-1
    55:    3205.12 cm**-1
    56:    3797.56 cm**-1

IR SPECTRUM
-----------

 Mode   freq       eps      Int      T**2         TX        TY        TZ
       cm**-1   L/(mol*cm) km/mol    a.u.
----------------------------------------------------------------------------
  6:     66.03   0.000724    3.66  0.003421  (-0.000050  0.000128  0.058489)
  7:     95.39   0.000008    0.04  0.000028  (-0.000002 -0.000088 -0.005258)
  8:    155.53   0.000512    2.59  0.001028  (-0.022776 -0.022562  0.000554)
  9:    158.68   0.000274    1.39  0.000539  ( 0.000651  0.000616  0.023204)
 10:    177.93   0.000239    1.21  0.000419  ( 0.000025 -0.000187 -0.020469)
 11:    309.57   0.000467    2.36  0.000471  (-0.000007 -0.000050 -0.021693)
 12:    319.92   0.002532   12.80  0.002470  ( 0.038949 -0.030872 -0.000008)
 13:    335.73   0.001803    9.11  0.001676  ( 0.036351 -0.018835 -0.000013)
 14:    397.64   0.019209   97.07  0.015075  (-0.000088 -0.000075  0.122779)
 15:    409.88   0.000183    0.92  0.000139  ( 0.011427  0.002898  0.000025)
 16:    422.26   0.000338    1.71  0.000250  ( 0.000042 -0.000023  0.015798)
 17:    498.01   0.001446    7.31  0.000906  (-0.028261 -0.010367 -0.000050)
 18:    508.96   0.002305   11.65  0.001413  ( 0.000018 -0.000002 -0.037590)
 19:    628.67   0.003905   19.73  0.001938  ( 0.043650  0.005736 -0.000015)
 20:    654.24   0.000286    1.45  0.000137  ( 0.001399  0.011600 -0.000009)
 21:    707.60   0.003272   16.54  0.001443  (-0.000006  0.000033  0.037988)
 22:    778.70   0.006281   31.74  0.002517  ( 0.000021 -0.000073 -0.050171)
 23:    804.10   0.001482    7.49  0.000575  ( 0.019652 -0.013751 -0.000064)
 24:    816.08   0.000330    1.67  0.000126  (-0.000020  0.000032 -0.011232)
 25:    853.51   0.001898    9.59  0.000694  ( 0.021951  0.014497  0.001342)
 26:    853.86   0.005180   26.18  0.001893  ( 0.000662  0.000465 -0.043502)
 27:    961.02   0.000147    0.74  0.000048  (-0.000018  0.000011 -0.006907)
 28:    965.42   0.000029    0.15  0.000009  ( 0.000006 -0.000017  0.003046)
 29:    979.73   0.002543   12.85  0.000810  (-0.025201 -0.013229 -0.000029)
 30:   1033.48   0.000939    4.75  0.000284  (-0.016414  0.003766 -0.000004)
 31:   1116.56   0.042953  217.07  0.012005  (-0.099390  0.046114 -0.000009)
 32:   1128.43   0.000226    1.14  0.000062  (-0.004067 -0.006770 -0.000010)
 33:   1169.34   0.000135    0.68  0.000036  ( 0.000136 -0.000056 -0.005992)
 34:   1184.89   0.058442  295.34  0.015392  (-0.123690  0.009620 -0.000005)
 35:   1193.86   0.017620   89.05  0.004606  (-0.067003 -0.010788  0.000009)
 36:   1206.87   0.005559   28.09  0.001437  ( 0.029350 -0.023999  0.000006)
 37:   1287.48   0.081645  412.60  0.019790  ( 0.138992 -0.021698 -0.000003)
 38:   1291.22   0.009347   47.24  0.002259  ( 0.036288 -0.030695  0.000012)
 39:   1334.29   0.002394   12.10  0.000560  (-0.016471  0.016991 -0.000001)
 40:   1384.69   0.006196   31.31  0.001396  ( 0.037035  0.004990 -0.000001)
 41:   1462.28   0.003038   15.35  0.000648  ( 0.025315  0.002747 -0.000103)
 42:   1466.80   0.012123   61.26  0.002579  ( 0.050696 -0.002995 -0.000042)
 43:   1474.67   0.001703    8.60  0.000360  ( 0.000149 -0.000009  0.018980)
 44:   1489.28   0.001762    8.91  0.000369  (-0.010268  0.016244  0.000004)
 45:   1537.94   0.006083   30.74  0.001234  (-0.032635 -0.013010  0.000005)
 46:   1624.69   0.003689   18.64  0.000708  ( 0.024019  0.011471 -0.000004)
 47:   1643.87   0.034833  176.03  0.006613  (-0.080775 -0.009382  0.000000)
 48:   1747.60   0.052934  267.51  0.009452  ( 0.051568  0.082420  0.000042)
 49:   3025.61   0.008167   41.27  0.000842  (-0.028798  0.003610 -0.000055)
 50:   3108.23   0.003917   19.80  0.000393  ( 0.000037 -0.000029 -0.019832)
 51:   3141.03   0.003063   15.48  0.000304  ( 0.005879 -0.016422 -0.000007)
 52:   3149.54   0.002903   14.67  0.000288  ( 0.015031 -0.007855 -0.000002)
 53:   3185.85   0.000619    3.13  0.000061  ( 0.006733  0.003917  0.000000)
 54:   3191.84   0.000454    2.30  0.000044  (-0.005565  0.003668 -0.000001)
 55:   3205.12   0.000386    1.95  0.000038  (-0.002342 -0.005664 -0.000001)
 56:   3797.56   0.014905   75.33  0.001225  ( 0.030980 -0.016282 -0.000009)

--------------------------
THERMOCHEMISTRY AT 298.15K
--------------------------

Temperature         ...   298.15 K
Pressure            ...     1.00 atm
Total Mass          ...   152.15 AMU
Quasi RRHO          ...     True
Cut-Off Frequency   ...     1.00 cm^-1

Throughout the following assumptions are being made:
  (1) The electronic state is orbitally nondegenerate
  (2) There are no thermally accessible electronically excited states
  (3) Hindered rotations indicated by low frequency modes are not
      treated as such but are treated as vibrations and this may
      cause some error
  (4) All equations used are the standard statistical mechanics
      equations for an ideal gas
  (5) All vibrations are strictly harmonic

freq.      66.03  E(vib)   ...       0.50
freq.      95.39  E(vib)   ...       0.47
freq.     155.53  E(vib)   ...       0.40
freq.     158.68  E(vib)   ...       0.39
freq.     177.93  E(vib)   ...       0.37
freq.     309.57  E(vib)   ...       0.26
freq.     319.92  E(vib)   ...       0.25
freq.     335.73  E(vib)   ...       0.24
freq.     397.64  E(vib)   ...       0.20
freq.     409.88  E(vib)   ...       0.19
freq.     422.26  E(vib)   ...       0.18
freq.     498.01  E(vib)   ...       0.14
freq.     508.96  E(vib)   ...       0.14
freq.     628.67  E(vib)   ...       0.09
freq.     654.24  E(vib)   ...       0.08
freq.     707.60  E(vib)   ...       0.07
freq.     778.70  E(vib)   ...       0.05
freq.     804.10  E(vib)   ...       0.05
freq.     816.08  E(vib)   ...       0.05
freq.     853.51  E(vib)   ...       0.04
freq.     853.86  E(vib)   ...       0.04
freq.     961.02  E(vib)   ...       0.03
freq.     965.42  E(vib)   ...       0.03
freq.     979.73  E(vib)   ...       0.03
freq.    1033.48  E(vib)   ...       0.02
freq.    1116.56  E(vib)   ...       0.01
freq.    1128.43  E(vib)   ...       0.01
freq.    1169.34  E(vib)   ...       0.01
freq.    1184.89  E(vib)   ...       0.01
freq.    1193.86  E(vib)   ...       0.01
freq.    1206.87  E(vib)   ...       0.01
freq.    1287.48  E(vib)   ...       0.01
freq.    1291.22  E(vib)   ...       0.01
freq.    1334.29  E(vib)   ...       0.01
freq.    1384.69  E(vib)   ...       0.00
freq.    1462.28  E(vib)   ...       0.00
freq.    1466.80  E(vib)   ...       0.00
freq.    1474.67  E(vib)   ...       0.00
freq.    1489.28  E(vib)   ...       0.00
freq.    1537.94  E(vib)   ...       0.00
freq.    1624.69  E(vib)   ...       0.00
freq.    1643.87  E(vib)   ...       0.00
freq.    1747.60  E(vib)   ...       0.00
freq.    3025.61  E(vib)   ...       0.00
freq.    3108.23  E(vib)   ...       0.00
freq.    3141.03  E(vib)   ...       0.00
freq.    3149.54  E(vib)   ...       0.00
freq.    3185.85  E(vib)   ...       0.00
freq.    3191.84  E(vib)   ...       0.00
freq.    3205.12  E(vib)   ...       0.00
freq.    3797.56  E(vib)   ...       0.00

------------
INNER ENERGY
------------

The inner energy is: U= E(el) + E(ZPE) + E(vib) + E(rot) + E(trans)
    E(el)   - is the total energy from the electronic structure calculation
              = E(kin-el) + E(nuc-el) + E(el-el) + E(nuc-nuc)
    E(ZPE)  - the the zero temperature vibrational energy from the frequency calculation
    E(vib)  - the the finite temperature correction to E(ZPE) due to population
              of excited vibrational states
    E(rot)  - is the rotational thermal energy
    E(trans)- is the translational thermal energy

Summary of contributions to the inner energy U:
Electronic energy                ...   -535.28799198 Eh
Zero point energy                ...      0.14680848 Eh      92.12 kcal/mol
Thermal vibrational correction   ...      0.00702727 Eh       4.41 kcal/mol
Thermal rotational correction    ...      0.00141627 Eh       0.89 kcal/mol
Thermal translational correction ...      0.00141627 Eh       0.89 kcal/mol
-----------------------------------------------------------------------
Total thermal energy                   -535.13132370 Eh

Summary of corrections to the electronic energy:
(perhaps to be used in another calculation)
Total thermal correction                  0.00985981 Eh       6.19 kcal/mol
Non-thermal (ZPE) correction              0.14680848 Eh      92.12 kcal/mol
-----------------------------------------------------------------------
Total correction                          0.15666829 Eh      98.31 kcal/mol

--------
ENTHALPY
--------

The enthalpy is H = U + kB*T
                kB is Boltzmann's constant
Total thermal energy              ...   -535.13132370 Eh
Thermal Enthalpy correction       ...      0.00094421 Eh       0.59 kcal/mol
-----------------------------------------------------------------------
Total Enthalpy                    ...   -535.13037949 Eh

Note: Only C1 symmetry has been detected, increase convergence thresholds
      if your molecule has a higher symmetry. Symmetry factor of 1.0 is
      used for the rotational entropy correction.

Note: Rotational entropy computed according to Herzberg
Infrared and Raman Spectra, Chapter V,1, Van Nostrand Reinhold, 1945
Point Group:  C1, Symmetry Number:   1
Rotational constants in cm-1:     0.115536     0.019294     0.016585

Vibrational entropy computed according to the QRRHO of S. Grimme
Chem.Eur.J. 2012 18 9955 using a reference frequency of 100.0 cm-1

-------
ENTROPY
-------

The entropy contributions are T*S = T*(S(el)+S(vib)+S(rot)+S(trans))
     S(el)   - electronic entropy
     S(vib)  - vibrational entropy
     S(rot)  - rotational entropy
     S(trans)- translational entropy
The entropies will be listed as multiplied by the temperature to get
units of energy

Electronic entropy                ...      0.00000000 Eh      0.00 kcal/mol
Vibrational entropy               ...      0.01187176 Eh      7.45 kcal/mol
Rotational entropy                ...      0.01432870 Eh      8.99 kcal/mol
Translational entropy             ...      0.01946564 Eh     12.21 kcal/mol
-----------------------------------------------------------------------
Final entropy term                ...      0.04566610 Eh     28.66 kcal/mol

In case the symmetry of your molecule has not been determined correctly
or in case you have a reason to use a different symmetry number we print
out the resulting rotational entropy values for sn=1,12:

 non-linear molecules -----------------------------------
|  sn= 1 | S(rot)=       0.01432870 Eh      8.99 kcal/mol|
|  sn= 2 | S(rot)=       0.01367424 Eh      8.58 kcal/mol|
|  sn= 3 | S(rot)=       0.01329141 Eh      8.34 kcal/mol|
|  sn= 4 | S(rot)=       0.01301978 Eh      8.17 kcal/mol|
|  sn= 5 | S(rot)=       0.01280910 Eh      8.04 kcal/mol|
|  sn= 6 | S(rot)=       0.01263695 Eh      7.93 kcal/mol|
|  sn= 7 | S(rot)=       0.01249140 Eh      7.84 kcal/mol|
|  sn= 8 | S(rot)=       0.01236533 Eh      7.76 kcal/mol|
|  sn= 9 | S(rot)=       0.01225412 Eh      7.69 kcal/mol|

                             ****ORCA TERMINATED NORMALLY****
TOTAL RUN TIME: 0 days 0 hours 18 minutes 33 seconds 484 msec
