                         Program Version 6.0.1  -  RELEASE   -
|  1> ! pbe def2-sv(p) def2/J RI DEFGRID1 loosescf d4 GCP(DFT/SV(P)) printgap
|  2> %output
|  3>     printlevel normal
|  4> end
|  5> * xyz 0 1
|  6> C -2.5567510853 -0.6798706426 -0.3223594898
|  7> C -1.1782886609 -0.2968471589 0.2246540083
|  8> H -1.2263570551 -0.2599716204 1.3260221395
|  9> C -0.7217769931 1.0800838663 -0.3053160465
| 10> H -0.7322203574 1.0681943773 -1.4005904501
| 11> C 0.711497794 1.3482243469 0.1755236211
| 12> H 0.7107980974 1.4212754527 1.2801675932
| 13> C 1.6126720279 0.1711225014 -0.2138019472
| 14> H 1.6642866617 0.1112855072 -1.3144523886
| 15> C 1.0189420904 -1.1455682005 0.3205724283
| 16> H 1.0309940759 -1.1212438076 1.424551415
| 17> O -0.2817201667 -1.3253079611 -0.1662964785
| 18> O 1.7934266826 -2.2313358406 -0.0585747816
| 19> O 2.8931584285 0.3956599883 0.3232317754
| 20> O 1.1761683682 2.5457688369 -0.3809693698
| 21> O -1.617462083 2.0847870768 0.0718412609
| 22> O -3.0603604877 -1.8306613211 0.2947607985
| 23> H -2.4715761183 -0.818896112 -1.4085693823
| 24> H -3.2599451083 0.1286806567 -0.1179542748
| 25> H 1.5350100764 -2.4836038386 -0.9540770576
| 26> H 3.3677483819 -0.4456490996 0.3243978597
| 27> H 2.1270473208 2.5907289345 -0.2192595835
| 28> H -1.411742359 2.382688567 0.9657163946
| 29> H -2.3997458357 -2.5276256 0.1994314333
| 30> *
| 31>
| 32>                          ****END OF INPUT****

CARTESIAN COORDINATES (ANGSTROEM)
---------------------------------
  C     -2.556751   -0.679871   -0.322359
  C     -1.178289   -0.296847    0.224654
  H     -1.226357   -0.259972    1.326022
  C     -0.721777    1.080084   -0.305316
  H     -0.732220    1.068194   -1.400590
  C      0.711498    1.348224    0.175524
  H      0.710798    1.421275    1.280168
  C      1.612672    0.171123   -0.213802
  H      1.664287    0.111286   -1.314452
  C      1.018942   -1.145568    0.320572
  H      1.030994   -1.121244    1.424551
  O     -0.281720   -1.325308   -0.166296
  O      1.793427   -2.231336   -0.058575
  O      2.893158    0.395660    0.323232
  O      1.176168    2.545769   -0.380969
  O     -1.617462    2.084787    0.071841
  O     -3.060360   -1.830661    0.294761
  H     -2.471576   -0.818896   -1.408569
  H     -3.259945    0.128681   -0.117954
  H      1.535010   -2.483604   -0.954077
  H      3.367748   -0.445649    0.324398
  H      2.127047    2.590729   -0.219260
  H     -1.411742    2.382689    0.965716
  H     -2.399746   -2.527626    0.199431

 Total Charge           Charge          ....    0
 Multiplicity           Mult            ....    1
 Number of Electrons    NEL             ....   96
 Basis Dimension        Dim             ....  192

ORBITAL ENERGIES
----------------

  NO   OCC          E(Eh)            E(eV)
   0   2.0000     -18.791039      -511.3302
   1   2.0000     -18.780053      -511.0312
   2   2.0000     -18.767297      -510.6841
   3   2.0000     -18.758108      -510.4341
   4   2.0000     -18.752683      -510.2865
   5   2.0000     -18.744910      -510.0749
   6   2.0000     -10.000533      -272.1283
   7   2.0000      -9.951610      -270.7971
   8   2.0000      -9.949622      -270.7430
   9   2.0000      -9.949081      -270.7282
  10   2.0000      -9.949048      -270.7274
  11   2.0000      -9.930958      -270.2351
  12   2.0000      -1.003423       -27.3045
  13   2.0000      -0.952992       -25.9322
  14   2.0000      -0.947749       -25.7895
  15   2.0000      -0.933693       -25.4071
  16   2.0000      -0.923041       -25.1172
  17   2.0000      -0.919536       -25.0219
  18   2.0000      -0.711383       -19.3577
  19   2.0000      -0.697812       -18.9884
  20   2.0000      -0.620623       -16.8880
  21   2.0000      -0.594669       -16.1818
  22   2.0000      -0.564253       -15.3541
  23   2.0000      -0.554471       -15.0879
  24   2.0000      -0.512804       -13.9541
  25   2.0000      -0.503577       -13.7030
  26   2.0000      -0.472655       -12.8616
  27   2.0000      -0.464949       -12.6519
  28   2.0000      -0.455674       -12.3995
  29   2.0000      -0.442338       -12.0366
  30   2.0000      -0.426585       -11.6080
  31   2.0000      -0.404814       -11.0156
  32   2.0000      -0.393776       -10.7152
  33   2.0000      -0.373612       -10.1665
  34   2.0000      -0.362234        -9.8569
  35   2.0000      -0.357293        -9.7224
  36   2.0000      -0.338175        -9.2022
  37   2.0000      -0.334137        -9.0923
  38   2.0000      -0.317161        -8.6304
  39   2.0000      -0.306353        -8.3363
  40   2.0000      -0.288453        -7.8492
  41   2.0000      -0.277908        -7.5623
  42   2.0000      -0.269681        -7.3384
  43   2.0000      -0.250556        -6.8180
  44   2.0000      -0.234516        -6.3815
  45   2.0000      -0.229654        -6.2492
  46   2.0000      -0.219465        -5.9719
  47   2.0000      -0.208580        -5.6758
  48   0.0000       0.009975         0.2714
  49   0.0000       0.019014         0.5174
  50   0.0000       0.031461         0.8561
  51   0.0000       0.043863         1.1936
  52   0.0000       0.052095         1.4176

MULLIKEN ATOMIC CHARGES
-----------------------
   0 C :    0.107568
   1 C :   -0.034286
   2 H :    0.047312
   3 C :    0.078222
   4 H :    0.066335
   5 C :    0.064686
   6 H :    0.037682
   7 C :    0.021629
   8 H :    0.047314
   9 C :    0.173814
  10 H :    0.058655
  11 O :   -0.316808
  12 O :   -0.387222
  13 O :   -0.421956
  14 O :   -0.399660
  15 O :   -0.399549
  16 O :   -0.429750
  17 H :    0.066056
  18 H :    0.096220
  19 H :    0.305819
  20 H :    0.307746
  21 H :    0.310196
  22 H :    0.303476
  23 H :    0.296500
Sum of atomic charges:    0.0000000

LOEWDIN ATOMIC CHARGES
----------------------
   0 C :   -0.125192
   1 C :   -0.080405
   2 H :    0.101445
   3 C :   -0.066627
   4 H :    0.120002
   5 C :   -0.077984
   6 H :    0.095073
   7 C :   -0.100553
   8 H :    0.101724
   9 C :   -0.006379
  10 H :    0.098281
  11 O :   -0.153477
  12 O :   -0.296048
  13 O :   -0.324699
  14 O :   -0.314429
  15 O :   -0.297229
  16 O :   -0.332612
  17 H :    0.099883
  18 H :    0.122855
  19 H :    0.290735
  20 H :    0.287650
  21 H :    0.289208
  22 H :    0.288776
  23 H :    0.280003

  Mayer bond orders larger than 0.100000
B(  0-C ,  1-C ) :   1.0585 B(  0-C , 16-O ) :   1.0812 B(  0-C , 17-H ) :   0.9044
B(  0-C , 18-H ) :   0.9100 B(  1-C ,  2-H ) :   0.8661 B(  1-C ,  3-C ) :   0.9647
B(  1-C , 11-O ) :   0.9526 B(  3-C ,  4-H ) :   0.8678 B(  3-C ,  5-C ) :   1.0189
B(  3-C , 15-O ) :   1.0567 B(  5-C ,  6-H ) :   0.8638 B(  5-C ,  7-C ) :   1.0117
B(  5-C , 14-O ) :   1.1168 B(  7-C ,  8-H ) :   0.8603 B(  7-C ,  9-C ) :   0.9836
B(  7-C , 13-O ) :   1.0706 B(  9-C , 10-H ) :   0.8797 B(  9-C , 11-O ) :   1.0255
B(  9-C , 12-O ) :   1.1085 B( 12-O , 19-H ) :   0.8424 B( 13-O , 20-H ) :   0.8302
B( 14-O , 21-H ) :   0.8380 B( 15-O , 22-H ) :   0.8468 B( 16-O , 23-H ) :   0.8473

Dispersion correction           -0.023679427
FINAL SINGLE POINT ENERGY      -685.699012988811

DIPOLE MOMENT
-------------

Method             : SCF
Type of density    : Electron Density
Multiplicity       :   1
Irrep              :   0
Energy             :  -685.8296940053940034 Eh
Relativity type    :
Basis              : AO
                                X                 Y                 Z
Electronic contribution:      1.938058642      -0.508652898      -0.071704441
Nuclear contribution   :     -0.986429370       0.037678334       0.100112153
                        -----------------------------------------
Total Dipole Moment    :      0.951629273      -0.470974564       0.028407712
                        -----------------------------------------
Magnitude (a.u.)       :      1.062178097
Magnitude (Debye)      :      2.699842164

Rotational constants in cm-1:             0.039261             0.026090             0.016397
Rotational constants in MHz :          1177.020630           782.150702           491.582781

                             ****ORCA TERMINATED NORMALLY****
TOTAL RUN TIME: 0 days 0 hours 23 minutes 34 seconds 406 msec
