                         Program Version 6.0.0  -   RELEASE  -
|  1> ! r2SCAN-3c DEF2-TZVP FREQ
|  2> * xyzfile 0 1 censo.xyz
|  3>
|  4>                          ****END OF INPUT****

CARTESIAN COORDINATES (ANGSTROEM)
---------------------------------
  C      0.749777   -1.257483   -0.474357
  C      0.002967   -0.000165   -0.037784
  C     -1.421016    0.005241   -0.573834
  C      0.756065    1.256244   -0.466083
  O     -0.130193   -0.004651    1.414947
  H      0.214944   -2.154342   -0.146166
  H      0.845585   -1.290093   -1.564310
  H      1.756862   -1.272740   -0.042986
  H     -1.963025   -0.883545   -0.235525
  H     -1.411185    0.008322   -1.667253
  H     -1.958124    0.895051   -0.230450
  H      0.850729    1.296293   -1.555909
  H      0.226411    2.153556   -0.130764
  H      1.763740    1.263047   -0.035854
  H      0.765653   -0.008663    1.779028

 Total Charge           Charge          ....    0
 Multiplicity           Mult            ....    1
 Number of Electrons    NEL             ....   42
 Basis Dimension        Dim             ....  215

ORBITAL ENERGIES
----------------

  NO   OCC          E(Eh)            E(eV)
   0   2.0000     -18.941693      -515.4297
   1   2.0000     -10.092195      -274.6226
   2   2.0000     -10.021364      -272.6952
   3   2.0000     -10.021354      -272.6949
   4   2.0000     -10.017376      -272.5867
   5   2.0000      -0.972946       -26.4752
   6   2.0000      -0.757009       -20.5993
   7   2.0000      -0.658827       -17.9276
   8   2.0000      -0.658036       -17.9061
   9   2.0000      -0.533104       -14.5065
  10   2.0000      -0.456149       -12.4125
  11   2.0000      -0.421713       -11.4754
  12   2.0000      -0.416504       -11.3337
  13   2.0000      -0.381104       -10.3704
  14   2.0000      -0.367159        -9.9909
  15   2.0000      -0.348990        -9.4965
  16   2.0000      -0.336694        -9.1619
  17   2.0000      -0.322822        -8.7844
  18   2.0000      -0.317620        -8.6429
  19   2.0000      -0.290162        -7.8957
  20   2.0000      -0.235944        -6.4203
  21   0.0000       0.025405         0.6913
  22   0.0000       0.074321         2.0224
  23   0.0000       0.080387         2.1874
  24   0.0000       0.103241         2.8093
  25   0.0000       0.107329         2.9206

MULLIKEN ATOMIC CHARGES
-----------------------
   0 C :   -0.329879
   1 C :    0.185487
   2 C :   -0.290935
   3 C :   -0.329916
   4 O :   -0.458976
   5 H :    0.117772
   6 H :    0.098172
   7 H :    0.093604
   8 H :    0.109389
   9 H :    0.096039
  10 H :    0.109374
  11 H :    0.098170
  12 H :    0.117780
  13 H :    0.093626
  14 H :    0.290292
Sum of atomic charges:    0.0000000

LOEWDIN ATOMIC CHARGES
----------------------
   0 C :   -0.271922
   1 C :   -0.456580
   2 C :   -0.260319
   3 C :   -0.271936
   4 O :   -0.018671
   5 H :    0.125314
   6 H :    0.124384
   7 H :    0.118638
   8 H :    0.125909
   9 H :    0.124594
  10 H :    0.125909
  11 H :    0.124386
  12 H :    0.125318
  13 H :    0.118643
  14 H :    0.166332

  Mayer bond orders larger than 0.100000
B(  0-C ,  1-C ) :   0.9776 B(  0-C ,  5-H ) :   0.9762 B(  0-C ,  6-H ) :   0.9656
B(  0-C ,  7-H ) :   0.9616 B(  1-C ,  2-C ) :   0.9453 B(  1-C ,  3-C ) :   0.9776
B(  1-C ,  4-O ) :   0.9523 B(  2-C ,  8-H ) :   0.9723 B(  2-C ,  9-H ) :   0.9689
B(  2-C , 10-H ) :   0.9723 B(  3-C , 11-H ) :   0.9655 B(  3-C , 12-H ) :   0.9762
B(  3-C , 13-H ) :   0.9616 B(  4-O , 14-H ) :   0.9024

Dispersion correction           -0.003321309
FINAL SINGLE POINT ENERGY      -233.626122816505

DIPOLE MOMENT
-------------

Method             : SCF
Type of density    : Electron Density
Multiplicity       :   1
Irrep              :   0
Energy             :  -233.6309196328835753 Eh
Relativity type    :
Basis              : AO
                                X                 Y                 Z
Electronic contribution:     -0.512568965      -0.009403062       3.204609834
Nuclear contribution   :      1.013072010       0.009101862      -3.589597116
                        -----------------------------------------
Total Dipole Moment    :      0.500503045      -0.000301200      -0.384987281
                        -----------------------------------------
Magnitude (a.u.)       :      0.631441680
Magnitude (Debye)      :      1.604997199

VIBRATIONAL FREQUENCIES
-----------------------

Scaling factor for frequencies =  1.000000000  (already applied!)

     0:       0.00 cm**-1
     1:       0.00 cm**-1
     2:       0.00 cm**-1
     3:       0.00 cm**-1
     4:       0.00 cm**-1
     5:       0.00 cm**-1
     6:     217.60 cm**-1
     7:     278.82 cm**-1
     8:     290.78 cm**-1
     9:     339.57 cm**-1
    10:     344.28 cm**-1
    11:     366.72 cm**-1
    12:     422.06 cm**-1
    13:     467.90 cm**-1
    14:     472.36 cm**-1
    15:     746.81 cm**-1
    16:     884.54 cm**-1
    17:     913.68 cm**-1
    18:     929.37 cm**-1
    19:     958.01 cm**-1
    20:    1028.20 cm**-1
    21:    1047.58 cm**-1
    22:    1167.11 cm**-1
    23:    1212.58 cm**-1
    24:    1256.56 cm**-1
    25:    1364.24 cm**-1
    26:    1386.09 cm**-1
    27:    1395.63 cm**-1
    28:    1417.69 cm**-1
    29:    1463.46 cm**-1
    30:    1472.56 cm**-1
    31:    1475.79 cm**-1
    32:    1490.73 cm**-1
    33:    1501.74 cm**-1
    34:    1510.01 cm**-1
    35:    2999.60 cm**-1
    36:    3003.87 cm**-1
    37:    3014.92 cm**-1
    38:    3076.76 cm**-1
    39:    3083.62 cm**-1
    40:    3089.60 cm**-1
    41:    3092.08 cm**-1
    42:    3096.10 cm**-1
    43:    3101.97 cm**-1
    44:    3755.84 cm**-1

IR SPECTRUM
-----------

 Mode   freq       eps      Int      T**2         TX        TY        TZ
       cm**-1   L/(mol*cm) km/mol    a.u.
----------------------------------------------------------------------------
  6:    217.60   0.000201    1.01  0.000288  (-0.000090 -0.016967 -0.000036)
  7:    278.82   0.000192    0.97  0.000214  (-0.000039 -0.014643 -0.000040)
  8:    290.78   0.000008    0.04  0.000008  (-0.001829 -0.000198  0.002236)
  9:    339.57   0.003091   15.62  0.002840  ( 0.000140  0.053296 -0.000097)
 10:    344.28   0.000267    1.35  0.000242  ( 0.008564  0.000198  0.012987)
 11:    366.72   0.016067   81.20  0.013673  ( 0.000441  0.116929  0.000280)
 12:    422.06   0.000162    0.82  0.000120  (-0.003717  0.000051  0.010299)
 13:    467.90   0.001647    8.32  0.001098  ( 0.016335 -0.000055  0.028834)
 14:    472.36   0.002849   14.40  0.001882  (-0.000125 -0.043387 -0.000114)
 15:    746.81   0.001319    6.66  0.000551  (-0.001792 -0.000069  0.023405)
 16:    884.54   0.009100   45.99  0.003211  ( 0.004674  0.000194 -0.056469)
 17:    913.68   0.000000    0.00  0.000000  (-0.000006 -0.000365  0.000050)
 18:    929.37   0.000423    2.14  0.000142  (-0.002081 -0.000032  0.011737)
 19:    958.01   0.000000    0.00  0.000000  ( 0.000003  0.000195  0.000029)
 20:   1028.20   0.001939    9.80  0.000588  (-0.005462  0.000091 -0.023635)
 21:   1047.58   0.000313    1.58  0.000093  ( 0.000030  0.009655  0.000048)
 22:   1167.11   0.011088   56.04  0.002965  ( 0.006580 -0.000195  0.054050)
 23:   1212.58   0.006354   32.11  0.001635  (-0.009153 -0.000120  0.039389)
 24:   1256.56   0.004273   21.59  0.001061  ( 0.000104  0.032575  0.000076)
 25:   1364.24   0.005377   27.17  0.001230  (-0.012276 -0.000063  0.032851)
 26:   1386.09   0.003389   17.13  0.000763  (-0.000067 -0.027623 -0.000091)
 27:   1395.63   0.006650   33.61  0.001487  (-0.035296  0.000051  0.015531)
 28:   1417.69   0.000687    3.47  0.000151  ( 0.008035 -0.000057  0.009313)
 29:   1463.46   0.000003    0.01  0.000001  (-0.000001 -0.000736  0.000013)
 30:   1472.56   0.000063    0.32  0.000013  ( 0.000020  0.003664  0.000011)
 31:   1475.79   0.000016    0.08  0.000003  ( 0.000407  0.000004 -0.001820)
 32:   1490.73   0.000777    3.92  0.000163  ( 0.000030  0.012751  0.000036)
 33:   1501.74   0.000664    3.35  0.000138  ( 0.010343 -0.000054  0.005565)
 34:   1510.01   0.002629   13.29  0.000543  (-0.000624  0.000068 -0.023302)
 35:   2999.60   0.004650   23.50  0.000484  ( 0.000335  0.021993  0.000010)
 36:   3003.87   0.006330   31.99  0.000658  ( 0.025460 -0.000307 -0.003051)
 37:   3014.92   0.001820    9.20  0.000188  ( 0.011438 -0.000027  0.007586)
 38:   3076.76   0.000376    1.90  0.000038  ( 0.000178 -0.006172  0.000173)
 39:   3083.62   0.011598   58.61  0.001174  ( 0.026503 -0.000038  0.021708)
 40:   3089.60   0.000642    3.24  0.000065  (-0.000317  0.008041  0.000312)
 41:   3092.08   0.002254   11.39  0.000227  (-0.010622  0.000018  0.010706)
 42:   3096.10   0.007446   37.63  0.000750  (-0.000143 -0.027394  0.000033)
 43:   3101.97   0.009354   47.27  0.000941  ( 0.011042  0.000050 -0.028620)
 44:   3755.84   0.001697    8.58  0.000141  (-0.006606  0.000061 -0.009868)

--------------------------
THERMOCHEMISTRY AT 298.15K
--------------------------

Temperature         ...   298.15 K
Pressure            ...     1.00 atm
Total Mass          ...    74.12 AMU
Quasi RRHO          ...     True
Cut-Off Frequency   ...     1.00 cm^-1

Throughout the following assumptions are being made:
  (1) The electronic state is orbitally nondegenerate
  (2) There are no thermally accessible electronically excited states
  (3) Hindered rotations indicated by low frequency modes are not
      treated as such but are treated as vibrations and this may
      cause some error
  (4) All equations used are the standard statistical mechanics
      equations for an ideal gas
  (5) All vibrations are strictly harmonic

freq.     217.60  E(vib)   ...       0.33
freq.     278.82  E(vib)   ...       0.28
freq.     290.78  E(vib)   ...       0.27
freq.     339.57  E(vib)   ...       0.23
freq.     344.28  E(vib)   ...       0.23
freq.     366.72  E(vib)   ...       0.22
freq.     422.06  E(vib)   ...       0.18
freq.     467.90  E(vib)   ...       0.16
freq.     472.36  E(vib)   ...       0.15
freq.     746.81  E(vib)   ...       0.06
freq.     884.54  E(vib)   ...       0.04
freq.     913.68  E(vib)   ...       0.03
freq.     929.37  E(vib)   ...       0.03
freq.     958.01  E(vib)   ...       0.03
freq.    1028.20  E(vib)   ...       0.02
freq.    1047.58  E(vib)   ...       0.02
freq.    1167.11  E(vib)   ...       0.01
freq.    1212.58  E(vib)   ...       0.01
freq.    1256.56  E(vib)   ...       0.01
freq.    1364.24  E(vib)   ...       0.01
freq.    1386.09  E(vib)   ...       0.00
freq.    1395.63  E(vib)   ...       0.00
freq.    1417.69  E(vib)   ...       0.00
freq.    1463.46  E(vib)   ...       0.00
freq.    1472.56  E(vib)   ...       0.00
freq.    1475.79  E(vib)   ...       0.00
freq.    1490.73  E(vib)   ...       0.00
freq.    1501.74  E(vib)   ...       0.00
freq.    1510.01  E(vib)   ...       0.00
freq.    2999.60  E(vib)   ...       0.00
freq.    3003.87  E(vib)   ...       0.00
freq.    3014.92  E(vib)   ...       0.00
freq.    3076.76  E(vib)   ...       0.00
freq.    3083.62  E(vib)   ...       0.00
freq.    3089.60  E(vib)   ...       0.00
freq.    3092.08  E(vib)   ...       0.00
freq.    3096.10  E(vib)   ...       0.00
freq.    3101.97  E(vib)   ...       0.00
freq.    3755.84  E(vib)   ...       0.00

------------
INNER ENERGY
------------

The inner energy is: U= E(el) + E(ZPE) + E(vib) + E(rot) + E(trans)
    E(el)   - is the total energy from the electronic structure calculation
              = E(kin-el) + E(nuc-el) + E(el-el) + E(nuc-nuc)
    E(ZPE)  - the the zero temperature vibrational energy from the frequency calculation
    E(vib)  - the the finite temperature correction to E(ZPE) due to population
              of excited vibrational states
    E(rot)  - is the rotational thermal energy
    E(trans)- is the translational thermal energy

Summary of contributions to the inner energy U:
Electronic energy                ...   -233.62612282 Eh
Zero point energy                ...      0.13472357 Eh      84.54 kcal/mol
Thermal vibrational correction   ...      0.00374940 Eh       2.35 kcal/mol
Thermal rotational correction    ...      0.00141627 Eh       0.89 kcal/mol
Thermal translational correction ...      0.00141627 Eh       0.89 kcal/mol
-----------------------------------------------------------------------
Total thermal energy                   -233.48481730 Eh

Summary of corrections to the electronic energy:
(perhaps to be used in another calculation)
Total thermal correction                  0.00658194 Eh       4.13 kcal/mol
Non-thermal (ZPE) correction              0.13472357 Eh      84.54 kcal/mol
-----------------------------------------------------------------------
Total correction                          0.14130552 Eh      88.67 kcal/mol

--------
ENTHALPY
--------

The enthalpy is H = U + kB*T
                kB is Boltzmann's constant
Total thermal energy              ...   -233.48481730 Eh
Thermal Enthalpy correction       ...      0.00094421 Eh       0.59 kcal/mol
-----------------------------------------------------------------------
Total Enthalpy                    ...   -233.48387309 Eh

Note: Only C1 symmetry has been detected, increase convergence thresholds
      if your molecule has a higher symmetry. Symmetry factor of 1.0 is
      used for the rotational entropy correction.

Note: Rotational entropy computed according to Herzberg
Infrared and Raman Spectra, Chapter V,1, Van Nostrand Reinhold, 1945
Point Group:  C1, Symmetry Number:   1
Rotational constants in cm-1:     0.156279     0.155154     0.150785

Vibrational entropy computed according to the QRRHO of S. Grimme
Chem.Eur.J. 2012 18 9955 using a reference frequency of 100.0 cm-1

-------
ENTROPY
-------

The entropy contributions are T*S = T*(S(el)+S(vib)+S(rot)+S(trans))
     S(el)   - electronic entropy
     S(vib)  - vibrational entropy
     S(rot)  - rotational entropy
     S(trans)- translational entropy
The entropies will be listed as multiplied by the temperature to get
units of energy

Electronic entropy                ...      0.00000000 Eh      0.00 kcal/mol
Vibrational entropy               ...      0.00573836 Eh      3.60 kcal/mol
Rotational entropy                ...      0.01215988 Eh      7.63 kcal/mol
Translational entropy             ...      0.01844715 Eh     11.58 kcal/mol
-----------------------------------------------------------------------
Final entropy term                ...      0.03634539 Eh     22.81 kcal/mol

In case the symmetry of your molecule has not been determined correctly
or in case you have a reason to use a different symmetry number we print
out the resulting rotational entropy values for sn=1,12:

 non-linear molecules -----------------------------------
|  sn= 1 | S(rot)=       0.01215988 Eh      7.63 kcal/mol|
|  sn= 2 | S(rot)=       0.01150542 Eh      7.22 kcal/mol|
|  sn= 3 | S(rot)=       0.01112259 Eh      6.98 kcal/mol|
|  sn= 4 | S(rot)=       0.01085096 Eh      6.81 kcal/mol|
|  sn= 5 | S(rot)=       0.01064028 Eh      6.68 kcal/mol|
|  sn= 6 | S(rot)=       0.01046813 Eh      6.57 kcal/mol|
|  sn= 7 | S(rot)=       0.01032259 Eh      6.48 kcal/mol|
|  sn= 8 | S(rot)=       0.01019651 Eh      6.40 kcal/mol|
|  sn= 9 | S(rot)=       0.01008530 Eh      6.33 kcal/mol|
|  sn=10 | S(rot)=       0.00998582 Eh      6.27 kcal/mol|
|  sn=11 | S(rot)=       0.00989583 Eh      6.21 kcal/mol|
|  sn=12 | S(rot)=       0.00981368 Eh      6.16 kcal/mol|
 linear molecules ---------------------------------------
|  Dinfh | S(rot)=       0.00711210 Eh      4.46 kcal/mol|
|  Cinfv | S(rot)=       0.00776656 Eh      4.87 kcal/mol|
 --------------------------------------------------------

-------------------
GIBBS FREE ENERGY
-------------------

                             ****ORCA TERMINATED NORMALLY****
TOTAL RUN TIME: 0 days 0 hours 7 minutes 7 seconds 913 msec
