                         Program Version 6.0.0  -   RELEASE  -
|  1> ! r2SCAN-3c DEF2-TZVP FREQ
|  2> * xyzfile 0 1 vacuum_censo.xyz
|  3>
|  4>                          ****END OF INPUT****

CARTESIAN COORDINATES (ANGSTROEM)
---------------------------------
  C      0.754967   -1.257933   -0.474403
  C      0.005167    0.000041   -0.034171
  C     -1.420492   -0.001372   -0.570994
  C      0.752226    1.259908   -0.473637
  O     -0.139756   -0.000553    1.404076
  H      1.772390   -1.264878   -0.066486
  H      0.233584   -2.150497   -0.117637
  H      0.832272   -1.309502   -1.565423
  H     -1.954329   -0.888487   -0.219406
  H     -1.420147   -0.001383   -1.664671
  H     -1.956151    0.884652   -0.219423
  H      1.769786    1.268605   -0.066086
  H      0.829028    1.312547   -1.564642
  H      0.229121    2.151093   -0.115943
  H      0.745518    0.000613    1.786441

 Total Charge           Charge          ....    0
 Multiplicity           Mult            ....    1
 Number of Electrons    NEL             ....   42
 Basis Dimension        Dim             ....  215

ORBITAL ENERGIES
----------------

  NO   OCC          E(Eh)            E(eV)
   0   2.0000     -18.942544      -515.4528
   1   2.0000     -10.092007      -274.6175
   2   2.0000     -10.020823      -272.6804
   3   2.0000     -10.020816      -272.6803
   4   2.0000     -10.016282      -272.5569
   5   2.0000      -0.977578       -26.6012
   6   2.0000      -0.755616       -20.5614
   7   2.0000      -0.658294       -17.9131
   8   2.0000      -0.657449       -17.8901
   9   2.0000      -0.535308       -14.5665
  10   2.0000      -0.457202       -12.4411
  11   2.0000      -0.420439       -11.4407
  12   2.0000      -0.417029       -11.3479
  13   2.0000      -0.380981       -10.3670
  14   2.0000      -0.366483        -9.9725
  15   2.0000      -0.349528        -9.5111
  16   2.0000      -0.335920        -9.1408
  17   2.0000      -0.323219        -8.7952
  18   2.0000      -0.316883        -8.6228
  19   2.0000      -0.289495        -7.8776
  20   2.0000      -0.236720        -6.4415
  21   0.0000       0.026090         0.7099
  22   0.0000       0.074810         2.0357
  23   0.0000       0.082236         2.2377
  24   0.0000       0.103229         2.8090
  25   0.0000       0.107825         2.9341

MULLIKEN ATOMIC CHARGES
-----------------------
   0 C :   -0.333614
   1 C :    0.189712
   2 C :   -0.289761
   3 C :   -0.333664
   4 O :   -0.457428
   5 H :    0.094077
   6 H :    0.117646
   7 H :    0.099002
   8 H :    0.108563
   9 H :    0.095620
  10 H :    0.108549
  11 H :    0.094089
  12 H :    0.099010
  13 H :    0.117660
  14 H :    0.290541
Sum of atomic charges:    0.0000000

LOEWDIN ATOMIC CHARGES
----------------------
   0 C :   -0.272429
   1 C :   -0.463949
   2 C :   -0.260516
   3 C :   -0.272437
   4 O :   -0.006260
   5 H :    0.118231
   6 H :    0.124870
   7 H :    0.124187
   8 H :    0.125559
   9 H :    0.123687
  10 H :    0.125552
  11 H :    0.118234
  12 H :    0.124191
  13 H :    0.124870
  14 H :    0.166211

  Mayer bond orders larger than 0.100000
B(  0-C ,  1-C ) :   0.9756 B(  0-C ,  5-H ) :   0.9622 B(  0-C ,  6-H ) :   0.9761
B(  0-C ,  7-H ) :   0.9658 B(  1-C ,  2-C ) :   0.9454 B(  1-C ,  3-C ) :   0.9756
B(  1-C ,  4-O ) :   0.9617 B(  2-C ,  8-H ) :   0.9726 B(  2-C ,  9-H ) :   0.9689
B(  2-C , 10-H ) :   0.9726 B(  3-C , 11-H ) :   0.9622 B(  3-C , 12-H ) :   0.9658
B(  3-C , 13-H ) :   0.9761 B(  4-O , 14-H ) :   0.9022

Dispersion correction           -0.003320444
FINAL SINGLE POINT ENERGY      -233.626370255360

DIPOLE MOMENT
-------------

Method             : SCF
Type of density    : Electron Density
Multiplicity       :   1
Irrep              :   0
Energy             :  -233.6311624055480252 Eh
Relativity type    :
Basis              : AO
                                X                 Y                 Z
Electronic contribution:     -0.513737059      -0.001535960       3.202537228
Nuclear contribution   :      1.017595426       0.002371258      -3.552259719
                        -----------------------------------------
Total Dipole Moment    :      0.503858368       0.000835298      -0.349722491
                        -----------------------------------------
Magnitude (a.u.)       :      0.613334960
Magnitude (Debye)      :      1.558973575

VIBRATIONAL FREQUENCIES
-----------------------

Scaling factor for frequencies =  1.000000000  (already applied!)

     0:       0.00 cm**-1
     1:       0.00 cm**-1
     2:       0.00 cm**-1
     3:       0.00 cm**-1
     4:       0.00 cm**-1
     5:       0.00 cm**-1
     6:     209.87 cm**-1
     7:     271.20 cm**-1
     8:     283.16 cm**-1
     9:     305.30 cm**-1
    10:     344.79 cm**-1
    11:     346.47 cm**-1
    12:     422.34 cm**-1
    13:     465.93 cm**-1
    14:     470.66 cm**-1
    15:     749.26 cm**-1
    16:     905.96 cm**-1
    17:     907.30 cm**-1
    18:     924.77 cm**-1
    19:     954.28 cm**-1
    20:    1027.29 cm**-1
    21:    1043.70 cm**-1
    22:    1158.63 cm**-1
    23:    1219.96 cm**-1
    24:    1252.52 cm**-1
    25:    1359.96 cm**-1
    26:    1384.49 cm**-1
    27:    1392.41 cm**-1
    28:    1415.49 cm**-1
    29:    1463.13 cm**-1
    30:    1472.28 cm**-1
    31:    1476.35 cm**-1
    32:    1490.58 cm**-1
    33:    1500.27 cm**-1
    34:    1509.12 cm**-1
    35:    2999.96 cm**-1
    36:    3004.65 cm**-1
    37:    3020.18 cm**-1
    38:    3072.75 cm**-1
    39:    3079.78 cm**-1
    40:    3096.49 cm**-1
    41:    3097.90 cm**-1
    42:    3105.37 cm**-1
    43:    3105.99 cm**-1
    44:    3789.81 cm**-1

IR SPECTRUM
-----------

 Mode   freq       eps      Int      T**2         TX        TY        TZ
       cm**-1   L/(mol*cm) km/mol    a.u.
----------------------------------------------------------------------------
  6:    209.87   0.000623    3.15  0.000926  ( 0.000048 -0.030425 -0.000025)
  7:    271.20   0.002310   11.67  0.002658  ( 0.000083 -0.051552 -0.000033)
  8:    283.16   0.000010    0.05  0.000011  ( 0.001353 -0.000002 -0.003080)
  9:    305.30   0.014978   75.70  0.015310  ( 0.000191 -0.123734 -0.000102)
 10:    344.79   0.000251    1.27  0.000227  ( 0.008203  0.000107  0.012631)
 11:    346.47   0.002896   14.64  0.002609  ( 0.000099 -0.051077  0.000023)
 12:    422.34   0.000105    0.53  0.000078  (-0.004209 -0.000022  0.007752)
 13:    465.93   0.001693    8.55  0.001134  ( 0.015171  0.000005  0.030060)
 14:    470.66   0.002033   10.27  0.001348  ( 0.000044 -0.036714  0.000002)
 15:    749.26   0.000714    3.61  0.000297  (-0.001040 -0.000009  0.017209)
 16:    905.96   0.008652   43.72  0.002980  ( 0.005056  0.000006 -0.054357)
 17:    907.30   0.000001    0.01  0.000000  ( 0.000043  0.000531 -0.000454)
 18:    924.77   0.000890    4.50  0.000300  (-0.002633 -0.000009  0.017125)
 19:    954.28   0.000000    0.00  0.000000  (-0.000002 -0.000088  0.000020)
 20:   1027.29   0.002174   10.99  0.000660  (-0.004681 -0.000002 -0.025268)
 21:   1043.70   0.000318    1.61  0.000095  (-0.000013  0.009749 -0.000001)
 22:   1158.63   0.010474   52.93  0.002821  ( 0.005905 -0.000009  0.052783)
 23:   1219.96   0.008076   40.81  0.002066  (-0.010060 -0.000013  0.044323)
 24:   1252.52   0.004500   22.74  0.001121  ( 0.000042 -0.033482  0.000005)
 25:   1359.96   0.005407   27.32  0.001241  (-0.014441 -0.000032  0.032127)
 26:   1384.49   0.003355   16.95  0.000756  (-0.000037  0.027498  0.000001)
 27:   1392.41   0.006349   32.09  0.001423  (-0.035093 -0.000059  0.013837)
 28:   1415.49   0.000719    3.64  0.000159  ( 0.006775  0.000006  0.010616)
 29:   1463.13   0.000016    0.08  0.000003  (-0.000002  0.001836 -0.000003)
 30:   1472.28   0.000023    0.12  0.000005  (-0.000005  0.002206 -0.000001)
 31:   1476.35   0.000018    0.09  0.000004  ( 0.000606  0.000004 -0.001870)
 32:   1490.58   0.000808    4.08  0.000169  ( 0.000024 -0.013005 -0.000006)
 33:   1500.27   0.000883    4.46  0.000184  ( 0.010819  0.000013  0.008160)
 34:   1509.12   0.002231   11.27  0.000461  ( 0.000840  0.000008 -0.021462)
 35:   2999.96   0.004327   21.86  0.000450  (-0.000030 -0.021215 -0.000001)
 36:   3004.65   0.006552   33.11  0.000681  (-0.025854  0.000016  0.003478)
 37:   3020.18   0.002244   11.34  0.000232  ( 0.012895  0.000012  0.008102)
 38:   3072.75   0.000355    1.79  0.000036  ( 0.000038 -0.006004  0.000024)
 39:   3079.78   0.011978   60.53  0.001214  ( 0.024449  0.000016  0.024818)
 40:   3096.49   0.001611    8.14  0.000162  (-0.000071  0.012741  0.000046)
 41:   3097.90   0.001597    8.07  0.000161  (-0.011417 -0.000094  0.005527)
 42:   3105.37   0.006978   35.26  0.000701  ( 0.000232 -0.026477 -0.000389)
 43:   3105.99   0.009221   46.60  0.000926  ( 0.014350  0.000394 -0.026840)
 44:   3789.81   0.001765    8.92  0.000145  ( 0.006633  0.000010  0.010065)

--------------------------
THERMOCHEMISTRY AT 298.15K
--------------------------

Temperature         ...   298.15 K
Pressure            ...     1.00 atm
Total Mass          ...    74.12 AMU
Quasi RRHO          ...     True
Cut-Off Frequency   ...     1.00 cm^-1

Throughout the following assumptions are being made:
  (1) The electronic state is orbitally nondegenerate
  (2) There are no thermally accessible electronically excited states
  (3) Hindered rotations indicated by low frequency modes are not
      treated as such but are treated as vibrations and this may
      cause some error
  (4) All equations used are the standard statistical mechanics
      equations for an ideal gas
  (5) All vibrations are strictly harmonic

freq.     209.87  E(vib)   ...       0.34
freq.     271.20  E(vib)   ...       0.29
freq.     283.16  E(vib)   ...       0.28
freq.     305.30  E(vib)   ...       0.26
freq.     344.79  E(vib)   ...       0.23
freq.     346.47  E(vib)   ...       0.23
freq.     422.34  E(vib)   ...       0.18
freq.     465.93  E(vib)   ...       0.16
freq.     470.66  E(vib)   ...       0.15
freq.     749.26  E(vib)   ...       0.06
freq.     905.96  E(vib)   ...       0.03
freq.     907.30  E(vib)   ...       0.03
freq.     924.77  E(vib)   ...       0.03
freq.     954.28  E(vib)   ...       0.03
freq.    1027.29  E(vib)   ...       0.02
freq.    1043.70  E(vib)   ...       0.02
freq.    1158.63  E(vib)   ...       0.01
freq.    1219.96  E(vib)   ...       0.01
freq.    1252.52  E(vib)   ...       0.01
freq.    1359.96  E(vib)   ...       0.01
freq.    1384.49  E(vib)   ...       0.00
freq.    1392.41  E(vib)   ...       0.00
freq.    1415.49  E(vib)   ...       0.00
freq.    1463.13  E(vib)   ...       0.00
freq.    1472.28  E(vib)   ...       0.00
freq.    1476.35  E(vib)   ...       0.00
freq.    1490.58  E(vib)   ...       0.00
freq.    1500.27  E(vib)   ...       0.00
freq.    1509.12  E(vib)   ...       0.00
freq.    2999.96  E(vib)   ...       0.00
freq.    3004.65  E(vib)   ...       0.00
freq.    3020.18  E(vib)   ...       0.00
freq.    3072.75  E(vib)   ...       0.00
freq.    3079.78  E(vib)   ...       0.00
freq.    3096.49  E(vib)   ...       0.00
freq.    3097.90  E(vib)   ...       0.00
freq.    3105.37  E(vib)   ...       0.00
freq.    3105.99  E(vib)   ...       0.00
freq.    3789.81  E(vib)   ...       0.00

------------
INNER ENERGY
------------

The inner energy is: U= E(el) + E(ZPE) + E(vib) + E(rot) + E(trans)
    E(el)   - is the total energy from the electronic structure calculation
              = E(kin-el) + E(nuc-el) + E(el-el) + E(nuc-nuc)
    E(ZPE)  - the the zero temperature vibrational energy from the frequency calculation
    E(vib)  - the the finite temperature correction to E(ZPE) due to population
              of excited vibrational states
    E(rot)  - is the rotational thermal energy
    E(trans)- is the translational thermal energy

Summary of contributions to the inner energy U:
Electronic energy                ...   -233.62637026 Eh
Zero point energy                ...      0.13464055 Eh      84.49 kcal/mol
Thermal vibrational correction   ...      0.00384469 Eh       2.41 kcal/mol
Thermal rotational correction    ...      0.00141627 Eh       0.89 kcal/mol
Thermal translational correction ...      0.00141627 Eh       0.89 kcal/mol
-----------------------------------------------------------------------
Total thermal energy                   -233.48505247 Eh

Summary of corrections to the electronic energy:
(perhaps to be used in another calculation)
Total thermal correction                  0.00667724 Eh       4.19 kcal/mol
Non-thermal (ZPE) correction              0.13464055 Eh      84.49 kcal/mol
-----------------------------------------------------------------------
Total correction                          0.14131778 Eh      88.68 kcal/mol

--------
ENTHALPY
--------

The enthalpy is H = U + kB*T
                kB is Boltzmann's constant
Total thermal energy              ...   -233.48505247 Eh
Thermal Enthalpy correction       ...      0.00094421 Eh       0.59 kcal/mol
-----------------------------------------------------------------------
Total Enthalpy                    ...   -233.48410826 Eh

Note: Only C1 symmetry has been detected, increase convergence thresholds
      if your molecule has a higher symmetry. Symmetry factor of 1.0 is
      used for the rotational entropy correction.

Note: Rotational entropy computed according to Herzberg
Infrared and Raman Spectra, Chapter V,1, Van Nostrand Reinhold, 1945
Point Group:  C1, Symmetry Number:   1
Rotational constants in cm-1:     0.156653     0.155709     0.150492

Vibrational entropy computed according to the QRRHO of S. Grimme
Chem.Eur.J. 2012 18 9955 using a reference frequency of 100.0 cm-1

-------
ENTROPY
-------

The entropy contributions are T*S = T*(S(el)+S(vib)+S(rot)+S(trans))
     S(el)   - electronic entropy
     S(vib)  - vibrational entropy
     S(rot)  - rotational entropy
     S(trans)- translational entropy
The entropies will be listed as multiplied by the temperature to get
units of energy

Electronic entropy                ...      0.00000000 Eh      0.00 kcal/mol
Vibrational entropy               ...      0.00594034 Eh      3.73 kcal/mol
Rotational entropy                ...      0.01215798 Eh      7.63 kcal/mol
Translational entropy             ...      0.01844715 Eh     11.58 kcal/mol
-----------------------------------------------------------------------
Final entropy term                ...      0.03654547 Eh     22.93 kcal/mol

In case the symmetry of your molecule has not been determined correctly
or in case you have a reason to use a different symmetry number we print
out the resulting rotational entropy values for sn=1,12:

 non-linear molecules -----------------------------------
|  sn= 1 | S(rot)=       0.01215798 Eh      7.63 kcal/mol|
|  sn= 2 | S(rot)=       0.01150353 Eh      7.22 kcal/mol|
|  sn= 3 | S(rot)=       0.01112069 Eh      6.98 kcal/mol|
|  sn= 4 | S(rot)=       0.01084907 Eh      6.81 kcal/mol|
|  sn= 5 | S(rot)=       0.01063838 Eh      6.68 kcal/mol|
|  sn= 6 | S(rot)=       0.01046624 Eh      6.57 kcal/mol|
|  sn= 7 | S(rot)=       0.01032069 Eh      6.48 kcal/mol|
|  sn= 8 | S(rot)=       0.01019461 Eh      6.40 kcal/mol|
|  sn= 9 | S(rot)=       0.01008340 Eh      6.33 kcal/mol|
|  sn=10 | S(rot)=       0.00998392 Eh      6.26 kcal/mol|
|  sn=11 | S(rot)=       0.00989393 Eh      6.21 kcal/mol|
|  sn=12 | S(rot)=       0.00981178 Eh      6.16 kcal/mol|
 linear molecules ---------------------------------------
|  Dinfh | S(rot)=       0.00711394 Eh      4.46 kcal/mol|
|  Cinfv | S(rot)=       0.00776840 Eh      4.87 kcal/mol|
 --------------------------------------------------------

-------------------
GIBBS FREE ENERGY
-------------------

                             ****ORCA TERMINATED NORMALLY****
TOTAL RUN TIME: 0 days 0 hours 7 minutes 4 seconds 977 msec
