                         Program Version 6.0.1  -  RELEASE   -
|  1> ! pbe def2-sv(p) def2/J RI DEFGRID1 loosescf d4 GCP(DFT/SV(P)) printgap
|  2> %output
|  3>     printlevel normal
|  4> end
|  5> * xyz 0 1
|  6> C -3.3899698837 -0.5239879942 -0.1130385778
|  7> C -1.9087559255 -0.4177604725 -0.4569456473
|  8> H -1.7835683016 -0.464515863 -1.5453800951
|  9> C -1.0967049041 -1.5588180824 0.1729629234
| 10> C 0.3853536838 -1.4335351191 -0.1611647194
| 11> C 0.9319594973 -0.1006577026 0.3532008223
| 12> H 0.7534641445 -0.0508531523 1.43321327
| 13> C 0.1470690891 1.0531869822 -0.298797468
| 14> C -1.3240364706 0.9031519083 0.0101500118
| 15> O -1.959858524 1.743408621 0.5937745225
| 16> C 2.4147751831 0.0658864399 0.1208867944
| 17> C 3.2165072695 0.4460354248 1.1033800638
| 18> C 2.935684224 -0.2070271253 -1.2578767543
| 19> H -3.5292544438 -0.4649100186 0.9635912654
| 20> H -3.9411744118 0.2947447089 -0.5682925207
| 21> H -3.7984312078 -1.4665416054 -0.4698580993
| 22> H -1.2333950236 -1.5345549913 1.2567087919
| 23> H -1.4825818738 -2.514295608 -0.1893041746
| 24> H 0.9377205164 -2.2552035698 0.3000449145
| 25> H 0.5175904377 -1.4999021789 -1.2427108839
| 26> H 0.5029936291 2.0133207443 0.0782197739
| 27> H 0.2838796007 1.0265512427 -1.381555302
| 28> H 4.2739247942 0.5850395726 0.954009303
| 29> H 2.8504846314 0.6351581421 2.0983850117
| 30> H 2.8964524506 -1.2742525388 -1.4737404588
| 31> H 2.3439523603 0.3105850598 -2.0103990666
| 32> H 3.968363983 0.1196219033 -1.3454317916
| 33> *
| 34>
| 35>                          ****END OF INPUT****

CARTESIAN COORDINATES (ANGSTROEM)
---------------------------------
  C     -3.389970   -0.523988   -0.113039
  C     -1.908756   -0.417760   -0.456946
  H     -1.783568   -0.464516   -1.545380
  C     -1.096705   -1.558818    0.172963
  C      0.385354   -1.433535   -0.161165
  C      0.931959   -0.100658    0.353201
  H      0.753464   -0.050853    1.433213
  C      0.147069    1.053187   -0.298797
  C     -1.324036    0.903152    0.010150
  O     -1.959859    1.743409    0.593775
  C      2.414775    0.065886    0.120887
  C      3.216507    0.446035    1.103380
  C      2.935684   -0.207027   -1.257877
  H     -3.529254   -0.464910    0.963591
  H     -3.941174    0.294745   -0.568293
  H     -3.798431   -1.466542   -0.469858
  H     -1.233395   -1.534555    1.256709
  H     -1.482582   -2.514296   -0.189304
  H      0.937721   -2.255204    0.300045
  H      0.517590   -1.499902   -1.242711
  H      0.502994    2.013321    0.078220
  H      0.283880    1.026551   -1.381555
  H      4.273925    0.585040    0.954009
  H      2.850485    0.635158    2.098385
  H      2.896452   -1.274253   -1.473740
  H      2.343952    0.310585   -2.010399
  H      3.968364    0.119622   -1.345432

 Total Charge           Charge          ....    0
 Multiplicity           Mult            ....    1
 Number of Electrons    NEL             ....   84
 Basis Dimension        Dim             ....  186

ORBITAL ENERGIES
----------------

  NO   OCC          E(Eh)            E(eV)
   0   2.0000     -18.741742      -509.9887
   1   2.0000      -9.969645      -271.2878
   2   2.0000      -9.909697      -269.6566
   3   2.0000      -9.904694      -269.5204
   4   2.0000      -9.902563      -269.4624
   5   2.0000      -9.898407      -269.3494
   6   2.0000      -9.896186      -269.2889
   7   2.0000      -9.893710      -269.2215
   8   2.0000      -9.888022      -269.0668
   9   2.0000      -9.876865      -268.7632
  10   2.0000      -9.874981      -268.7119
  11   2.0000      -0.941769       -25.6268
  12   2.0000      -0.775038       -21.0898
  13   2.0000      -0.730895       -19.8887
  14   2.0000      -0.684961       -18.6387
  15   2.0000      -0.662559       -18.0291
  16   2.0000      -0.621743       -16.9185
  17   2.0000      -0.604190       -16.4408
  18   2.0000      -0.547690       -14.9034
  19   2.0000      -0.535904       -14.5827
  20   2.0000      -0.487628       -13.2690
  21   2.0000      -0.461561       -12.5597
  22   2.0000      -0.435894       -11.8613
  23   2.0000      -0.426035       -11.5930
  24   2.0000      -0.409295       -11.1375
  25   2.0000      -0.398705       -10.8493
  26   2.0000      -0.397130       -10.8065
  27   2.0000      -0.385308       -10.4848
  28   2.0000      -0.372605       -10.1391
  29   2.0000      -0.365193        -9.9374
  30   2.0000      -0.355076        -9.6621
  31   2.0000      -0.340959        -9.2780
  32   2.0000      -0.333062        -9.0631
  33   2.0000      -0.330685        -8.9984
  34   2.0000      -0.320902        -8.7322
  35   2.0000      -0.313316        -8.5258
  36   2.0000      -0.305148        -8.3035
  37   2.0000      -0.295516        -8.0414
  38   2.0000      -0.285978        -7.7819
  39   2.0000      -0.279024        -7.5926
  40   2.0000      -0.224145        -6.0993
  41   2.0000      -0.193018        -5.2523
  42   0.0000      -0.051624        -1.4048
  43   0.0000      -0.014490        -0.3943
  44   0.0000       0.034209         0.9309
  45   0.0000       0.042830         1.1655
  46   0.0000       0.048462         1.3187

MULLIKEN ATOMIC CHARGES
-----------------------
   0 C :   -0.190277
   1 C :   -0.211227
   2 H :    0.082647
   3 C :   -0.109798
   4 C :   -0.115180
   5 C :   -0.193938
   6 H :    0.065095
   7 C :   -0.050544
   8 C :    0.008961
   9 O :   -0.147551
  10 C :   -0.001078
  11 C :   -0.230527
  12 C :   -0.232026
  13 H :    0.100186
  14 H :    0.106685
  15 H :    0.091945
  16 H :    0.081750
  17 H :    0.091517
  18 H :    0.094516
  19 H :    0.080282
  20 H :    0.087057
  21 H :    0.090142
  22 H :    0.081403
  23 H :    0.087379
  24 H :    0.120300
  25 H :    0.111330
  26 H :    0.100952
Sum of atomic charges:   -0.0000000

LOEWDIN ATOMIC CHARGES
----------------------
   0 C :   -0.326218
   1 C :   -0.178213
   2 H :    0.130210
   3 C :   -0.206182
   4 C :   -0.216526
   5 C :   -0.124487
   6 H :    0.123534
   7 C :   -0.228695
   8 C :    0.050083
   9 O :   -0.115085
  10 C :   -0.049239
  11 C :   -0.262032
  12 C :   -0.323939
  13 H :    0.123626
  14 H :    0.125021
  15 H :    0.117167
  16 H :    0.120307
  17 H :    0.120833
  18 H :    0.123731
  19 H :    0.116388
  20 H :    0.130332
  21 H :    0.130331
  22 H :    0.117258
  23 H :    0.118284
  24 H :    0.131752
  25 H :    0.124206
  26 H :    0.127554

  Mayer bond orders larger than 0.100000
B(  0-C ,  1-C ) :   1.1217 B(  0-C , 13-H ) :   0.9443 B(  0-C , 14-H ) :   0.9458
B(  0-C , 15-H ) :   0.9450 B(  1-C ,  2-H ) :   0.8685 B(  1-C ,  3-C ) :   1.0804
B(  1-C ,  8-C ) :   0.9290 B(  3-C ,  4-C ) :   1.1336 B(  3-C , 16-H ) :   0.9043
B(  3-C , 17-H ) :   0.9150 B(  4-C ,  5-C ) :   1.0714 B(  4-C , 18-H ) :   0.9119
B(  4-C , 19-H ) :   0.8940 B(  5-C ,  6-H ) :   0.8784 B(  5-C ,  7-C ) :   1.0623
B(  5-C , 10-C ) :   1.0085 B(  7-C ,  8-C ) :   1.0403 B(  7-C , 20-H ) :   0.8922
B(  7-C , 21-H ) :   0.8750 B(  8-C ,  9-O ) :   2.2198 B( 10-C , 11-C ) :   2.0369
B( 10-C , 12-C ) :   1.1113 B( 11-C , 22-H ) :   0.9033 B( 11-C , 23-H ) :   0.9097
B( 12-C , 24-H ) :   0.9226 B( 12-C , 25-H ) :   0.9294 B( 12-C , 26-H ) :   0.9342

Dispersion correction           -0.028171140
FINAL SINGLE POINT ENERGY      -464.832146882929

DIPOLE MOMENT
-------------

Method             : SCF
Type of density    : Electron Density
Multiplicity       :   1
Irrep              :   0
Energy             :  -464.9182165617713736 Eh
Relativity type    :
Basis              : AO
                                X                 Y                 Z
Electronic contribution:     -2.799802118       5.270350670       2.367232386
Nuclear contribution   :      3.311205836      -6.109764244      -2.939383480
                        -----------------------------------------
Total Dipole Moment    :      0.511403717      -0.839413574      -0.572151095
                        -----------------------------------------
Magnitude (a.u.)       :      1.137323958
Magnitude (Debye)      :      2.890847762

Rotational constants in cm-1:             0.073132             0.022177             0.019489
Rotational constants in MHz :          2192.431236           664.844863           584.272310

                             ****ORCA TERMINATED NORMALLY****
TOTAL RUN TIME: 0 days 0 hours 0 minutes 26 seconds 446 msec
