                         Program Version 6.0.1  -  RELEASE   -
|  1> ! pbe def2-sv(p) def2/J RI DEFGRID1 loosescf d4 GCP(DFT/SV(P)) printgap
|  2> %output
|  3>     printlevel normal
|  4> end
|  5> * xyz 0 1
|  6> C 2.7557280012 -0.6387325632 0.4612826919
|  7> C 1.9497298879 0.329966936 -0.3965394064
|  8> C 0.4718605427 0.1866399485 -0.1853607736
|  9> C -0.4035718404 1.2648877967 -0.3372094338
| 10> N -1.7085914143 1.1412631259 -0.1757747564
| 11> C -2.1681916485 -0.0601852013 0.1451361547
| 12> C -1.3083250932 -1.1367423533 0.3040908136
| 13> N -0.0016177558 -1.0117625797 0.1378703488
| 14> H 2.4510094065 -1.6596411485 0.252727895
| 15> H 2.5858787439 -0.4400603982 1.5165917509
| 16> H 3.8173611628 -0.5333873337 0.2526687848
| 17> H 2.1579008162 0.1345916032 -1.4534307776
| 18> H 2.2422591903 1.3619022776 -0.1899019514
| 19> H -0.0462788047 2.2534576638 -0.5950929435
| 20> H -3.2377241148 -0.1474562891 0.2752546614
| 21> H -1.6626783915 -2.1235826233 0.5704213035
| 22> *
| 23>
| 24>                          ****END OF INPUT****

CARTESIAN COORDINATES (ANGSTROEM)
---------------------------------
  C      2.755728   -0.638733    0.461283
  C      1.949730    0.329967   -0.396539
  C      0.471861    0.186640   -0.185361
  C     -0.403572    1.264888   -0.337209
  N     -1.708591    1.141263   -0.175775
  C     -2.168192   -0.060185    0.145136
  C     -1.308325   -1.136742    0.304091
  N     -0.001618   -1.011763    0.137870
  H      2.451009   -1.659641    0.252728
  H      2.585879   -0.440060    1.516592
  H      3.817361   -0.533387    0.252669
  H      2.157901    0.134592   -1.453431
  H      2.242259    1.361902   -0.189902
  H     -0.046279    2.253458   -0.595093
  H     -3.237724   -0.147456    0.275255
  H     -1.662678   -2.123583    0.570421

 Total Charge           Charge          ....    0
 Multiplicity           Mult            ....    1
 Number of Electrons    NEL             ....   58
 Basis Dimension        Dim             ....  128

ORBITAL ENERGIES
----------------

  NO   OCC          E(Eh)            E(eV)
   0   2.0000     -14.000321      -380.9681
   1   2.0000     -13.999479      -380.9452
   2   2.0000      -9.943047      -270.5641
   3   2.0000      -9.932843      -270.2864
   4   2.0000      -9.930543      -270.2238
   5   2.0000      -9.929968      -270.2082
   6   2.0000      -9.899024      -269.3661
   7   2.0000      -9.876822      -268.7620
   8   2.0000      -0.899645       -24.4806
   9   2.0000      -0.825252       -22.4563
  10   2.0000      -0.728910       -19.8346
  11   2.0000      -0.673577       -18.3290
  12   2.0000      -0.599888       -16.3238
  13   2.0000      -0.593369       -16.1464
  14   2.0000      -0.537388       -14.6231
  15   2.0000      -0.476216       -12.9585
  16   2.0000      -0.465488       -12.6666
  17   2.0000      -0.427440       -11.6312
  18   2.0000      -0.416433       -11.3317
  19   2.0000      -0.391126       -10.6431
  20   2.0000      -0.380308       -10.3487
  21   2.0000      -0.354176        -9.6376
  22   2.0000      -0.335379        -9.1261
  23   2.0000      -0.314352        -8.5540
  24   2.0000      -0.313295        -8.5252
  25   2.0000      -0.298998        -8.1361
  26   2.0000      -0.251067        -6.8319
  27   2.0000      -0.244697        -6.6585
  28   2.0000      -0.198369        -5.3979
  29   0.0000      -0.077679        -2.1138
  30   0.0000      -0.056218        -1.5298
  31   0.0000       0.046012         1.2521
  32   0.0000       0.067890         1.8474
  33   0.0000       0.069633         1.8948

MULLIKEN ATOMIC CHARGES
-----------------------
   0 C :   -0.267622
   1 C :   -0.121291
   2 C :   -0.074024
   3 C :   -0.070193
   4 N :   -0.035831
   5 C :   -0.061922
   6 C :   -0.049557
   7 N :   -0.055673
   8 H :    0.119942
   9 H :    0.101610
  10 H :    0.099821
  11 H :    0.110820
  12 H :    0.091246
  13 H :    0.060937
  14 H :    0.076804
  15 H :    0.074934
Sum of atomic charges:   -0.0000000

LOEWDIN ATOMIC CHARGES
----------------------
   0 C :   -0.337582
   1 C :   -0.229391
   2 C :   -0.024328
   3 C :   -0.095919
   4 N :   -0.048746
   5 C :   -0.104411
   6 C :   -0.094603
   7 N :   -0.050656
   8 H :    0.126299
   9 H :    0.120742
  10 H :    0.118947
  11 H :    0.137861
  12 H :    0.125259
  13 H :    0.117728
  14 H :    0.119531
  15 H :    0.119270

  Mayer bond orders larger than 0.100000
B(  0-C ,  1-C ) :   1.1650 B(  0-C ,  8-H ) :   0.9405 B(  0-C ,  9-H ) :   0.9594
B(  0-C , 10-H ) :   0.9483 B(  1-C ,  2-C ) :   1.0497 B(  1-C , 11-H ) :   0.8920
B(  1-C , 12-H ) :   0.9161 B(  2-C ,  3-C ) :   1.3421 B(  2-C ,  5-C ) :   0.1019
B(  2-C ,  7-N ) :   1.5378 B(  3-C ,  4-N ) :   1.5749 B(  3-C , 13-H ) :   0.9479
B(  4-N ,  5-C ) :   1.5362 B(  5-C ,  6-C ) :   1.3597 B(  5-C , 14-H ) :   0.9474
B(  6-C ,  7-N ) :   1.5323 B(  6-C , 15-H ) :   0.9459

Dispersion correction           -0.015122044
FINAL SINGLE POINT ENERGY      -342.198933549681

DIPOLE MOMENT
-------------

Method             : SCF
Type of density    : Electron Density
Multiplicity       :   1
Irrep              :   0
Energy             :  -342.2473286766334013 Eh
Relativity type    :
Basis              : AO
                                X                 Y                 Z
Electronic contribution:     -7.562007725       1.026250510      -0.629717716
Nuclear contribution   :      7.784674880      -1.082102500       0.590124621
                        -----------------------------------------
Total Dipole Moment    :      0.222667155      -0.055851991      -0.039593095
                        -----------------------------------------
Magnitude (a.u.)       :      0.232954330
Magnitude (Debye)      :      0.592122851

Rotational constants in cm-1:             0.169765             0.052717             0.041529
Rotational constants in MHz :          5089.424262          1580.419268          1245.011303

                             ****ORCA TERMINATED NORMALLY****
TOTAL RUN TIME: 0 days 0 hours 0 minutes 5 seconds 13 msec
