                         Program Version 6.0.1  -  RELEASE   -
|  1> ! pbe def2-sv(p) def2/J RI DEFGRID1 loosescf d4 GCP(DFT/SV(P)) printgap
|  2> %output
|  3>     printlevel normal
|  4> end
|  5> * xyz 0 1
|  6> C -2.5154148186 -0.9949547153 0.3591551805
|  7> C -1.0906261622 -0.4866318007 0.6229240165
|  8> H -0.924876823 -0.4173389284 1.709553368
|  9> C -0.8386794748 0.8943116985 -0.0107354717
| 10> H -1.0174180045 0.8220569907 -1.0941746775
| 11> C 0.6244108419 1.2780831088 0.22592398
| 12> H 0.780475699 1.3932467613 1.3111816054
| 13> C 1.5565118698 0.1794415091 -0.296982998
| 14> H 1.433918981 0.1176729522 -1.3935343339
| 15> C 1.1597799761 -1.1774822646 0.3168869251
| 16> H 1.3397166936 -1.1486149432 1.4020604391
| 17> O -0.2097467557 -1.431771976 0.0521935562
| 18> O 1.8916490929 -2.2323593166 -0.1654303273
| 19> O 2.8879714642 0.452191091 0.0319629679
| 20> O 0.9608583229 2.4745621949 -0.4344857737
| 21> O -1.6336172108 1.9109877929 0.5531399582
| 22> O -2.8281238283 -0.9964156471 -1.0066850322
| 23> H -3.2427903037 -0.3440321299 0.8494580777
| 24> H -2.6015166114 -2.0030048159 0.7839513202
| 25> H 1.8162134243 -2.2633209361 -1.1275182223
| 26> H 3.0565253901 1.3739564333 -0.203700247
| 27> H 0.2838547644 3.1240550685 -0.2084761166
| 28> H -2.5509076515 1.7598477914 0.3003166604
| 29> H -2.1859334887 -1.5660579095 -1.4472403515
| 30> *
| 31>
| 32>                          ****END OF INPUT****

CARTESIAN COORDINATES (ANGSTROEM)
---------------------------------
  C     -2.515415   -0.994955    0.359155
  C     -1.090626   -0.486632    0.622924
  H     -0.924877   -0.417339    1.709553
  C     -0.838679    0.894312   -0.010735
  H     -1.017418    0.822057   -1.094175
  C      0.624411    1.278083    0.225924
  H      0.780476    1.393247    1.311182
  C      1.556512    0.179442   -0.296983
  H      1.433919    0.117673   -1.393534
  C      1.159780   -1.177482    0.316887
  H      1.339717   -1.148615    1.402060
  O     -0.209747   -1.431772    0.052194
  O      1.891649   -2.232359   -0.165430
  O      2.887971    0.452191    0.031963
  O      0.960858    2.474562   -0.434486
  O     -1.633617    1.910988    0.553140
  O     -2.828124   -0.996416   -1.006685
  H     -3.242790   -0.344032    0.849458
  H     -2.601517   -2.003005    0.783951
  H      1.816213   -2.263321   -1.127518
  H      3.056525    1.373956   -0.203700
  H      0.283855    3.124055   -0.208476
  H     -2.550908    1.759848    0.300317
  H     -2.185933   -1.566058   -1.447240

 Total Charge           Charge          ....    0
 Multiplicity           Mult            ....    1
 Number of Electrons    NEL             ....   96
 Basis Dimension        Dim             ....  192

ORBITAL ENERGIES
----------------

  NO   OCC          E(Eh)            E(eV)
   0   2.0000     -18.778165      -510.9798
   1   2.0000     -18.770808      -510.7797
   2   2.0000     -18.760657      -510.5034
   3   2.0000     -18.760551      -510.5005
   4   2.0000     -18.757912      -510.4287
   5   2.0000     -18.748542      -510.1738
   6   2.0000      -9.989443      -271.8266
   7   2.0000      -9.949417      -270.7374
   8   2.0000      -9.946426      -270.6560
   9   2.0000      -9.945058      -270.6188
  10   2.0000      -9.944312      -270.5985
  11   2.0000      -9.943288      -270.5706
  12   2.0000      -0.988542       -26.8996
  13   2.0000      -0.955103       -25.9897
  14   2.0000      -0.944052       -25.6890
  15   2.0000      -0.935274       -25.4501
  16   2.0000      -0.921691       -25.0805
  17   2.0000      -0.916664       -24.9437
  18   2.0000      -0.707962       -19.2646
  19   2.0000      -0.694126       -18.8881
  20   2.0000      -0.627404       -17.0725
  21   2.0000      -0.585927       -15.9439
  22   2.0000      -0.566654       -15.4194
  23   2.0000      -0.539848       -14.6900
  24   2.0000      -0.505451       -13.7540
  25   2.0000      -0.499918       -13.6035
  26   2.0000      -0.479518       -13.0484
  27   2.0000      -0.460427       -12.5289
  28   2.0000      -0.445134       -12.1127
  29   2.0000      -0.440144       -11.9769
  30   2.0000      -0.424616       -11.5544
  31   2.0000      -0.411685       -11.2025
  32   2.0000      -0.388427       -10.5696
  33   2.0000      -0.386281       -10.5112
  34   2.0000      -0.367248        -9.9933
  35   2.0000      -0.359393        -9.7796
  36   2.0000      -0.331693        -9.0258
  37   2.0000      -0.316729        -8.6186
  38   2.0000      -0.311432        -8.4745
  39   2.0000      -0.301116        -8.1938
  40   2.0000      -0.290387        -7.9018
  41   2.0000      -0.279836        -7.6147
  42   2.0000      -0.257424        -7.0049
  43   2.0000      -0.242780        -6.6064
  44   2.0000      -0.234898        -6.3919
  45   2.0000      -0.230917        -6.2836
  46   2.0000      -0.220602        -6.0029
  47   2.0000      -0.214247        -5.8300
  48   0.0000       0.008736         0.2377
  49   0.0000       0.024345         0.6625
  50   0.0000       0.026555         0.7226
  51   0.0000       0.045427         1.2361
  52   0.0000       0.052332         1.4240

MULLIKEN ATOMIC CHARGES
-----------------------
   0 C :    0.070669
   1 C :   -0.031769
   2 H :    0.057222
   3 C :    0.052428
   4 H :    0.051955
   5 C :    0.051439
   6 H :    0.058165
   7 C :    0.038557
   8 H :    0.038621
   9 C :    0.205699
  10 H :    0.057819
  11 O :   -0.316131
  12 O :   -0.357454
  13 O :   -0.405222
  14 O :   -0.425085
  15 O :   -0.422986
  16 O :   -0.435291
  17 H :    0.078224
  18 H :    0.094501
  19 H :    0.300795
  20 H :    0.309847
  21 H :    0.310518
  22 H :    0.314302
  23 H :    0.303177
Sum of atomic charges:   -0.0000000

LOEWDIN ATOMIC CHARGES
----------------------
   0 C :   -0.128890
   1 C :   -0.082898
   2 H :    0.107112
   3 C :   -0.083912
   4 H :    0.103225
   5 C :   -0.078664
   6 H :    0.105128
   7 C :   -0.088003
   8 H :    0.097232
   9 C :    0.008300
  10 H :    0.103495
  11 O :   -0.162051
  12 O :   -0.272415
  13 O :   -0.313086
  14 O :   -0.325773
  15 O :   -0.319152
  16 O :   -0.332190
  17 H :    0.109947
  18 H :    0.108994
  19 H :    0.287657
  20 H :    0.288854
  21 H :    0.289140
  22 H :    0.292734
  23 H :    0.285218

  Mayer bond orders larger than 0.100000
B(  0-C ,  1-C ) :   1.0394 B(  0-C , 16-O ) :   1.0677 B(  0-C , 17-H ) :   0.9142
B(  0-C , 18-H ) :   0.9184 B(  1-C ,  2-H ) :   0.8663 B(  1-C ,  3-C ) :   0.9844
B(  1-C , 11-O ) :   0.9859 B(  3-C ,  4-H ) :   0.8645 B(  3-C ,  5-C ) :   1.0143
B(  3-C , 15-O ) :   1.0636 B(  5-C ,  6-H ) :   0.8756 B(  5-C ,  7-C ) :   1.0255
B(  5-C , 14-O ) :   1.0779 B(  7-C ,  8-H ) :   0.8555 B(  7-C ,  9-C ) :   0.9956
B(  7-C , 13-O ) :   1.0947 B(  9-C , 10-H ) :   0.8787 B(  9-C , 11-O ) :   0.9816
B(  9-C , 12-O ) :   1.1772 B( 12-O , 19-H ) :   0.8442 B( 13-O , 20-H ) :   0.8368
B( 14-O , 21-H ) :   0.8347 B( 15-O , 22-H ) :   0.8410 B( 16-O , 23-H ) :   0.8420

Dispersion correction           -0.024015499
FINAL SINGLE POINT ENERGY      -685.702301116206

DIPOLE MOMENT
-------------

Method             : SCF
Type of density    : Electron Density
Multiplicity       :   1
Irrep              :   0
Energy             :  -685.8328247462694662 Eh
Relativity type    :
Basis              : AO
                                X                 Y                 Z
Electronic contribution:      2.792916132      -0.415379946      -1.065135153
Nuclear contribution   :     -3.561160235       0.798630802       0.812991384
                        -----------------------------------------
Total Dipole Moment    :     -0.768244103       0.383250856      -0.252143770
                        -----------------------------------------
Magnitude (a.u.)       :      0.894794223
Magnitude (Debye)      :      2.274386165

Rotational constants in cm-1:             0.039559             0.027027             0.017673
Rotational constants in MHz :          1185.952006           810.242204           529.821715

                             ****ORCA TERMINATED NORMALLY****
TOTAL RUN TIME: 0 days 0 hours 0 minutes 7 seconds 606 msec
