                         Program Version 6.0.1  -  RELEASE   -
|  1> ! pbe def2-sv(p) def2/J RI DEFGRID1 loosescf d4 GCP(DFT/SV(P)) printgap
|  2> %output
|  3>     printlevel normal
|  4> end
|  5> * xyz 0 1
|  6> C -2.3330886613 -0.5916853036 -0.0114561056
|  7> O -0.9140149939 -0.6144743573 -0.0017281726
|  8> C -0.2867379267 0.5736724053 0.0053107632
|  9> O -0.8636042627 1.631987468 0.0149099931
| 10> C 1.187927318 0.4326914048 0.0081734048
| 11> C 1.8354664819 -0.719923096 0.7357075562
| 12> C 1.8380108873 -0.6987131313 -0.7500327843
| 13> H -2.6953301102 -0.6062315912 -1.0416008428
| 14> H -2.69764708 0.310274459 0.4837722484
| 15> H -2.6682410562 -1.4833761578 0.5145691598
| 16> H 1.6878192619 1.3922064568 0.0222054887
| 17> H 2.7546160288 -0.5177947142 1.2638110836
| 18> H 1.180585255 -1.418557582 1.2319611887
| 19> H 2.7588158206 -0.4816161208 -1.2692269506
| 20> H 1.1847365629 -1.3828828009 -1.2681959714
| 21> *
| 22>
| 23>                          ****END OF INPUT****

CARTESIAN COORDINATES (ANGSTROEM)
---------------------------------
  C     -2.333089   -0.591685   -0.011456
  O     -0.914015   -0.614474   -0.001728
  C     -0.286738    0.573672    0.005311
  O     -0.863604    1.631987    0.014910
  C      1.187927    0.432691    0.008173
  C      1.835466   -0.719923    0.735708
  C      1.838011   -0.698713   -0.750033
  H     -2.695330   -0.606232   -1.041601
  H     -2.697647    0.310274    0.483772
  H     -2.668241   -1.483376    0.514569
  H      1.687819    1.392206    0.022205
  H      2.754616   -0.517795    1.263811
  H      1.180585   -1.418558    1.231961
  H      2.758816   -0.481616   -1.269227
  H      1.184737   -1.382883   -1.268196

 Total Charge           Charge          ....    0
 Multiplicity           Mult            ....    1
 Number of Electrons    NEL             ....   54
 Basis Dimension        Dim             ....  114

ORBITAL ENERGIES
----------------

  NO   OCC          E(Eh)            E(eV)
   0   2.0000     -18.798152      -511.5237
   1   2.0000     -18.732297      -509.7317
   2   2.0000     -10.004530      -272.2371
   3   2.0000      -9.937879      -270.4234
   4   2.0000      -9.912352      -269.7288
   5   2.0000      -9.903604      -269.4908
   6   2.0000      -9.903443      -269.4864
   7   2.0000      -1.003841       -27.3159
   8   2.0000      -0.912263       -24.8239
   9   2.0000      -0.797029       -21.6883
  10   2.0000      -0.666639       -18.1402
  11   2.0000      -0.577357       -15.7107
  12   2.0000      -0.545519       -14.8443
  13   2.0000      -0.507371       -13.8063
  14   2.0000      -0.469238       -12.7686
  15   2.0000      -0.447303       -12.1717
  16   2.0000      -0.431377       -11.7384
  17   2.0000      -0.405891       -11.0449
  18   2.0000      -0.384231       -10.4554
  19   2.0000      -0.359635        -9.7862
  20   2.0000      -0.343544        -9.3483
  21   2.0000      -0.329221        -8.9586
  22   2.0000      -0.305268        -8.3068
  23   2.0000      -0.284335        -7.7371
  24   2.0000      -0.267613        -7.2821
  25   2.0000      -0.255596        -6.9551
  26   2.0000      -0.217849        -5.9280
  27   0.0000      -0.019389        -0.5276
  28   0.0000       0.042194         1.1481
  29   0.0000       0.049622         1.3503
  30   0.0000       0.071385         1.9425
  31   0.0000       0.088832         2.4172

MULLIKEN ATOMIC CHARGES
-----------------------
   0 C :   -0.123757
   1 O :   -0.262085
   2 C :    0.180085
   3 O :   -0.185395
   4 C :   -0.196617
   5 C :   -0.185033
   6 C :   -0.186196
   7 H :    0.117095
   8 H :    0.128942
   9 H :    0.118993
  10 H :    0.105134
  11 H :    0.119354
  12 H :    0.125137
  13 H :    0.119435
  14 H :    0.124909
Sum of atomic charges:    0.0000000

LOEWDIN ATOMIC CHARGES
----------------------
   0 C :   -0.209879
   1 O :   -0.085133
   2 C :    0.043016
   3 O :   -0.157600
   4 C :   -0.168409
   5 C :   -0.222316
   6 C :   -0.222162
   7 H :    0.116914
   8 H :    0.122189
   9 H :    0.118517
  10 H :    0.139615
  11 H :    0.130810
  12 H :    0.131894
  13 H :    0.130769
  14 H :    0.131774

  Mayer bond orders larger than 0.100000
B(  0-C ,  1-O ) :   0.9497 B(  0-C ,  7-H ) :   0.9589 B(  0-C ,  8-H ) :   0.9355
B(  0-C ,  9-H ) :   0.9602 B(  1-O ,  2-C ) :   1.1876 B(  2-C ,  3-O ) :   2.0841
B(  2-C ,  4-C ) :   1.0439 B(  4-C ,  5-C ) :   0.9592 B(  4-C ,  6-C ) :   0.9618
B(  4-C , 10-H ) :   0.9184 B(  5-C ,  6-C ) :   1.0873 B(  5-C , 11-H ) :   0.9275
B(  5-C , 12-H ) :   0.9255 B(  6-C , 13-H ) :   0.9277 B(  6-C , 14-H ) :   0.9256

Dispersion correction           -0.011088922
FINAL SINGLE POINT ENERGY      -345.029568928366

DIPOLE MOMENT
-------------

Method             : SCF
Type of density    : Electron Density
Multiplicity       :   1
Irrep              :   0
Energy             :  -345.0862311486628187 Eh
Relativity type    :
Basis              : AO
                                X                 Y                 Z
Electronic contribution:     -1.236814216       3.149357142       0.050554780
Nuclear contribution   :      1.385933677      -3.913951784      -0.058632154
                        -----------------------------------------
Total Dipole Moment    :      0.149119461      -0.764594642      -0.008077374
                        -----------------------------------------
Magnitude (a.u.)       :      0.779042248
Magnitude (Debye)      :      1.980168027

Rotational constants in cm-1:             0.171869             0.065555             0.053901
Rotational constants in MHz :          5152.505412          1965.288502          1615.899682

                             ****ORCA TERMINATED NORMALLY****
TOTAL RUN TIME: 0 days 0 hours 0 minutes 9 seconds 968 msec
