                         Program Version 6.0.1  -  RELEASE   -
|  1> ! r2scan-3c def2/J RI DEFGRID2 scfconv6 printgap
|  2> %output
|  3>     printlevel normal
|  4> end
|  5> * xyz 0 1
|  6> C -1.9544221564 0.5342910391 0.8986890131
|  7> O -1.2049591858 -0.3170821852 0.056944566
|  8> S 0.3594022586 0.021950225 -0.1747750669
|  9> O 0.8013075645 0.8956797489 0.8688417959
| 10> O 0.5662470836 0.4215249105 -1.5281137887
| 11> C 1.0288405081 -1.6271480706 0.063813776
| 12> H -1.2731242825 1.0992255398 1.5377100918
| 13> H -2.6123096652 -0.0902429631 1.5040784022
| 14> H -2.5486523475 1.2239737988 0.2957654939
| 15> H 0.4810703401 -2.2888255318 -0.5916222549
| 16> H 2.0780457837 -1.6038177492 -0.1978872049
| 17> H 0.8918318902 -1.8910402706 1.1026599848
| 18> *
| 19>
| 20>                          ****END OF INPUT****

CARTESIAN COORDINATES (ANGSTROEM)
---------------------------------
  C     -1.954422    0.534291    0.898689
  O     -1.204959   -0.317082    0.056945
  S      0.359402    0.021950   -0.174775
  O      0.801308    0.895680    0.868842
  O      0.566247    0.421525   -1.528114
  C      1.028841   -1.627148    0.063814
  H     -1.273124    1.099226    1.537710
  H     -2.612310   -0.090243    1.504078
  H     -2.548652    1.223974    0.295765
  H      0.481070   -2.288826   -0.591622
  H      2.078046   -1.603818   -0.197887
  H      0.891832   -1.891040    1.102660

 Total Charge           Charge          ....    0
 Multiplicity           Mult            ....    1
 Number of Electrons    NEL             ....   58
 Basis Dimension        Dim             ....  167

ORBITAL ENERGIES
----------------

  NO   OCC          E(Eh)            E(eV)
   0   2.0000     -88.790127     -2416.1022
   1   2.0000     -19.008228      -517.2402
   2   2.0000     -18.954480      -515.7776
   3   2.0000     -18.951125      -515.6863
   4   2.0000     -10.095847      -274.7220
   5   2.0000     -10.079195      -274.2688
   6   2.0000      -8.057860      -219.2655
   7   2.0000      -6.005335      -163.4135
   8   2.0000      -6.001871      -163.3192
   9   2.0000      -6.001178      -163.3004
  10   2.0000      -1.122102       -30.5340
  11   2.0000      -1.020912       -27.7804
  12   2.0000      -0.989495       -26.9255
  13   2.0000      -0.760935       -20.7061
  14   2.0000      -0.694157       -18.8890
  15   2.0000      -0.576460       -15.6863
  16   2.0000      -0.514346       -13.9961
  17   2.0000      -0.480338       -13.0707
  18   2.0000      -0.465882       -12.6773
  19   2.0000      -0.435471       -11.8498
  20   2.0000      -0.432355       -11.7650
  21   2.0000      -0.415693       -11.3116
  22   2.0000      -0.406557       -11.0630
  23   2.0000      -0.361906        -9.8480
  24   2.0000      -0.321303        -8.7431
  25   2.0000      -0.308150        -8.3852
  26   2.0000      -0.298351        -8.1185
  27   2.0000      -0.290640        -7.9087
  28   2.0000      -0.270081        -7.3493
  29   0.0000       0.018281         0.4974
  30   0.0000       0.051360         1.3976
  31   0.0000       0.054727         1.4892
  32   0.0000       0.079249         2.1565
  33   0.0000       0.096441         2.6243

MULLIKEN ATOMIC CHARGES
-----------------------
   0 C :   -0.283037
   1 O :   -0.228413
   2 S :    0.979260
   3 O :   -0.550027
   4 O :   -0.499412
   5 C :   -0.459243
   6 H :    0.184564
   7 H :    0.149033
   8 H :    0.153359
   9 H :    0.185869
  10 H :    0.186344
  11 H :    0.181702
Sum of atomic charges:    0.0000000

LOEWDIN ATOMIC CHARGES
----------------------
   0 C :   -0.049735
   1 O :   -0.620009
   2 S :    0.820245
   3 O :   -0.467913
   4 O :   -0.425490
   5 C :   -0.341256
   6 H :    0.193907
   7 H :    0.173272
   8 H :    0.168633
   9 H :    0.184640
  10 H :    0.183323
  11 H :    0.180385

  Mayer bond orders larger than 0.100000
B(  0-C ,  1-O ) :   0.8214 B(  0-C ,  6-H ) :   0.9578 B(  0-C ,  7-H ) :   0.9667
B(  0-C ,  8-H ) :   0.9651 B(  1-O ,  2-S ) :   0.8703 B(  2-S ,  3-O ) :   1.6646
B(  2-S ,  4-O ) :   1.7508 B(  2-S ,  5-C ) :   0.9432 B(  5-C ,  9-H ) :   0.9316
B(  5-C , 10-H ) :   0.9317 B(  5-C , 11-H ) :   0.9343

Dispersion correction           -0.003054953
FINAL SINGLE POINT ENERGY      -703.551190519502

DIPOLE MOMENT
-------------

Method             : SCF
Type of density    : Electron Density
Multiplicity       :   1
Irrep              :   0
Energy             :  -703.5677896165392440 Eh
Relativity type    :
Basis              : AO
                                X                 Y                 Z
Electronic contribution:      2.326107390       2.265325675      -2.706226597
Nuclear contribution   :     -2.806691117      -3.317014128       3.421125427
                        -----------------------------------------
Total Dipole Moment    :     -0.480583727      -1.051688453       0.714898830
                        -----------------------------------------
Magnitude (a.u.)       :      1.359444614
Magnitude (Debye)      :      3.455433600

Rotational constants in cm-1:             0.151132             0.086568             0.082628
Rotational constants in MHz :          4530.818976          2595.239563          2477.120677

                             ****ORCA TERMINATED NORMALLY****
TOTAL RUN TIME: 0 days 0 hours 0 minutes 11 seconds 336 msec
