                         Program Version 6.0.1  -  RELEASE   -
|  1> ! pbe def2-sv(p) def2/J RI DEFGRID1 loosescf d4 GCP(DFT/SV(P)) printgap
|  2> %output
|  3>     printlevel normal
|  4> end
|  5> * xyz 0 1
|  6> C -2.236767006 -1.0778280323 0.4134753241
|  7> C -0.9387965689 -0.3785821755 0.8716871196
|  8> H -1.0324361939 -0.0959643835 1.9295353575
|  9> C -0.7145851823 0.8971935773 0.0375290923
| 10> H -1.1161446582 0.7059103486 -0.9720896738
| 11> C 0.760365724 1.328942707 -0.1246095951
| 12> H 0.9432733226 2.1610613509 0.5675559998
| 13> C 1.7831715436 0.2126077198 0.1814851082
| 14> H 2.6595976658 0.3863312575 -0.4503787738
| 15> C 1.1262264471 -1.1312153078 -0.1476357949
| 16> H 1.8159985393 -1.9665168591 0.031270589
| 17> O 0.106099065 -1.3484487741 0.7974558028
| 18> O 0.6707259014 -1.2076674708 -1.4609701772
| 19> O 2.2201695811 0.2283799824 1.5078211078
| 20> O 0.993898515 1.7181796512 -1.464609551
| 21> O -1.3901813788 1.9929100301 0.6173180499
| 22> O -2.2380074742 -1.3192832634 -0.9643640825
| 23> H -3.107560633 -0.4508736749 0.6242574327
| 24> H -2.3296678311 -2.0143280198 0.9798061109
| 25> H 0.7004136149 -0.3302846461 -1.8723625498
| 26> H 1.5665881245 -0.2389782539 2.0469047385
| 27> H 0.493881727 2.5216330753 -1.6474253802
| 28> H -2.3356649767 1.8089700747 0.6385551691
| 29> H -1.3895466688 -1.7298099667 -1.2006861672
| 30> *
| 31>
| 32>                          ****END OF INPUT****

CARTESIAN COORDINATES (ANGSTROEM)
---------------------------------
  C     -2.236767   -1.077828    0.413475
  C     -0.938797   -0.378582    0.871687
  H     -1.032436   -0.095964    1.929535
  C     -0.714585    0.897194    0.037529
  H     -1.116145    0.705910   -0.972090
  C      0.760366    1.328943   -0.124610
  H      0.943273    2.161061    0.567556
  C      1.783172    0.212608    0.181485
  H      2.659598    0.386331   -0.450379
  C      1.126226   -1.131215   -0.147636
  H      1.815999   -1.966517    0.031271
  O      0.106099   -1.348449    0.797456
  O      0.670726   -1.207667   -1.460970
  O      2.220170    0.228380    1.507821
  O      0.993899    1.718180   -1.464610
  O     -1.390181    1.992910    0.617318
  O     -2.238007   -1.319283   -0.964364
  H     -3.107561   -0.450874    0.624257
  H     -2.329668   -2.014328    0.979806
  H      0.700414   -0.330285   -1.872363
  H      1.566588   -0.238978    2.046905
  H      0.493882    2.521633   -1.647425
  H     -2.335665    1.808970    0.638555
  H     -1.389547   -1.729810   -1.200686

 Total Charge           Charge          ....    0
 Multiplicity           Mult            ....    1
 Number of Electrons    NEL             ....   96
 Basis Dimension        Dim             ....  192

ORBITAL ENERGIES
----------------

  NO   OCC          E(Eh)            E(eV)
   0   2.0000     -18.782413      -511.0954
   1   2.0000     -18.776465      -510.9336
   2   2.0000     -18.776343      -510.9303
   3   2.0000     -18.766275      -510.6563
   4   2.0000     -18.757421      -510.4154
   5   2.0000     -18.746232      -510.1109
   6   2.0000      -9.994359      -271.9603
   7   2.0000      -9.952776      -270.8288
   8   2.0000      -9.951983      -270.8072
   9   2.0000      -9.950896      -270.7776
  10   2.0000      -9.949704      -270.7452
  11   2.0000      -9.938703      -270.4459
  12   2.0000      -0.996370       -27.1126
  13   2.0000      -0.955636       -26.0042
  14   2.0000      -0.942097       -25.6358
  15   2.0000      -0.938582       -25.5401
  16   2.0000      -0.928080       -25.2543
  17   2.0000      -0.918552       -24.9951
  18   2.0000      -0.710216       -19.3259
  19   2.0000      -0.697086       -18.9687
  20   2.0000      -0.628272       -17.0962
  21   2.0000      -0.604638       -16.4530
  22   2.0000      -0.568352       -15.4657
  23   2.0000      -0.528783       -14.3889
  24   2.0000      -0.521055       -14.1786
  25   2.0000      -0.497404       -13.5351
  26   2.0000      -0.483919       -13.1681
  27   2.0000      -0.476671       -12.9709
  28   2.0000      -0.455868       -12.4048
  29   2.0000      -0.440399       -11.9839
  30   2.0000      -0.418682       -11.3929
  31   2.0000      -0.403624       -10.9832
  32   2.0000      -0.392756       -10.6874
  33   2.0000      -0.379333       -10.3222
  34   2.0000      -0.369981       -10.0677
  35   2.0000      -0.360564        -9.8114
  36   2.0000      -0.350064        -9.5257
  37   2.0000      -0.326322        -8.8797
  38   2.0000      -0.308115        -8.3842
  39   2.0000      -0.301345        -8.2000
  40   2.0000      -0.294697        -8.0191
  41   2.0000      -0.279077        -7.5941
  42   2.0000      -0.272309        -7.4099
  43   2.0000      -0.254098        -6.9143
  44   2.0000      -0.239618        -6.5203
  45   2.0000      -0.233409        -6.3514
  46   2.0000      -0.225444        -6.1346
  47   2.0000      -0.210491        -5.7278
  48   0.0000       0.008838         0.2405
  49   0.0000       0.013980         0.3804
  50   0.0000       0.030133         0.8200
  51   0.0000       0.054550         1.4844
  52   0.0000       0.062317         1.6957

MULLIKEN ATOMIC CHARGES
-----------------------
   0 C :    0.081388
   1 C :   -0.041077
   2 H :    0.069937
   3 C :    0.039941
   4 H :    0.058317
   5 C :    0.030940
   6 H :    0.084943
   7 C :    0.042061
   8 H :    0.094927
   9 C :    0.161483
  10 H :    0.084532
  11 O :   -0.319192
  12 O :   -0.407127
  13 O :   -0.409860
  14 O :   -0.417030
  15 O :   -0.416411
  16 O :   -0.439451
  17 H :    0.066329
  18 H :    0.088011
  19 H :    0.318084
  20 H :    0.305204
  21 H :    0.314468
  22 H :    0.303333
  23 H :    0.306249
Sum of atomic charges:    0.0000000

LOEWDIN ATOMIC CHARGES
----------------------
   0 C :   -0.127245
   1 C :   -0.092150
   2 H :    0.110931
   3 C :   -0.090942
   4 H :    0.103929
   5 C :   -0.073405
   6 H :    0.120413
   7 C :   -0.086907
   8 H :    0.125007
   9 C :   -0.010382
  10 H :    0.110713
  11 O :   -0.148150
  12 O :   -0.298208
  13 O :   -0.303923
  14 O :   -0.315371
  15 O :   -0.318292
  16 O :   -0.334629
  17 H :    0.103642
  18 H :    0.106176
  19 H :    0.282160
  20 H :    0.281709
  21 H :    0.295721
  22 H :    0.285242
  23 H :    0.273960

  Mayer bond orders larger than 0.100000
B(  0-C ,  1-C ) :   1.0371 B(  0-C , 16-O ) :   1.0950 B(  0-C , 17-H ) :   0.9168
B(  0-C , 18-H ) :   0.9066 B(  1-C ,  2-H ) :   0.8827 B(  1-C ,  3-C ) :   1.0071
B(  1-C , 11-O ) :   0.9466 B(  3-C ,  4-H ) :   0.8592 B(  3-C ,  5-C ) :   1.0121
B(  3-C , 15-O ) :   1.0487 B(  5-C ,  6-H ) :   0.8692 B(  5-C ,  7-C ) :   0.9648
B(  5-C , 14-O ) :   1.0287 B(  7-C ,  8-H ) :   0.8890 B(  7-C ,  9-C ) :   1.0402
B(  7-C , 13-O ) :   1.0767 B(  9-C , 10-H ) :   0.9066 B(  9-C , 11-O ) :   1.0293
B(  9-C , 12-O ) :   1.0840 B( 12-O , 19-H ) :   0.7993 B( 13-O , 20-H ) :   0.8300
B( 14-O , 21-H ) :   0.8421 B( 15-O , 22-H ) :   0.8448 B( 16-O , 23-H ) :   0.8019

Dispersion correction           -0.025812298
FINAL SINGLE POINT ENERGY      -685.693648480928

DIPOLE MOMENT
-------------

Method             : SCF
Type of density    : Electron Density
Multiplicity       :   1
Irrep              :   0
Energy             :  -685.8287004354513101 Eh
Relativity type    :
Basis              : AO
                                X                 Y                 Z
Electronic contribution:      2.444809955      -0.156115773      -0.471672475
Nuclear contribution   :     -2.932288760       0.711284956       0.618880435
                        -----------------------------------------
Total Dipole Moment    :     -0.487478805       0.555169183       0.147207960
                        -----------------------------------------
Magnitude (a.u.)       :      0.753338298
Magnitude (Debye)      :      1.914833778

Rotational constants in cm-1:             0.039657             0.029122             0.025112
Rotational constants in MHz :          1188.901286           873.059821           752.852143

                             ****ORCA TERMINATED NORMALLY****
TOTAL RUN TIME: 0 days 0 hours 14 minutes 39 seconds 311 msec
