                         Program Version 6.0.1  -  RELEASE   -
|  1> ! pbe def2-sv(p) def2/J RI DEFGRID1 loosescf d4 GCP(DFT/SV(P)) printgap
|  2> %output
|  3>     printlevel normal
|  4> end
|  5> * xyz 0 1
|  6> C -2.035310627 -0.5926757557 -0.6662812902
|  7> C -1.2207354706 -0.0695743513 0.5442886129
|  8> H -1.8802741863 -0.0134430234 1.4197521261
|  9> C -0.637916119 1.335661264 0.3129913843
| 10> H -1.3833143302 1.9447135179 -0.2090553613
| 11> C 0.657977498 1.3004024982 -0.5376410068
| 12> H 1.0951784125 2.3086265629 -0.482732055
| 13> C 1.6410042323 0.2815937971 0.0669707073
| 14> H 2.4839103562 0.1437406371 -0.626240189
| 15> C 0.9343091232 -1.0794845908 0.2028020126
| 16> H 1.5798795592 -1.7599606699 0.7816341735
| 17> O -0.2336820539 -1.0111172877 0.957353277
| 18> O 0.7242113072 -1.5811336798 -1.0902104149
| 19> O 2.09069003 0.6575406394 1.3478822993
| 20> O 0.4240316225 1.0355277784 -1.8928579067
| 21> O -0.3951815673 1.9736543548 1.5392433592
| 22> O -2.0027787208 -2.0010287694 -0.7402584327
| 23> H -1.6238325216 -0.2316634944 -1.6099143874
| 24> H -3.0675129514 -0.2313052211 -0.578751441
| 25> H -0.0963799378 -2.1101445848 -1.0795248497
| 26> H 2.5998324531 1.4732954911 1.2723330879
| 27> H 0.496363024 0.0740222488 -2.0254111125
| 28> H 0.2781580474 1.4558890615 2.0090425137
| 29> H -2.2490103706 -2.358913887 0.1217421035
| 30> *
| 31>
| 32>                          ****END OF INPUT****

CARTESIAN COORDINATES (ANGSTROEM)
---------------------------------
  C     -2.035311   -0.592676   -0.666281
  C     -1.220735   -0.069574    0.544289
  H     -1.880274   -0.013443    1.419752
  C     -0.637916    1.335661    0.312991
  H     -1.383314    1.944714   -0.209055
  C      0.657977    1.300402   -0.537641
  H      1.095178    2.308627   -0.482732
  C      1.641004    0.281594    0.066971
  H      2.483910    0.143741   -0.626240
  C      0.934309   -1.079485    0.202802
  H      1.579880   -1.759961    0.781634
  O     -0.233682   -1.011117    0.957353
  O      0.724211   -1.581134   -1.090210
  O      2.090690    0.657541    1.347882
  O      0.424032    1.035528   -1.892858
  O     -0.395182    1.973654    1.539243
  O     -2.002779   -2.001029   -0.740258
  H     -1.623833   -0.231663   -1.609914
  H     -3.067513   -0.231305   -0.578751
  H     -0.096380   -2.110145   -1.079525
  H      2.599832    1.473295    1.272333
  H      0.496363    0.074022   -2.025411
  H      0.278158    1.455889    2.009043
  H     -2.249010   -2.358914    0.121742

 Total Charge           Charge          ....    0
 Multiplicity           Mult            ....    1
 Number of Electrons    NEL             ....   96
 Basis Dimension        Dim             ....  192

ORBITAL ENERGIES
----------------

  NO   OCC          E(Eh)            E(eV)
   0   2.0000     -18.779853      -511.0258
   1   2.0000     -18.779777      -511.0237
   2   2.0000     -18.777528      -510.9625
   3   2.0000     -18.772402      -510.8230
   4   2.0000     -18.744804      -510.0721
   5   2.0000     -18.740819      -509.9636
   6   2.0000      -9.995441      -271.9898
   7   2.0000      -9.953833      -270.8576
   8   2.0000      -9.950129      -270.7568
   9   2.0000      -9.944464      -270.6026
  10   2.0000      -9.944316      -270.5986
  11   2.0000      -9.941707      -270.5276
  12   2.0000      -0.998563       -27.1723
  13   2.0000      -0.956320       -26.0228
  14   2.0000      -0.946561       -25.7572
  15   2.0000      -0.928177       -25.2570
  16   2.0000      -0.927616       -25.2417
  17   2.0000      -0.911783       -24.8109
  18   2.0000      -0.705939       -19.2096
  19   2.0000      -0.695593       -18.9280
  20   2.0000      -0.629464       -17.1286
  21   2.0000      -0.593329       -16.1453
  22   2.0000      -0.582295       -15.8451
  23   2.0000      -0.534723       -14.5505
  24   2.0000      -0.506886       -13.7931
  25   2.0000      -0.496722       -13.5165
  26   2.0000      -0.479764       -13.0550
  27   2.0000      -0.457810       -12.4576
  28   2.0000      -0.446832       -12.1589
  29   2.0000      -0.432406       -11.7664
  30   2.0000      -0.423791       -11.5319
  31   2.0000      -0.410641       -11.1741
  32   2.0000      -0.394375       -10.7315
  33   2.0000      -0.380608       -10.3569
  34   2.0000      -0.374189       -10.1822
  35   2.0000      -0.357157        -9.7187
  36   2.0000      -0.343984        -9.3603
  37   2.0000      -0.336760        -9.1637
  38   2.0000      -0.319989        -8.7073
  39   2.0000      -0.307807        -8.3759
  40   2.0000      -0.286465        -7.7951
  41   2.0000      -0.274093        -7.4584
  42   2.0000      -0.259688        -7.0665
  43   2.0000      -0.251042        -6.8312
  44   2.0000      -0.247036        -6.7222
  45   2.0000      -0.235138        -6.3984
  46   2.0000      -0.223453        -6.0805
  47   2.0000      -0.198210        -5.3936
  48   0.0000       0.007648         0.2081
  49   0.0000       0.013340         0.3630
  50   0.0000       0.047568         1.2944
  51   0.0000       0.053777         1.4634
  52   0.0000       0.069328         1.8865

MULLIKEN ATOMIC CHARGES
-----------------------
   0 C :   -0.000583
   1 C :   -0.007525
   2 H :    0.078151
   3 C :    0.091407
   4 H :    0.079232
   5 C :    0.030925
   6 H :    0.067597
   7 C :   -0.023903
   8 H :    0.093421
   9 C :    0.215430
  10 H :    0.075490
  11 O :   -0.309173
  12 O :   -0.435592
  13 O :   -0.410627
  14 O :   -0.416237
  15 O :   -0.433593
  16 O :   -0.430480
  17 H :    0.097387
  18 H :    0.094808
  19 H :    0.315397
  20 H :    0.313533
  21 H :    0.309958
  22 H :    0.295620
  23 H :    0.309357
Sum of atomic charges:    0.0000000

LOEWDIN ATOMIC CHARGES
----------------------
   0 C :   -0.152560
   1 C :   -0.081451
   2 H :    0.117478
   3 C :   -0.070616
   4 H :    0.121018
   5 C :   -0.078229
   6 H :    0.108138
   7 C :   -0.093703
   8 H :    0.113882
   9 C :    0.008289
  10 H :    0.103506
  11 O :   -0.136014
  12 O :   -0.323168
  13 O :   -0.302406
  14 O :   -0.320551
  15 O :   -0.322695
  16 O :   -0.317599
  17 H :    0.114091
  18 H :    0.110900
  19 H :    0.279664
  20 H :    0.293672
  21 H :    0.270773
  22 H :    0.268829
  23 H :    0.288751

  Mayer bond orders larger than 0.100000
B(  0-C ,  1-C ) :   1.0220 B(  0-C , 16-O ) :   1.0169 B(  0-C , 17-H ) :   0.9061
B(  0-C , 18-H ) :   0.9145 B(  1-C ,  2-H ) :   0.8932 B(  1-C ,  3-C ) :   1.0051
B(  1-C , 11-O ) :   1.0110 B(  3-C ,  4-H ) :   0.8915 B(  3-C ,  5-C ) :   0.9437
B(  3-C , 15-O ) :   1.0386 B(  5-C ,  6-H ) :   0.9039 B(  5-C ,  7-C ) :   0.9910
B(  5-C , 14-O ) :   1.0863 B(  7-C ,  8-H ) :   0.8974 B(  7-C ,  9-C ) :   0.9808
B(  7-C , 13-O ) :   1.0388 B(  9-C , 10-H ) :   0.9039 B(  9-C , 11-O ) :   1.0783
B(  9-C , 12-O ) :   1.0741 B( 12-O , 19-H ) :   0.7682 B( 12-O , 21-H ) :   0.1217
B( 13-O , 20-H ) :   0.8390 B( 14-O , 21-H ) :   0.7819 B( 15-O , 22-H ) :   0.8153
B( 16-O , 19-H ) :   0.1321 B( 16-O , 23-H ) :   0.8407

Dispersion correction           -0.026683336
FINAL SINGLE POINT ENERGY      -685.702318651372

DIPOLE MOMENT
-------------

Method             : SCF
Type of density    : Electron Density
Multiplicity       :   1
Irrep              :   0
Energy             :  -685.8392269329974624 Eh
Relativity type    :
Basis              : AO
                                X                 Y                 Z
Electronic contribution:      1.677380001      -0.973846637       1.338270617
Nuclear contribution   :     -1.648752191       0.638167265      -0.943060139
                        -----------------------------------------
Total Dipole Moment    :      0.028627810      -0.335679373       0.395210478
                        -----------------------------------------
Magnitude (a.u.)       :      0.519318317
Magnitude (Debye)      :      1.320002260

Rotational constants in cm-1:             0.043351             0.029353             0.026314
Rotational constants in MHz :          1299.625699           879.971288           788.871730

                             ****ORCA TERMINATED NORMALLY****
TOTAL RUN TIME: 0 days 0 hours 0 minutes 8 seconds 188 msec
