                         Program Version 6.0.0  -   RELEASE  -
|  1> ! r2SCAN-3c DEF2-TZVP FREQ
|  2> * xyzfile 0 1 censo.xyz
|  3>
|  4>                          ****END OF INPUT****

CARTESIAN COORDINATES (ANGSTROEM)
---------------------------------
  C      2.796559    0.805522   -0.001799
  C      1.349464    0.396970    0.000981
  C      0.331563    1.348125    0.006152
  C     -1.018246    0.970267    0.005973
  C     -1.332854   -0.386816    0.002793
  C     -0.330625   -1.366820   -0.001917
  C      1.001998   -0.961113   -0.003078
  C     -0.700698   -2.824181    0.000140
  C     -2.096366    2.018268   -0.004598
  H      2.902072    1.892786    0.031786
  H      3.326444    0.382499    0.858620
  H      3.305394    0.440580   -0.900974
  H      0.587996    2.405383    0.010405
  H     -2.376575   -0.693934    0.004961
  H      1.789517   -1.711665   -0.005594
  H     -1.341248   -3.068401   -0.854276
  H      0.187380   -3.459572   -0.044645
  H     -1.261841   -3.085373    0.904354
  H     -3.084221    1.573159    0.138694
  H     -1.933540    2.760483    0.783860
  H     -2.104894    2.560553   -0.957204

 Total Charge           Charge          ....    0
 Multiplicity           Mult            ....    1
 Number of Electrons    NEL             ....   66
 Basis Dimension        Dim             ....  351

ORBITAL ENERGIES
----------------

  NO   OCC          E(Eh)            E(eV)
   0   2.0000     -10.040223      -273.2084
   1   2.0000     -10.040220      -273.2083
   2   2.0000     -10.040212      -273.2081
   3   2.0000     -10.025038      -272.7951
   4   2.0000     -10.025035      -272.7951
   5   2.0000     -10.025033      -272.7950
   6   2.0000     -10.021650      -272.7030
   7   2.0000     -10.021609      -272.7018
   8   2.0000     -10.021573      -272.7009
   9   2.0000      -0.821536       -22.3551
  10   2.0000      -0.743884       -20.2421
  11   2.0000      -0.743869       -20.2417
  12   2.0000      -0.664541       -18.0831
  13   2.0000      -0.642509       -17.4835
  14   2.0000      -0.642456       -17.4821
  15   2.0000      -0.536096       -14.5879
  16   2.0000      -0.536069       -14.5872
  17   2.0000      -0.460179       -12.5221
  18   2.0000      -0.441663       -12.0183
  19   2.0000      -0.398074       -10.8321
  20   2.0000      -0.395731       -10.7684
  21   2.0000      -0.380400       -10.3512
  22   2.0000      -0.380345       -10.3497
  23   2.0000      -0.369646       -10.0586
  24   2.0000      -0.369576       -10.0567
  25   2.0000      -0.360333        -9.8052
  26   2.0000      -0.360217        -9.8020
  27   2.0000      -0.329625        -8.9696
  28   2.0000      -0.304934        -8.2977
  29   2.0000      -0.299543        -8.1510
  30   2.0000      -0.299513        -8.1502
  31   2.0000      -0.215116        -5.8536
  32   2.0000      -0.214956        -5.8493
  33   0.0000      -0.025365        -0.6902
  34   0.0000      -0.024963        -0.6793
  35   0.0000       0.053166         1.4467
  36   0.0000       0.073553         2.0015
  37   0.0000       0.073643         2.0039

MULLIKEN ATOMIC CHARGES
-----------------------
   0 C :   -0.350635
   1 C :    0.272894
   2 C :   -0.348514
   3 C :    0.271873
   4 C :   -0.348582
   5 C :    0.272590
   6 C :   -0.349512
   7 C :   -0.350757
   8 C :   -0.351628
   9 H :    0.107103
  10 H :    0.115884
  11 H :    0.116521
  12 H :    0.087518
  13 H :    0.087874
  14 H :    0.087579
  15 H :    0.115795
  16 H :    0.107137
  17 H :    0.116656
  18 H :    0.107694
  19 H :    0.114784
  20 H :    0.117726
Sum of atomic charges:    0.0000000

LOEWDIN ATOMIC CHARGES
----------------------
   0 C :   -0.254189
   1 C :   -0.170520
   2 C :   -0.102990
   3 C :   -0.170588
   4 C :   -0.102652
   5 C :   -0.170645
   6 C :   -0.102783
   7 C :   -0.254182
   8 C :   -0.254161
   9 H :    0.124662
  10 H :    0.128992
  11 H :    0.129343
  12 H :    0.144504
  13 H :    0.144631
  14 H :    0.144571
  15 H :    0.128951
  16 H :    0.124659
  17 H :    0.129390
  18 H :    0.124809
  19 H :    0.128334
  20 H :    0.129864

  Mayer bond orders larger than 0.100000
B(  0-C ,  1-C ) :   0.8959 B(  0-C ,  9-H ) :   0.9910 B(  0-C , 10-H ) :   0.9678
B(  0-C , 11-H ) :   0.9658 B(  1-C ,  2-C ) :   1.3834 B(  1-C ,  6-C ) :   1.2983
B(  2-C ,  3-C ) :   1.2992 B(  2-C , 12-H ) :   0.9860 B(  3-C ,  4-C ) :   1.3802
B(  3-C ,  8-C ) :   0.8965 B(  4-C ,  5-C ) :   1.2989 B(  4-C , 13-H ) :   0.9877
B(  5-C ,  6-C ) :   1.3828 B(  5-C ,  7-C ) :   0.8962 B(  6-C , 14-H ) :   0.9868
B(  7-C , 15-H ) :   0.9688 B(  7-C , 16-H ) :   0.9909 B(  7-C , 17-H ) :   0.9648
B(  8-C , 18-H ) :   0.9905 B(  8-C , 19-H ) :   0.9727 B(  8-C , 20-H ) :   0.9611

Dispersion correction           -0.006732599
FINAL SINGLE POINT ENERGY      -350.115928839606

DIPOLE MOMENT
-------------

Method             : SCF
Type of density    : Electron Density
Multiplicity       :   1
Irrep              :   0
Energy             :  -350.1167115899143596 Eh
Relativity type    :
Basis              : AO
                                X                 Y                 Z
Electronic contribution:      0.002761400       0.001896265       0.022910325
Nuclear contribution   :     -0.003860391      -0.003206251      -0.030553671
                        -----------------------------------------
Total Dipole Moment    :     -0.001098991      -0.001309986      -0.007643347
                        -----------------------------------------
Magnitude (a.u.)       :      0.007832279
Magnitude (Debye)      :      0.019908071

VIBRATIONAL FREQUENCIES
-----------------------

Scaling factor for frequencies =  1.000000000  (already applied!)

     0:       0.00 cm**-1
     1:       0.00 cm**-1
     2:       0.00 cm**-1
     3:       0.00 cm**-1
     4:       0.00 cm**-1
     5:       0.00 cm**-1
     6:      82.38 cm**-1
     7:      82.74 cm**-1
     8:      83.63 cm**-1
     9:     174.55 cm**-1
    10:     225.39 cm**-1
    11:     226.19 cm**-1
    12:     276.62 cm**-1
    13:     276.78 cm**-1
    14:     469.50 cm**-1
    15:     523.88 cm**-1
    16:     524.92 cm**-1
    17:     529.01 cm**-1
    18:     530.07 cm**-1
    19:     580.73 cm**-1
    20:     708.42 cm**-1
    21:     837.23 cm**-1
    22:     871.91 cm**-1
    23:     872.30 cm**-1
    24:     947.43 cm**-1
    25:     947.74 cm**-1
    26:    1011.61 cm**-1
    27:    1032.73 cm**-1
    28:    1033.19 cm**-1
    29:    1037.18 cm**-1
    30:    1051.00 cm**-1
    31:    1054.69 cm**-1
    32:    1054.87 cm**-1
    33:    1182.40 cm**-1
    34:    1182.89 cm**-1
    35:    1298.67 cm**-1
    36:    1317.57 cm**-1
    37:    1349.73 cm**-1
    38:    1399.47 cm**-1
    39:    1399.61 cm**-1
    40:    1404.13 cm**-1
    41:    1449.27 cm**-1
    42:    1449.49 cm**-1
    43:    1477.08 cm**-1
    44:    1478.08 cm**-1
    45:    1478.42 cm**-1
    46:    1488.73 cm**-1
    47:    1508.07 cm**-1
    48:    1508.13 cm**-1
    49:    1628.50 cm**-1
    50:    1629.09 cm**-1
    51:    3005.06 cm**-1
    52:    3005.40 cm**-1
    53:    3006.10 cm**-1
    54:    3066.18 cm**-1
    55:    3066.79 cm**-1
    56:    3066.90 cm**-1
    57:    3099.00 cm**-1
    58:    3099.50 cm**-1
    59:    3099.63 cm**-1
    60:    3137.63 cm**-1
    61:    3138.17 cm**-1
    62:    3141.53 cm**-1

IR SPECTRUM
-----------

 Mode   freq       eps      Int      T**2         TX        TY        TZ
       cm**-1   L/(mol*cm) km/mol    a.u.
----------------------------------------------------------------------------
  6:     82.38   0.000001    0.00  0.000003  ( 0.000275 -0.000484 -0.001720)
  7:     82.74   0.000082    0.41  0.000308  ( 0.000659 -0.001609  0.017457)
  8:     83.63   0.000058    0.29  0.000216  ( 0.003670  0.003900  0.013677)
  9:    174.55   0.001112    5.62  0.001988  (-0.000221  0.000040  0.044586)
 10:    225.39   0.000001    0.00  0.000001  ( 0.000919  0.000078  0.000172)
 11:    226.19   0.000000    0.00  0.000000  ( 0.000265  0.000011  0.000150)
 12:    276.62   0.000104    0.52  0.000117  ( 0.009495  0.005186 -0.000092)
 13:    276.78   0.000095    0.48  0.000108  (-0.004908  0.009135  0.000095)
 14:    469.50   0.000000    0.00  0.000000  ( 0.000101 -0.000249 -0.000060)
 15:    523.88   0.000096    0.48  0.000057  ( 0.007171 -0.002375  0.000031)
 16:    524.92   0.000113    0.57  0.000067  ( 0.002577  0.007774 -0.000053)
 17:    529.01   0.000000    0.00  0.000000  ( 0.000093 -0.000221  0.000163)
 18:    530.07   0.000025    0.12  0.000015  ( 0.003622 -0.001179  0.000217)
 19:    580.73   0.000000    0.00  0.000000  (-0.000018 -0.000053 -0.000118)
 20:    708.42   0.002164   10.93  0.000953  (-0.000236  0.000460 -0.030868)
 21:    837.23   0.004939   24.96  0.001841  ( 0.000279 -0.001216 -0.042886)
 22:    871.91   0.000000    0.00  0.000000  ( 0.000098  0.000150  0.000132)
 23:    872.30   0.000002    0.01  0.000001  ( 0.000397 -0.000555  0.000388)
 24:    947.43   0.000684    3.46  0.000225  ( 0.011441  0.009684 -0.000839)
 25:    947.74   0.000623    3.15  0.000205  ( 0.008949 -0.011167  0.000620)
 26:   1011.61   0.000002    0.01  0.000001  ( 0.000243 -0.000299 -0.000615)
 27:   1032.73   0.000720    3.64  0.000217  (-0.003367 -0.014355  0.000147)
 28:   1033.19   0.000784    3.96  0.000237  (-0.015109  0.002612 -0.001332)
 29:   1037.18   0.000011    0.06  0.000003  (-0.000190 -0.001688  0.000659)
 30:   1051.00   0.001471    7.44  0.000437  ( 0.001258 -0.004122  0.020452)
 31:   1054.69   0.000066    0.33  0.000020  (-0.003788  0.002273  0.000077)
 32:   1054.87   0.000057    0.29  0.000017  (-0.002859  0.002956  0.000261)
 33:   1182.40   0.000092    0.46  0.000024  (-0.000010 -0.004857  0.000796)
 34:   1182.89   0.000096    0.48  0.000025  ( 0.004988  0.000569 -0.000018)
 35:   1298.67   0.000001    0.01  0.000000  ( 0.000261 -0.000295  0.000375)
 36:   1317.57   0.000001    0.01  0.000000  ( 0.000008 -0.000039 -0.000552)
 37:   1349.73   0.000001    0.01  0.000000  ( 0.000026 -0.000281 -0.000388)
 38:   1399.47   0.000457    2.31  0.000102  (-0.004700  0.008915 -0.000639)
 39:   1399.61   0.000454    2.29  0.000101  (-0.009095 -0.004296  0.000203)
 40:   1404.13   0.000002    0.01  0.000000  ( 0.000137 -0.000376 -0.000522)
 41:   1449.27   0.000167    0.84  0.000036  (-0.002319 -0.005475 -0.000764)
 42:   1449.49   0.000147    0.74  0.000032  (-0.005377  0.001638 -0.000299)
 43:   1477.08   0.004118   20.81  0.000870  ( 0.000701  0.000102  0.029487)
 44:   1478.08   0.000000    0.00  0.000000  ( 0.000034 -0.000023  0.000147)
 45:   1478.42   0.000106    0.53  0.000022  ( 0.000244  0.000743  0.004661)
 46:   1488.73   0.000021    0.11  0.000004  ( 0.000262  0.000229 -0.002076)
 47:   1508.07   0.004809   24.30  0.000995  (-0.020950 -0.023567  0.000901)
 48:   1508.13   0.004771   24.11  0.000987  ( 0.023525 -0.020826 -0.000090)
 49:   1628.50   0.006042   30.54  0.001158  (-0.011076 -0.032174  0.000196)
 50:   1629.09   0.006068   30.67  0.001162  ( 0.032235 -0.011100  0.000192)
 51:   3005.06   0.009659   48.81  0.001003  (-0.016280  0.027090 -0.002025)
 52:   3005.40   0.009706   49.05  0.001008  ( 0.026727  0.017128 -0.000235)
 53:   3006.10   0.000692    3.50  0.000072  ( 0.008331 -0.001307 -0.000876)
 54:   3066.18   0.002360   11.93  0.000240  (-0.000489 -0.000818 -0.015470)
 55:   3066.79   0.000381    1.93  0.000039  ( 0.001929 -0.001388  0.005755)
 56:   3066.90   0.006552   33.11  0.000667  (-0.001463  0.002352  0.025671)
 57:   3099.00   0.002215   11.19  0.000223  ( 0.000100  0.014935  0.000082)
 58:   3099.50   0.002714   13.71  0.000273  ( 0.001075  0.016495 -0.000002)
 59:   3099.63   0.004748   24.00  0.000478  (-0.021842  0.000976  0.000155)
 60:   3137.63   0.005040   25.47  0.000501  ( 0.020846  0.008170 -0.000026)
 61:   3138.17   0.005164   26.09  0.000513  ( 0.008203 -0.021123 -0.000136)
 62:   3141.53   0.000041    0.21  0.000004  ( 0.002015 -0.000037  0.000050)

--------------------------
THERMOCHEMISTRY AT 298.15K
--------------------------

Temperature         ...   298.15 K
Pressure            ...     1.00 atm
Total Mass          ...   120.19 AMU
Quasi RRHO          ...     True
Cut-Off Frequency   ...     1.00 cm^-1

Throughout the following assumptions are being made:
  (1) The electronic state is orbitally nondegenerate
  (2) There are no thermally accessible electronically excited states
  (3) Hindered rotations indicated by low frequency modes are not
      treated as such but are treated as vibrations and this may
      cause some error
  (4) All equations used are the standard statistical mechanics
      equations for an ideal gas
  (5) All vibrations are strictly harmonic

freq.      82.38  E(vib)   ...       0.48
freq.      82.74  E(vib)   ...       0.48
freq.      83.63  E(vib)   ...       0.48
freq.     174.55  E(vib)   ...       0.38
freq.     225.39  E(vib)   ...       0.33
freq.     226.19  E(vib)   ...       0.33
freq.     276.62  E(vib)   ...       0.28
freq.     276.78  E(vib)   ...       0.28
freq.     469.50  E(vib)   ...       0.16
freq.     523.88  E(vib)   ...       0.13
freq.     524.92  E(vib)   ...       0.13
freq.     529.01  E(vib)   ...       0.13
freq.     530.07  E(vib)   ...       0.13
freq.     580.73  E(vib)   ...       0.11
freq.     708.42  E(vib)   ...       0.07
freq.     837.23  E(vib)   ...       0.04
freq.     871.91  E(vib)   ...       0.04
freq.     872.30  E(vib)   ...       0.04
freq.     947.43  E(vib)   ...       0.03
freq.     947.74  E(vib)   ...       0.03
freq.    1011.61  E(vib)   ...       0.02
freq.    1032.73  E(vib)   ...       0.02
freq.    1033.19  E(vib)   ...       0.02
freq.    1037.18  E(vib)   ...       0.02
freq.    1051.00  E(vib)   ...       0.02
freq.    1054.69  E(vib)   ...       0.02
freq.    1054.87  E(vib)   ...       0.02
freq.    1182.40  E(vib)   ...       0.01
freq.    1182.89  E(vib)   ...       0.01
freq.    1298.67  E(vib)   ...       0.01
freq.    1317.57  E(vib)   ...       0.01
freq.    1349.73  E(vib)   ...       0.01
freq.    1399.47  E(vib)   ...       0.00
freq.    1399.61  E(vib)   ...       0.00
freq.    1404.13  E(vib)   ...       0.00
freq.    1449.27  E(vib)   ...       0.00
freq.    1449.49  E(vib)   ...       0.00
freq.    1477.08  E(vib)   ...       0.00
freq.    1478.08  E(vib)   ...       0.00
freq.    1478.42  E(vib)   ...       0.00
freq.    1488.73  E(vib)   ...       0.00
freq.    1508.07  E(vib)   ...       0.00
freq.    1508.13  E(vib)   ...       0.00
freq.    1628.50  E(vib)   ...       0.00
freq.    1629.09  E(vib)   ...       0.00
freq.    3005.06  E(vib)   ...       0.00
freq.    3005.40  E(vib)   ...       0.00
freq.    3006.10  E(vib)   ...       0.00
freq.    3066.18  E(vib)   ...       0.00
freq.    3066.79  E(vib)   ...       0.00
freq.    3066.90  E(vib)   ...       0.00
freq.    3099.00  E(vib)   ...       0.00
freq.    3099.50  E(vib)   ...       0.00
freq.    3099.63  E(vib)   ...       0.00
freq.    3137.63  E(vib)   ...       0.00
freq.    3138.17  E(vib)   ...       0.00
freq.    3141.53  E(vib)   ...       0.00

------------
INNER ENERGY
------------

The inner energy is: U= E(el) + E(ZPE) + E(vib) + E(rot) + E(trans)
    E(el)   - is the total energy from the electronic structure calculation
              = E(kin-el) + E(nuc-el) + E(el-el) + E(nuc-nuc)
    E(ZPE)  - the the zero temperature vibrational energy from the frequency calculation
    E(vib)  - the the finite temperature correction to E(ZPE) due to population
              of excited vibrational states
    E(rot)  - is the rotational thermal energy
    E(trans)- is the translational thermal energy

Summary of contributions to the inner energy U:
Electronic energy                ...   -350.11592884 Eh
Zero point energy                ...      0.18136020 Eh     113.80 kcal/mol
Thermal vibrational correction   ...      0.00683397 Eh       4.29 kcal/mol
Thermal rotational correction    ...      0.00141627 Eh       0.89 kcal/mol
Thermal translational correction ...      0.00141627 Eh       0.89 kcal/mol
-----------------------------------------------------------------------
Total thermal energy                   -349.92490213 Eh

Summary of corrections to the electronic energy:
(perhaps to be used in another calculation)
Total thermal correction                  0.00966651 Eh       6.07 kcal/mol
Non-thermal (ZPE) correction              0.18136020 Eh     113.80 kcal/mol
-----------------------------------------------------------------------
Total correction                          0.19102671 Eh     119.87 kcal/mol

--------
ENTHALPY
--------

The enthalpy is H = U + kB*T
                kB is Boltzmann's constant
Total thermal energy              ...   -349.92490213 Eh
Thermal Enthalpy correction       ...      0.00094421 Eh       0.59 kcal/mol
-----------------------------------------------------------------------
Total Enthalpy                    ...   -349.92395792 Eh

Note: Only C1 symmetry has been detected, increase convergence thresholds
      if your molecule has a higher symmetry. Symmetry factor of 1.0 is
      used for the rotational entropy correction.

Note: Rotational entropy computed according to Herzberg
Infrared and Raman Spectra, Chapter V,1, Van Nostrand Reinhold, 1945
Point Group:  C1, Symmetry Number:   1
Rotational constants in cm-1:     0.058386     0.058358     0.029668

Vibrational entropy computed according to the QRRHO of S. Grimme
Chem.Eur.J. 2012 18 9955 using a reference frequency of 100.0 cm-1

-------
ENTROPY
-------

The entropy contributions are T*S = T*(S(el)+S(vib)+S(rot)+S(trans))
     S(el)   - electronic entropy
     S(vib)  - vibrational entropy
     S(rot)  - rotational entropy
     S(trans)- translational entropy
The entropies will be listed as multiplied by the temperature to get
units of energy

Electronic entropy                ...      0.00000000 Eh      0.00 kcal/mol
Vibrational entropy               ...      0.01174556 Eh      7.37 kcal/mol
Rotational entropy                ...      0.01385382 Eh      8.69 kcal/mol
Translational entropy             ...      0.01913176 Eh     12.01 kcal/mol
-----------------------------------------------------------------------
Final entropy term                ...      0.04473114 Eh     28.07 kcal/mol

In case the symmetry of your molecule has not been determined correctly
or in case you have a reason to use a different symmetry number we print
out the resulting rotational entropy values for sn=1,12:

 non-linear molecules -----------------------------------
|  sn= 1 | S(rot)=       0.01385382 Eh      8.69 kcal/mol|
|  sn= 2 | S(rot)=       0.01319937 Eh      8.28 kcal/mol|
|  sn= 3 | S(rot)=       0.01281653 Eh      8.04 kcal/mol|

                             ****ORCA TERMINATED NORMALLY****
TOTAL RUN TIME: 0 days 0 hours 19 minutes 7 seconds 424 msec
