                         Program Version 6.0.0  -   RELEASE  -
|  1> ! r2SCAN-3c DEF2-TZVP FREQ
|  2> * xyzfile 0 1 vacuum_censo.xyz
|  3>
|  4>                          ****END OF INPUT****

CARTESIAN COORDINATES (ANGSTROEM)
---------------------------------
  C      2.865256   -0.504377    0.001579
  C      1.381785   -0.251606   -0.002741
  C      0.892684    1.059649   -0.003940
  C     -0.473091    1.322671    0.000445
  C     -1.364260    0.243554    0.005571
  C     -0.909002   -1.070659    0.005103
  C      0.471175   -1.302920    0.001739
  C     -1.869679   -2.229059   -0.004349
  C     -0.996104    2.733754   -0.000748
  H      3.327298   -0.114453    0.915367
  H      3.087806   -1.572511   -0.058875
  H      3.351798   -0.007404   -0.844411
  H      1.596669    1.889025   -0.006666
  H     -2.434566    0.438224    0.009775
  H      0.837345   -2.327286    0.003204
  H     -1.818104   -2.772318   -0.954718
  H     -1.632937   -2.943784    0.790545
  H     -2.900278   -1.893469    0.134830
  H     -1.628750    2.919092    0.874027
  H     -0.180759    3.461053    0.010877
  H     -1.608130    2.924953   -0.888956

 Total Charge           Charge          ....    0
 Multiplicity           Mult            ....    1
 Number of Electrons    NEL             ....   66
 Basis Dimension        Dim             ....  351

ORBITAL ENERGIES
----------------

  NO   OCC          E(Eh)            E(eV)
   0   2.0000     -10.039726      -273.1948
   1   2.0000     -10.039708      -273.1944
   2   2.0000     -10.039677      -273.1935
   3   2.0000     -10.024988      -272.7938
   4   2.0000     -10.024986      -272.7937
   5   2.0000     -10.024981      -272.7936
   6   2.0000     -10.021098      -272.6880
   7   2.0000     -10.021083      -272.6875
   8   2.0000     -10.021064      -272.6870
   9   2.0000      -0.822395       -22.3785
  10   2.0000      -0.743944       -20.2437
  11   2.0000      -0.743932       -20.2434
  12   2.0000      -0.664654       -18.0862
  13   2.0000      -0.642699       -17.4887
  14   2.0000      -0.642686       -17.4884
  15   2.0000      -0.536422       -14.5968
  16   2.0000      -0.536389       -14.5959
  17   2.0000      -0.460414       -12.5285
  18   2.0000      -0.441749       -12.0206
  19   2.0000      -0.397657       -10.8208
  20   2.0000      -0.396098       -10.7784
  21   2.0000      -0.380653       -10.3581
  22   2.0000      -0.380642       -10.3578
  23   2.0000      -0.369413       -10.0522
  24   2.0000      -0.369378       -10.0513
  25   2.0000      -0.360012        -9.7964
  26   2.0000      -0.359868        -9.7925
  27   2.0000      -0.329582        -8.9684
  28   2.0000      -0.305684        -8.3181
  29   2.0000      -0.299419        -8.1476
  30   2.0000      -0.299359        -8.1460
  31   2.0000      -0.215440        -5.8624
  32   2.0000      -0.215346        -5.8599
  33   0.0000      -0.024898        -0.6775
  34   0.0000      -0.024568        -0.6685
  35   0.0000       0.053249         1.4490
  36   0.0000       0.073618         2.0033
  37   0.0000       0.073735         2.0064

MULLIKEN ATOMIC CHARGES
-----------------------
   0 C :   -0.351551
   1 C :    0.272829
   2 C :   -0.348566
   3 C :    0.272922
   4 C :   -0.348124
   5 C :    0.271941
   6 C :   -0.348202
   7 C :   -0.351697
   8 C :   -0.351285
   9 H :    0.116956
  10 H :    0.107249
  11 H :    0.115622
  12 H :    0.087227
  13 H :    0.087539
  14 H :    0.087339
  15 H :    0.117752
  16 H :    0.114907
  17 H :    0.107546
  18 H :    0.116121
  19 H :    0.107076
  20 H :    0.116398
Sum of atomic charges:   -0.0000000

LOEWDIN ATOMIC CHARGES
----------------------
   0 C :   -0.253730
   1 C :   -0.170778
   2 C :   -0.102919
   3 C :   -0.170764
   4 C :   -0.102789
   5 C :   -0.170734
   6 C :   -0.103042
   7 C :   -0.253694
   8 C :   -0.253696
   9 H :    0.129337
  10 H :    0.124504
  11 H :    0.128708
  12 H :    0.144844
  13 H :    0.144898
  14 H :    0.144803
  15 H :    0.129659
  16 H :    0.128288
  17 H :    0.124574
  18 H :    0.128981
  19 H :    0.124448
  20 H :    0.129102

  Mayer bond orders larger than 0.100000
B(  0-C ,  1-C ) :   0.8960 B(  0-C ,  9-H ) :   0.9640 B(  0-C , 10-H ) :   0.9912
B(  0-C , 11-H ) :   0.9696 B(  1-C ,  2-C ) :   1.2985 B(  1-C ,  6-C ) :   1.3833
B(  2-C ,  3-C ) :   1.3834 B(  2-C , 12-H ) :   0.9874 B(  3-C ,  4-C ) :   1.2990
B(  3-C ,  8-C ) :   0.8957 B(  4-C ,  5-C ) :   1.3815 B(  4-C , 13-H ) :   0.9880
B(  5-C ,  6-C ) :   1.3004 B(  5-C ,  7-C ) :   0.8961 B(  6-C , 14-H ) :   0.9868
B(  7-C , 15-H ) :   0.9616 B(  7-C , 16-H ) :   0.9726 B(  7-C , 17-H ) :   0.9907
B(  8-C , 18-H ) :   0.9675 B(  8-C , 19-H ) :   0.9912 B(  8-C , 20-H ) :   0.9664

Dispersion correction           -0.006735821
FINAL SINGLE POINT ENERGY      -350.115931245702

DIPOLE MOMENT
-------------

Method             : SCF
Type of density    : Electron Density
Multiplicity       :   1
Irrep              :   0
Energy             :  -350.1167140773238771 Eh
Relativity type    :
Basis              : AO
                                X                 Y                 Z
Electronic contribution:     -0.000100393       0.000899441       0.011133485
Nuclear contribution   :     -0.000808319      -0.000186797      -0.015648440
                        -----------------------------------------
Total Dipole Moment    :     -0.000908712       0.000712644      -0.004514955
                        -----------------------------------------
Magnitude (a.u.)       :      0.004660304
Magnitude (Debye)      :      0.011845552

VIBRATIONAL FREQUENCIES
-----------------------

Scaling factor for frequencies =  1.000000000  (already applied!)

     0:       0.00 cm**-1
     1:       0.00 cm**-1
     2:       0.00 cm**-1
     3:       0.00 cm**-1
     4:       0.00 cm**-1
     5:       0.00 cm**-1
     6:      66.64 cm**-1
     7:      67.89 cm**-1
     8:      71.42 cm**-1
     9:     176.55 cm**-1
    10:     223.33 cm**-1
    11:     223.66 cm**-1
    12:     276.03 cm**-1
    13:     276.27 cm**-1
    14:     467.60 cm**-1
    15:     523.63 cm**-1
    16:     524.71 cm**-1
    17:     527.42 cm**-1
    18:     528.36 cm**-1
    19:     580.89 cm**-1
    20:     707.24 cm**-1
    21:     838.07 cm**-1
    22:     873.22 cm**-1
    23:     873.59 cm**-1
    24:     946.64 cm**-1
    25:     947.16 cm**-1
    26:    1013.77 cm**-1
    27:    1031.52 cm**-1
    28:    1031.96 cm**-1
    29:    1037.19 cm**-1
    30:    1051.08 cm**-1
    31:    1054.74 cm**-1
    32:    1054.92 cm**-1
    33:    1183.44 cm**-1
    34:    1184.02 cm**-1
    35:    1301.38 cm**-1
    36:    1318.37 cm**-1
    37:    1358.29 cm**-1
    38:    1398.85 cm**-1
    39:    1399.05 cm**-1
    40:    1403.39 cm**-1
    41:    1451.26 cm**-1
    42:    1451.56 cm**-1
    43:    1478.04 cm**-1
    44:    1479.01 cm**-1
    45:    1479.33 cm**-1
    46:    1487.86 cm**-1
    47:    1509.45 cm**-1
    48:    1509.57 cm**-1
    49:    1636.06 cm**-1
    50:    1636.34 cm**-1
    51:    3006.74 cm**-1
    52:    3006.87 cm**-1
    53:    3007.60 cm**-1
    54:    3068.77 cm**-1
    55:    3069.34 cm**-1
    56:    3069.49 cm**-1
    57:    3099.74 cm**-1
    58:    3100.46 cm**-1
    59:    3100.73 cm**-1
    60:    3137.83 cm**-1
    61:    3138.20 cm**-1
    62:    3141.63 cm**-1

IR SPECTRUM
-----------

 Mode   freq       eps      Int      T**2         TX        TY        TZ
       cm**-1   L/(mol*cm) km/mol    a.u.
----------------------------------------------------------------------------
  6:     66.64   0.000038    0.19  0.000176  (-0.003660  0.003732 -0.012207)
  7:     67.89   0.000039    0.19  0.000177  ( 0.000812  0.000432 -0.013278)
  8:     71.42   0.000060    0.30  0.000260  (-0.000087  0.002589 -0.015915)
  9:    176.55   0.001092    5.52  0.001931  (-0.000254  0.000399  0.043935)
 10:    223.33   0.000000    0.00  0.000001  ( 0.000360  0.000683  0.000316)
 11:    223.66   0.000000    0.00  0.000000  (-0.000667 -0.000068  0.000071)
 12:    276.03   0.000104    0.53  0.000118  ( 0.010847  0.000112 -0.000206)
 13:    276.27   0.000100    0.51  0.000113  (-0.000394  0.010618 -0.000045)
 14:    467.60   0.000000    0.00  0.000000  (-0.000027 -0.000286  0.000132)
 15:    523.63   0.000088    0.44  0.000052  (-0.004991 -0.005234 -0.000068)
 16:    524.71   0.000110    0.56  0.000065  (-0.005980  0.005434 -0.000192)
 17:    527.42   0.000008    0.04  0.000005  (-0.000727  0.002019  0.000273)
 18:    528.36   0.000033    0.17  0.000020  (-0.003145 -0.003120 -0.000062)
 19:    580.89   0.000000    0.00  0.000000  (-0.000072  0.000033 -0.000107)
 20:    707.24   0.002144   10.84  0.000946  (-0.000741 -0.000360 -0.030748)
 21:    838.07   0.004970   25.12  0.001851  ( 0.000769  0.000594 -0.043007)
 22:    873.22   0.000000    0.00  0.000000  (-0.000025 -0.000139 -0.000240)
 23:    873.59   0.000000    0.00  0.000000  ( 0.000203  0.000307 -0.000041)
 24:    946.64   0.000678    3.43  0.000224  ( 0.008360 -0.012386 -0.000598)
 25:    947.16   0.000631    3.19  0.000208  ( 0.011994  0.007951  0.000980)
 26:   1013.77   0.000001    0.01  0.000000  (-0.000039 -0.000376  0.000449)
 27:   1031.52   0.000765    3.87  0.000231  ( 0.009804 -0.011578  0.001155)
 28:   1031.96   0.000743    3.75  0.000225  ( 0.011941  0.009033  0.000669)
 29:   1037.19   0.000003    0.01  0.000001  (-0.000305  0.000774  0.000367)
 30:   1051.08   0.001467    7.41  0.000436  ( 0.003798  0.002440  0.020375)
 31:   1054.74   0.000056    0.28  0.000016  (-0.002735 -0.002997 -0.000141)
 32:   1054.92   0.000054    0.27  0.000016  (-0.000254 -0.003993 -0.000286)
 33:   1183.44   0.000078    0.39  0.000020  ( 0.001526 -0.004233 -0.000456)
 34:   1184.02   0.000081    0.41  0.000021  ( 0.004395  0.001210  0.000685)
 35:   1301.38   0.000001    0.00  0.000000  (-0.000129 -0.000363 -0.000249)
 36:   1318.37   0.000001    0.00  0.000000  (-0.000031 -0.000004  0.000402)
 37:   1358.29   0.000001    0.00  0.000000  (-0.000058  0.000317 -0.000227)
 38:   1398.85   0.000442    2.23  0.000099  ( 0.001888  0.009736  0.000477)
 39:   1399.05   0.000436    2.20  0.000097  (-0.009712  0.001678 -0.000429)
 40:   1403.39   0.000001    0.01  0.000000  ( 0.000241  0.000389 -0.000234)
 41:   1451.26   0.000222    1.12  0.000048  ( 0.003761 -0.005729  0.000919)
 42:   1451.56   0.000208    1.05  0.000045  ( 0.005774  0.003307 -0.000607)
 43:   1478.04   0.004052   20.48  0.000856  (-0.000280  0.000283 -0.029247)
 44:   1479.01   0.000002    0.01  0.000000  (-0.000150 -0.000305 -0.000591)
 45:   1479.33   0.000136    0.69  0.000029  (-0.000483  0.000621 -0.005293)
 46:   1487.86   0.000011    0.06  0.000002  ( 0.000184 -0.000125 -0.001518)
 47:   1509.45   0.004755   24.03  0.000983  ( 0.021320 -0.022978 -0.000634)
 48:   1509.57   0.004729   23.90  0.000978  ( 0.022981  0.021195  0.000521)
 49:   1636.06   0.005976   30.20  0.001140  (-0.033074  0.006773 -0.000248)
 50:   1636.34   0.005957   30.10  0.001136  ( 0.006781  0.033015  0.000192)
 51:   3006.74   0.009845   49.75  0.001022  ( 0.019346  0.025378  0.001872)
 52:   3006.87   0.010000   50.53  0.001038  ( 0.025818 -0.019254  0.000744)
 53:   3007.60   0.000086    0.43  0.000009  ( 0.000957  0.002786 -0.000495)
 54:   3068.77   0.002263   11.44  0.000230  ( 0.000096  0.000518  0.015162)
 55:   3069.34   0.001372    6.93  0.000140  ( 0.000832 -0.000978 -0.011742)
 56:   3069.49   0.005574   28.17  0.000567  (-0.001965 -0.002571  0.023585)
 57:   3099.74   0.002606   13.17  0.000262  ( 0.001518 -0.016125 -0.000041)
 58:   3100.46   0.002990   15.11  0.000301  ( 0.012506 -0.012017 -0.000314)
 59:   3100.73   0.004175   21.10  0.000420  ( 0.018079  0.009662 -0.000086)
 60:   3137.83   0.005222   26.39  0.000519  (-0.022426 -0.004052  0.000133)
 61:   3138.20   0.005168   26.12  0.000514  ( 0.003771 -0.022353  0.000032)
 62:   3141.63   0.000036    0.18  0.000004  ( 0.001113 -0.001524  0.000040)

--------------------------
THERMOCHEMISTRY AT 298.15K
--------------------------

Temperature         ...   298.15 K
Pressure            ...     1.00 atm
Total Mass          ...   120.19 AMU
Quasi RRHO          ...     True
Cut-Off Frequency   ...     1.00 cm^-1

Throughout the following assumptions are being made:
  (1) The electronic state is orbitally nondegenerate
  (2) There are no thermally accessible electronically excited states
  (3) Hindered rotations indicated by low frequency modes are not
      treated as such but are treated as vibrations and this may
      cause some error
  (4) All equations used are the standard statistical mechanics
      equations for an ideal gas
  (5) All vibrations are strictly harmonic

freq.      66.64  E(vib)   ...       0.50
freq.      67.89  E(vib)   ...       0.50
freq.      71.42  E(vib)   ...       0.50
freq.     176.55  E(vib)   ...       0.38
freq.     223.33  E(vib)   ...       0.33
freq.     223.66  E(vib)   ...       0.33
freq.     276.03  E(vib)   ...       0.28
freq.     276.27  E(vib)   ...       0.28
freq.     467.60  E(vib)   ...       0.16
freq.     523.63  E(vib)   ...       0.13
freq.     524.71  E(vib)   ...       0.13
freq.     527.42  E(vib)   ...       0.13
freq.     528.36  E(vib)   ...       0.13
freq.     580.89  E(vib)   ...       0.11
freq.     707.24  E(vib)   ...       0.07
freq.     838.07  E(vib)   ...       0.04
freq.     873.22  E(vib)   ...       0.04
freq.     873.59  E(vib)   ...       0.04
freq.     946.64  E(vib)   ...       0.03
freq.     947.16  E(vib)   ...       0.03
freq.    1013.77  E(vib)   ...       0.02
freq.    1031.52  E(vib)   ...       0.02
freq.    1031.96  E(vib)   ...       0.02
freq.    1037.19  E(vib)   ...       0.02
freq.    1051.08  E(vib)   ...       0.02
freq.    1054.74  E(vib)   ...       0.02
freq.    1054.92  E(vib)   ...       0.02
freq.    1183.44  E(vib)   ...       0.01
freq.    1184.02  E(vib)   ...       0.01
freq.    1301.38  E(vib)   ...       0.01
freq.    1318.37  E(vib)   ...       0.01
freq.    1358.29  E(vib)   ...       0.01
freq.    1398.85  E(vib)   ...       0.00
freq.    1399.05  E(vib)   ...       0.00
freq.    1403.39  E(vib)   ...       0.00
freq.    1451.26  E(vib)   ...       0.00
freq.    1451.56  E(vib)   ...       0.00
freq.    1478.04  E(vib)   ...       0.00
freq.    1479.01  E(vib)   ...       0.00
freq.    1479.33  E(vib)   ...       0.00
freq.    1487.86  E(vib)   ...       0.00
freq.    1509.45  E(vib)   ...       0.00
freq.    1509.57  E(vib)   ...       0.00
freq.    1636.06  E(vib)   ...       0.00
freq.    1636.34  E(vib)   ...       0.00
freq.    3006.74  E(vib)   ...       0.00
freq.    3006.87  E(vib)   ...       0.00
freq.    3007.60  E(vib)   ...       0.00
freq.    3068.77  E(vib)   ...       0.00
freq.    3069.34  E(vib)   ...       0.00
freq.    3069.49  E(vib)   ...       0.00
freq.    3099.74  E(vib)   ...       0.00
freq.    3100.46  E(vib)   ...       0.00
freq.    3100.73  E(vib)   ...       0.00
freq.    3137.83  E(vib)   ...       0.00
freq.    3138.20  E(vib)   ...       0.00
freq.    3141.63  E(vib)   ...       0.00

------------
INNER ENERGY
------------

The inner energy is: U= E(el) + E(ZPE) + E(vib) + E(rot) + E(trans)
    E(el)   - is the total energy from the electronic structure calculation
              = E(kin-el) + E(nuc-el) + E(el-el) + E(nuc-nuc)
    E(ZPE)  - the the zero temperature vibrational energy from the frequency calculation
    E(vib)  - the the finite temperature correction to E(ZPE) due to population
              of excited vibrational states
    E(rot)  - is the rotational thermal energy
    E(trans)- is the translational thermal energy

Summary of contributions to the inner energy U:
Electronic energy                ...   -350.11593125 Eh
Zero point energy                ...      0.18136084 Eh     113.81 kcal/mol
Thermal vibrational correction   ...      0.00692757 Eh       4.35 kcal/mol
Thermal rotational correction    ...      0.00141627 Eh       0.89 kcal/mol
Thermal translational correction ...      0.00141627 Eh       0.89 kcal/mol
-----------------------------------------------------------------------
Total thermal energy                   -349.92481029 Eh

Summary of corrections to the electronic energy:
(perhaps to be used in another calculation)
Total thermal correction                  0.00976011 Eh       6.12 kcal/mol
Non-thermal (ZPE) correction              0.18136084 Eh     113.81 kcal/mol
-----------------------------------------------------------------------
Total correction                          0.19112095 Eh     119.93 kcal/mol

--------
ENTHALPY
--------

The enthalpy is H = U + kB*T
                kB is Boltzmann's constant
Total thermal energy              ...   -349.92481029 Eh
Thermal Enthalpy correction       ...      0.00094421 Eh       0.59 kcal/mol
-----------------------------------------------------------------------
Total Enthalpy                    ...   -349.92386609 Eh

Note: Only C1 symmetry has been detected, increase convergence thresholds
      if your molecule has a higher symmetry. Symmetry factor of 1.0 is
      used for the rotational entropy correction.

Note: Rotational entropy computed according to Herzberg
Infrared and Raman Spectra, Chapter V,1, Van Nostrand Reinhold, 1945
Point Group:  C1, Symmetry Number:   1
Rotational constants in cm-1:     0.058440     0.058429     0.029701

Vibrational entropy computed according to the QRRHO of S. Grimme
Chem.Eur.J. 2012 18 9955 using a reference frequency of 100.0 cm-1

-------
ENTROPY
-------

The entropy contributions are T*S = T*(S(el)+S(vib)+S(rot)+S(trans))
     S(el)   - electronic entropy
     S(vib)  - vibrational entropy
     S(rot)  - rotational entropy
     S(trans)- translational entropy
The entropies will be listed as multiplied by the temperature to get
units of energy

Electronic entropy                ...      0.00000000 Eh      0.00 kcal/mol
Vibrational entropy               ...      0.01192244 Eh      7.48 kcal/mol
Rotational entropy                ...      0.01385229 Eh      8.69 kcal/mol
Translational entropy             ...      0.01913176 Eh     12.01 kcal/mol
-----------------------------------------------------------------------
Final entropy term                ...      0.04490648 Eh     28.18 kcal/mol

In case the symmetry of your molecule has not been determined correctly
or in case you have a reason to use a different symmetry number we print
out the resulting rotational entropy values for sn=1,12:

 non-linear molecules -----------------------------------
|  sn= 1 | S(rot)=       0.01385229 Eh      8.69 kcal/mol|
|  sn= 2 | S(rot)=       0.01319783 Eh      8.28 kcal/mol|
|  sn= 3 | S(rot)=       0.01281500 Eh      8.04 kcal/mol|

                             ****ORCA TERMINATED NORMALLY****
TOTAL RUN TIME: 0 days 0 hours 18 minutes 37 seconds 189 msec
