                         Program Version 6.0.1  -  RELEASE   -
|  1> ! pbe def2-sv(p) def2/J RI DEFGRID1 loosescf d4 GCP(DFT/SV(P)) printgap
|  2> %output
|  3>     printlevel normal
|  4> end
|  5> * xyz 0 1
|  6> C -2.3403865884 -1.0420971039 0.3485069705
|  7> C -1.0872688183 -0.267153595 0.8042804031
|  8> H -1.336812394 0.1972642746 1.7672429769
|  9> C -0.6915191949 0.8584650707 -0.1562621097
| 10> H -0.6748571842 0.507787216 -1.2015000619
| 11> C 0.734213699 1.2971978455 0.2011259935
| 12> H 0.787618563 1.4947417709 1.2819890325
| 13> C 1.7038799294 0.1512237414 -0.1392135819
| 14> H 1.9411526251 0.1968355244 -1.2111009178
| 15> C 1.0044148306 -1.2071685631 0.1028447788
| 16> H 1.745973061 -1.898228503 0.534400347
| 17> O -0.000199625 -1.1462913834 1.0677121609
| 18> O 0.5487917984 -1.6721738795 -1.1312691355
| 19> O 2.872870152 0.1948253216 0.6436972676
| 20> O 1.0015744089 2.4786758682 -0.5303420051
| 21> O -1.611374342 1.9077744509 -0.016637206
| 22> O -2.2023995509 -1.7033152862 -0.8861084707
| 23> H -3.1812658654 -0.3403326263 0.3295626993
| 24> H -2.5376814733 -1.8270482217 1.0814141967
| 25> H -0.2775778738 -2.1692812284 -0.9903924561
| 26> H 3.4559441163 0.8882844777 0.3164527482
| 27> H 1.8376299412 2.8528468148 -0.2356582431
| 28> H -1.1879582402 2.6983919273 -0.3777645957
| 29> H -2.1798672957 -1.0487161919 -1.5937995195
| 30> *
| 31>
| 32>                          ****END OF INPUT****

CARTESIAN COORDINATES (ANGSTROEM)
---------------------------------
  C     -2.340387   -1.042097    0.348507
  C     -1.087269   -0.267154    0.804280
  H     -1.336812    0.197264    1.767243
  C     -0.691519    0.858465   -0.156262
  H     -0.674857    0.507787   -1.201500
  C      0.734214    1.297198    0.201126
  H      0.787619    1.494742    1.281989
  C      1.703880    0.151224   -0.139214
  H      1.941153    0.196836   -1.211101
  C      1.004415   -1.207169    0.102845
  H      1.745973   -1.898229    0.534400
  O     -0.000200   -1.146291    1.067712
  O      0.548792   -1.672174   -1.131269
  O      2.872870    0.194825    0.643697
  O      1.001574    2.478676   -0.530342
  O     -1.611374    1.907774   -0.016637
  O     -2.202400   -1.703315   -0.886108
  H     -3.181266   -0.340333    0.329563
  H     -2.537681   -1.827048    1.081414
  H     -0.277578   -2.169281   -0.990392
  H      3.455944    0.888284    0.316453
  H      1.837630    2.852847   -0.235658
  H     -1.187958    2.698392   -0.377765
  H     -2.179867   -1.048716   -1.593800

 Total Charge           Charge          ....    0
 Multiplicity           Mult            ....    1
 Number of Electrons    NEL             ....   96
 Basis Dimension        Dim             ....  192

ORBITAL ENERGIES
----------------

  NO   OCC          E(Eh)            E(eV)
   0   2.0000     -18.773092      -510.8418
   1   2.0000     -18.771690      -510.8037
   2   2.0000     -18.767280      -510.6836
   3   2.0000     -18.758945      -510.4568
   4   2.0000     -18.751732      -510.2606
   5   2.0000     -18.742496      -510.0092
   6   2.0000      -9.978081      -271.5174
   7   2.0000      -9.947085      -270.6740
   8   2.0000      -9.946315      -270.6530
   9   2.0000      -9.946214      -270.6503
  10   2.0000      -9.938930      -270.4520
  11   2.0000      -9.937657      -270.4174
  12   2.0000      -0.980936       -26.6926
  13   2.0000      -0.955643       -26.0044
  14   2.0000      -0.943025       -25.6610
  15   2.0000      -0.934494       -25.4289
  16   2.0000      -0.923831       -25.1387
  17   2.0000      -0.899559       -24.4782
  18   2.0000      -0.709676       -19.3113
  19   2.0000      -0.693764       -18.8783
  20   2.0000      -0.627711       -17.0809
  21   2.0000      -0.582544       -15.8518
  22   2.0000      -0.570761       -15.5312
  23   2.0000      -0.514206       -13.9922
  24   2.0000      -0.508567       -13.8388
  25   2.0000      -0.492051       -13.3894
  26   2.0000      -0.480930       -13.0868
  27   2.0000      -0.466735       -12.7005
  28   2.0000      -0.437302       -11.8996
  29   2.0000      -0.435024       -11.8376
  30   2.0000      -0.417547       -11.3620
  31   2.0000      -0.398697       -10.8491
  32   2.0000      -0.390527       -10.6268
  33   2.0000      -0.385697       -10.4954
  34   2.0000      -0.359916        -9.7938
  35   2.0000      -0.352656        -9.5963
  36   2.0000      -0.328847        -8.9484
  37   2.0000      -0.324574        -8.8321
  38   2.0000      -0.315108        -8.5745
  39   2.0000      -0.300660        -8.1814
  40   2.0000      -0.286710        -7.8018
  41   2.0000      -0.266776        -7.2593
  42   2.0000      -0.260887        -7.0991
  43   2.0000      -0.248341        -6.7577
  44   2.0000      -0.240361        -6.5405
  45   2.0000      -0.219890        -5.9835
  46   2.0000      -0.213530        -5.8104
  47   2.0000      -0.205407        -5.5894
  48   0.0000      -0.010231        -0.2784
  49   0.0000       0.018523         0.5040
  50   0.0000       0.040489         1.1017
  51   0.0000       0.049910         1.3581
  52   0.0000       0.069168         1.8822

MULLIKEN ATOMIC CHARGES
-----------------------
   0 C :    0.067119
   1 C :    0.043266
   2 H :    0.074604
   3 C :    0.008570
   4 H :    0.048456
   5 C :    0.020257
   6 H :    0.061377
   7 C :    0.071252
   8 H :    0.073820
   9 C :    0.172970
  10 H :    0.068345
  11 O :   -0.304953
  12 O :   -0.429689
  13 O :   -0.405411
  14 O :   -0.423112
  15 O :   -0.418115
  16 O :   -0.434461
  17 H :    0.095242
  18 H :    0.098527
  19 H :    0.297034
  20 H :    0.293753
  21 H :    0.299591
  22 H :    0.307453
  23 H :    0.314103
Sum of atomic charges:    0.0000000

LOEWDIN ATOMIC CHARGES
----------------------
   0 C :   -0.131262
   1 C :   -0.069393
   2 H :    0.123235
   3 C :   -0.080687
   4 H :    0.095285
   5 C :   -0.080233
   6 H :    0.109776
   7 C :   -0.089604
   8 H :    0.113231
   9 C :    0.007447
  10 H :    0.101653
  11 O :   -0.135191
  12 O :   -0.333402
  13 O :   -0.316699
  14 O :   -0.324432
  15 O :   -0.321683
  16 O :   -0.313206
  17 H :    0.114011
  18 H :    0.121021
  19 H :    0.267876
  20 H :    0.282453
  21 H :    0.286058
  22 H :    0.284347
  23 H :    0.289402

  Mayer bond orders larger than 0.100000
B(  0-C ,  1-C ) :   1.0456 B(  0-C , 16-O ) :   1.0489 B(  0-C , 17-H ) :   0.9154
B(  0-C , 18-H ) :   0.9191 B(  1-C ,  2-H ) :   0.8684 B(  1-C ,  3-C ) :   0.9833
B(  1-C , 11-O ) :   0.9752 B(  3-C ,  4-H ) :   0.8587 B(  3-C ,  5-C ) :   1.0502
B(  3-C , 15-O ) :   1.0787 B(  5-C ,  6-H ) :   0.8617 B(  5-C ,  7-C ) :   1.0250
B(  5-C , 14-O ) :   1.0596 B(  7-C ,  8-H ) :   0.8792 B(  7-C ,  9-C ) :   0.9751
B(  7-C , 13-O ) :   1.0802 B(  9-C , 10-H ) :   0.8911 B(  9-C , 11-O ) :   1.0850
B(  9-C , 12-O ) :   1.0808 B( 12-O , 19-H ) :   0.7824 B( 13-O , 20-H ) :   0.8519
B( 14-O , 21-H ) :   0.8464 B( 15-O , 22-H ) :   0.8280 B( 16-O , 19-H ) :   0.1229
B( 16-O , 23-H ) :   0.8355

Dispersion correction           -0.025079212
FINAL SINGLE POINT ENERGY      -685.693349480438

DIPOLE MOMENT
-------------

Method             : SCF
Type of density    : Electron Density
Multiplicity       :   1
Irrep              :   0
Energy             :  -685.8264499516379828 Eh
Relativity type    :
Basis              : AO
                                X                 Y                 Z
Electronic contribution:      1.877252867      -0.287120206       0.086080489
Nuclear contribution   :     -1.499272075       1.457432935      -0.293293131
                        -----------------------------------------
Total Dipole Moment    :      0.377980792       1.170312729      -0.207212642
                        -----------------------------------------
Magnitude (a.u.)       :      1.247172178
Magnitude (Debye)      :      3.170059749

Rotational constants in cm-1:             0.042154             0.028482             0.020487
Rotational constants in MHz :          1263.736586           853.854362           614.177092

                             ****ORCA TERMINATED NORMALLY****
TOTAL RUN TIME: 0 days 0 hours 0 minutes 9 seconds 953 msec
