                         Program Version 6.0.1  -  RELEASE   -
|  1> ! pbe def2-sv(p) def2/J RI DEFGRID1 loosescf d4 GCP(DFT/SV(P)) printgap
|  2> %output
|  3>     printlevel normal
|  4> end
|  5> * xyz 0 1
|  6> C -2.0270906515 -0.5927904787 -0.6855376194
|  7> C -1.191131196 -0.0923187501 0.5140912357
|  8> H -1.8415410037 -0.0473801639 1.3950989124
|  9> C -0.6250775403 1.3212286754 0.2732658182
| 10> H -1.3565318377 1.8828942393 -0.3180937823
| 11> C 0.7035811907 1.2952913135 -0.5099145544
| 12> H 1.1494302558 2.2944577553 -0.4111727809
| 13> C 1.6721660472 0.2697731143 0.1103041604
| 14> H 2.5651689344 0.1753412658 -0.532094945
| 15> C 0.9839030803 -1.1086160503 0.1700408633
| 16> H 1.6059094407 -1.8127516778 0.7429795345
| 17> O -0.2051894874 -1.045156921 0.9062629264
| 18> O 0.8460635573 -1.6669199826 -1.0936120152
| 19> O 2.0262350168 0.733454042 1.3907606856
| 20> O 0.4460911364 0.9864144041 -1.8650586291
| 21> O -0.4678738315 2.0296116374 1.4694959664
| 22> O -2.3175758513 -1.9571467211 -0.5813546797
| 23> H -1.5107936625 -0.3723729049 -1.6312266132
| 24> H -2.9838935232 -0.0658224492 -0.6912383691
| 25> H 0.4540987304 -1.0055072042 -1.688393601
| 26> H 2.4930287113 0.037158804 1.8672349923
| 27> H 1.1973233969 1.2583540263 -2.4040935646
| 28> H 0.2843093234 1.6486994546 1.9475838052
| 29> H -1.495642628 -2.4130407048 -0.3495727413
| 30> *
| 31>
| 32>                          ****END OF INPUT****

CARTESIAN COORDINATES (ANGSTROEM)
---------------------------------
  C     -2.027091   -0.592790   -0.685538
  C     -1.191131   -0.092319    0.514091
  H     -1.841541   -0.047380    1.395099
  C     -0.625078    1.321229    0.273266
  H     -1.356532    1.882894   -0.318094
  C      0.703581    1.295291   -0.509915
  H      1.149430    2.294458   -0.411173
  C      1.672166    0.269773    0.110304
  H      2.565169    0.175341   -0.532095
  C      0.983903   -1.108616    0.170041
  H      1.605909   -1.812752    0.742980
  O     -0.205189   -1.045157    0.906263
  O      0.846064   -1.666920   -1.093612
  O      2.026235    0.733454    1.390761
  O      0.446091    0.986414   -1.865059
  O     -0.467874    2.029612    1.469496
  O     -2.317576   -1.957147   -0.581355
  H     -1.510794   -0.372373   -1.631227
  H     -2.983894   -0.065822   -0.691238
  H      0.454099   -1.005507   -1.688394
  H      2.493029    0.037159    1.867235
  H      1.197323    1.258354   -2.404094
  H      0.284309    1.648699    1.947584
  H     -1.495643   -2.413041   -0.349573

 Total Charge           Charge          ....    0
 Multiplicity           Mult            ....    1
 Number of Electrons    NEL             ....   96
 Basis Dimension        Dim             ....  192

ORBITAL ENERGIES
----------------

  NO   OCC          E(Eh)            E(eV)
   0   2.0000     -18.795883      -511.4620
   1   2.0000     -18.788752      -511.2679
   2   2.0000     -18.772931      -510.8374
   3   2.0000     -18.764615      -510.6111
   4   2.0000     -18.741547      -509.9834
   5   2.0000     -18.728423      -509.6263
   6   2.0000      -9.996520      -272.0191
   7   2.0000      -9.965497      -271.1750
   8   2.0000      -9.963416      -271.1183
   9   2.0000      -9.948380      -270.7092
  10   2.0000      -9.939778      -270.4751
  11   2.0000      -9.923971      -270.0450
  12   2.0000      -0.993755       -27.0414
  13   2.0000      -0.966274       -26.2936
  14   2.0000      -0.959840       -26.1186
  15   2.0000      -0.929468       -25.2921
  16   2.0000      -0.917811       -24.9749
  17   2.0000      -0.904076       -24.6012
  18   2.0000      -0.713175       -19.4065
  19   2.0000      -0.697966       -18.9926
  20   2.0000      -0.618377       -16.8269
  21   2.0000      -0.606985       -16.5169
  22   2.0000      -0.571072       -15.5397
  23   2.0000      -0.535939       -14.5836
  24   2.0000      -0.522580       -14.2201
  25   2.0000      -0.496395       -13.5076
  26   2.0000      -0.479538       -13.0489
  27   2.0000      -0.461505       -12.5582
  28   2.0000      -0.456496       -12.4219
  29   2.0000      -0.441693       -12.0191
  30   2.0000      -0.417990       -11.3741
  31   2.0000      -0.405353       -11.0302
  32   2.0000      -0.391975       -10.6662
  33   2.0000      -0.385204       -10.4819
  34   2.0000      -0.370524       -10.0825
  35   2.0000      -0.359118        -9.7721
  36   2.0000      -0.341555        -9.2942
  37   2.0000      -0.328066        -8.9271
  38   2.0000      -0.318489        -8.6665
  39   2.0000      -0.295204        -8.0329
  40   2.0000      -0.287135        -7.8133
  41   2.0000      -0.276870        -7.5340
  42   2.0000      -0.271654        -7.3921
  43   2.0000      -0.252136        -6.8610
  44   2.0000      -0.242015        -6.5856
  45   2.0000      -0.231907        -6.3105
  46   2.0000      -0.216683        -5.8962
  47   2.0000      -0.195697        -5.3252
  48   0.0000      -0.009999        -0.2721
  49   0.0000       0.002929         0.0797
  50   0.0000       0.053527         1.4565
  51   0.0000       0.056194         1.5291
  52   0.0000       0.066242         1.8025

MULLIKEN ATOMIC CHARGES
-----------------------
   0 C :    0.013103
   1 C :    0.016473
   2 H :    0.082344
   3 C :    0.087763
   4 H :    0.082617
   5 C :   -0.012594
   6 H :    0.092267
   7 C :    0.025986
   8 H :    0.068861
   9 C :    0.179500
  10 H :    0.063756
  11 O :   -0.311085
  12 O :   -0.408401
  13 O :   -0.415671
  14 O :   -0.407141
  15 O :   -0.424591
  16 O :   -0.435515
  17 H :    0.075780
  18 H :    0.087243
  19 H :    0.310261
  20 H :    0.314166
  21 H :    0.316360
  22 H :    0.302122
  23 H :    0.296396
Sum of atomic charges:   -0.0000000

LOEWDIN ATOMIC CHARGES
----------------------
   0 C :   -0.147304
   1 C :   -0.077203
   2 H :    0.123769
   3 C :   -0.063088
   4 H :    0.123442
   5 C :   -0.071892
   6 H :    0.115306
   7 C :   -0.096613
   8 H :    0.101587
   9 C :   -0.016830
  10 H :    0.103482
  11 O :   -0.141639
  12 O :   -0.307581
  13 O :   -0.303759
  14 O :   -0.302347
  15 O :   -0.315826
  16 O :   -0.336443
  17 H :    0.089024
  18 H :    0.117598
  19 H :    0.271048
  20 H :    0.294071
  21 H :    0.297540
  22 H :    0.272991
  23 H :    0.270668

  Mayer bond orders larger than 0.100000
B(  0-C ,  1-C ) :   1.0347 B(  0-C , 16-O ) :   1.0890 B(  0-C , 17-H ) :   0.8954
B(  0-C , 18-H ) :   0.9125 B(  1-C ,  2-H ) :   0.8916 B(  1-C ,  3-C ) :   0.9831
B(  1-C , 11-O ) :   0.9965 B(  3-C ,  4-H ) :   0.8918 B(  3-C ,  5-C ) :   0.9924
B(  3-C , 15-O ) :   1.0615 B(  5-C ,  6-H ) :   0.9017 B(  5-C ,  7-C ) :   0.9849
B(  5-C , 14-O ) :   1.0295 B(  7-C ,  8-H ) :   0.8953 B(  7-C ,  9-C ) :   0.9701
B(  7-C , 13-O ) :   1.0241 B(  9-C , 10-H ) :   0.9072 B(  9-C , 11-O ) :   1.0573
B(  9-C , 12-O ) :   1.1292 B( 12-O , 19-H ) :   0.7887 B( 13-O , 20-H ) :   0.8378
B( 14-O , 19-H ) :   0.1054 B( 14-O , 21-H ) :   0.8364 B( 15-O , 22-H ) :   0.8169
B( 16-O , 23-H ) :   0.8281

Dispersion correction           -0.026347207
FINAL SINGLE POINT ENERGY      -685.697375067398

DIPOLE MOMENT
-------------

Method             : SCF
Type of density    : Electron Density
Multiplicity       :   1
Irrep              :   0
Energy             :  -685.8320730761797677 Eh
Relativity type    :
Basis              : AO
                                X                 Y                 Z
Electronic contribution:      1.167814001      -0.942302774       1.612821048
Nuclear contribution   :      0.531043308       1.468711812      -1.941461081
                        -----------------------------------------
Total Dipole Moment    :      1.698857309       0.526409038      -0.328640033
                        -----------------------------------------
Magnitude (a.u.)       :      1.808653340
Magnitude (Debye)      :      4.597231441

Rotational constants in cm-1:             0.041804             0.028985             0.025530
Rotational constants in MHz :          1253.254643           868.952260           765.384606

                             ****ORCA TERMINATED NORMALLY****
TOTAL RUN TIME: 0 days 0 hours 0 minutes 12 seconds 190 msec
