                         Program Version 6.0.1  -  RELEASE   -
|  1> ! pbe def2-sv(p) def2/J RI DEFGRID1 loosescf d4 GCP(DFT/SV(P)) printgap
|  2> %output
|  3>     printlevel normal
|  4> end
|  5> * xyz 0 1
|  6> C 1.5761461407 -0.6166927154 0.8592059123
|  7> C 0.7215964483 0.1787530547 -0.0812439631
|  8> C 1.1969268537 1.1405117805 -0.8551553139
|  9> C -0.7215681377 -0.1785866381 -0.0814239577
| 10> C -1.1969913306 -1.1404656199 -0.8551404159
| 11> C -1.5761100655 0.6166156616 0.859254618
| 12> H 1.5134547938 -1.6756423278 0.6105995287
| 13> H 1.2222400509 -0.4975674547 1.8830186392
| 14> H 2.6144949883 -0.2994526435 0.8062766497
| 15> H 0.5600460539 1.6936411158 -1.524847398
| 16> H 2.2405826418 1.4080949674 -0.855428351
| 17> H -2.2407434959 -1.4077300247 -0.855357286
| 18> H -0.5602842378 -1.6941093893 -1.5245389166
| 19> H -1.5023738874 1.676996646 0.6204094819
| 20> H -2.6166869364 0.3086372163 0.7964851071
| 21> H -1.2307288859 0.4855168809 1.8845741093
| 22> *
| 23>
| 24>                          ****END OF INPUT****

CARTESIAN COORDINATES (ANGSTROEM)
---------------------------------
  C      1.576146   -0.616693    0.859206
  C      0.721596    0.178753   -0.081244
  C      1.196927    1.140512   -0.855155
  C     -0.721568   -0.178587   -0.081424
  C     -1.196991   -1.140466   -0.855140
  C     -1.576110    0.616616    0.859255
  H      1.513455   -1.675642    0.610600
  H      1.222240   -0.497567    1.883019
  H      2.614495   -0.299453    0.806277
  H      0.560046    1.693641   -1.524847
  H      2.240583    1.408095   -0.855428
  H     -2.240743   -1.407730   -0.855357
  H     -0.560284   -1.694109   -1.524539
  H     -1.502374    1.676997    0.620409
  H     -2.616687    0.308637    0.796485
  H     -1.230729    0.485517    1.884574

 Total Charge           Charge          ....    0
 Multiplicity           Mult            ....    1
 Number of Electrons    NEL             ....   46
 Basis Dimension        Dim             ....  104

ORBITAL ENERGIES
----------------

  NO   OCC          E(Eh)            E(eV)
   0   2.0000      -9.900304      -269.4010
   1   2.0000      -9.900257      -269.3997
   2   2.0000      -9.883340      -268.9393
   3   2.0000      -9.883307      -268.9384
   4   2.0000      -9.873492      -268.6714
   5   2.0000      -9.873474      -268.6709
   6   2.0000      -0.748017       -20.3546
   7   2.0000      -0.679177       -18.4814
   8   2.0000      -0.614429       -16.7195
   9   2.0000      -0.614035       -16.7087
  10   2.0000      -0.524348       -14.2682
  11   2.0000      -0.445261       -12.1162
  12   2.0000      -0.419261       -11.4087
  13   2.0000      -0.395111       -10.7515
  14   2.0000      -0.394128       -10.7248
  15   2.0000      -0.368670       -10.0320
  16   2.0000      -0.362048        -9.8518
  17   2.0000      -0.355386        -9.6706
  18   2.0000      -0.325408        -8.8548
  19   2.0000      -0.320354        -8.7173
  20   2.0000      -0.283942        -7.7264
  21   2.0000      -0.226695        -6.1687
  22   2.0000      -0.216291        -5.8856
  23   0.0000      -0.016185        -0.4404
  24   0.0000      -0.009808        -0.2669
  25   0.0000       0.041368         1.1257
  26   0.0000       0.072464         1.9718
  27   0.0000       0.084218         2.2917

MULLIKEN ATOMIC CHARGES
-----------------------
   0 C :   -0.193994
   1 C :   -0.090972
   2 C :   -0.201720
   3 C :   -0.091078
   4 C :   -0.201704
   5 C :   -0.194080
   6 H :    0.110479
   7 H :    0.107008
   8 H :    0.097346
   9 H :    0.089066
  10 H :    0.082850
  11 H :    0.082837
  12 H :    0.089047
  13 H :    0.110306
  14 H :    0.097388
  15 H :    0.107220
Sum of atomic charges:   -0.0000000

LOEWDIN ATOMIC CHARGES
----------------------
   0 C :   -0.315842
   1 C :   -0.048241
   2 C :   -0.256693
   3 C :   -0.048243
   4 C :   -0.256691
   5 C :   -0.315883
   6 H :    0.131154
   7 H :    0.128245
   8 H :    0.123296
   9 H :    0.120426
  10 H :    0.117670
  11 H :    0.117670
  12 H :    0.120411
  13 H :    0.131011
  14 H :    0.123329
  15 H :    0.128380

  Mayer bond orders larger than 0.100000
B(  0-C ,  1-C ) :   1.1161 B(  0-C ,  6-H ) :   0.9309 B(  0-C ,  7-H ) :   0.9297
B(  0-C ,  8-H ) :   0.9394 B(  1-C ,  2-C ) :   2.0471 B(  1-C ,  3-C ) :   0.9712
B(  2-C ,  9-H ) :   0.9132 B(  2-C , 10-H ) :   0.9066 B(  3-C ,  4-C ) :   2.0472
B(  3-C ,  5-C ) :   1.1160 B(  4-C , 11-H ) :   0.9066 B(  4-C , 12-H ) :   0.9132
B(  5-C , 13-H ) :   0.9311 B(  5-C , 14-H ) :   0.9394 B(  5-C , 15-H ) :   0.9296

Dispersion correction           -0.012801516
FINAL SINGLE POINT ENERGY      -234.038350622865

DIPOLE MOMENT
-------------

Method             : SCF
Type of density    : Electron Density
Multiplicity       :   1
Irrep              :   0
Energy             :  -234.0847206357396146 Eh
Relativity type    :
Basis              : AO
                                X                 Y                 Z
Electronic contribution:      0.000129437       0.000776402      -1.498864026
Nuclear contribution   :      0.000001018      -0.001515149       1.727341476
                        -----------------------------------------
Total Dipole Moment    :      0.000130455      -0.000738748       0.228477450
                        -----------------------------------------
Magnitude (a.u.)       :      0.228478681
Magnitude (Debye)      :      0.580746655

Rotational constants in cm-1:             0.158873             0.087988             0.085996
Rotational constants in MHz :          4762.878780          2637.811271          2578.090670

                             ****ORCA TERMINATED NORMALLY****
TOTAL RUN TIME: 0 days 0 hours 0 minutes 11 seconds 531 msec
