                         Program Version 6.0.1  -  RELEASE   -
|  1> ! pbe def2-sv(p) def2/J RI DEFGRID1 loosescf d4 GCP(DFT/SV(P)) printgap
|  2> %output
|  3>     printlevel normal
|  4> end
|  5> * xyz 0 1
|  6> C -1.7611883383 -1.3774040623 -0.4765631118
|  7> C -1.1239897793 -0.492436733 0.6107703152
|  8> H -1.8229814398 -0.3933550061 1.4505719757
|  9> C -0.8437388119 0.9319405978 0.0930299612
| 10> H -1.1030962323 0.9955315708 -0.9756482617
| 11> C 0.6456619266 1.2598477911 0.2308165252
| 12> H 0.907393363 1.3371063635 1.2983108335
| 13> C 1.4459702915 0.1127103893 -0.3879729718
| 14> H 1.1019725992 -0.0532000929 -1.4198623918
| 15> C 1.1815837505 -1.1660596803 0.4270691977
| 16> H 1.9858740785 -1.2843385057 1.1741781143
| 17> O 0.0141264508 -1.1092259643 1.194206593
| 18> O 1.1887328283 -2.2442713966 -0.4673963672
| 19> O 2.8062897284 0.4738302105 -0.3797074214
| 20> O 0.8921128604 2.4789462754 -0.4204955767
| 21> O -1.6378678158 1.8309523439 0.8256465909
| 22> O -2.8756757282 -0.7698982142 -1.0694079527
| 23> H -2.0288447859 -2.345225818 -0.0262478495
| 24> H -1.0478957922 -1.555347668 -1.284658751
| 25> H 0.9443231352 -3.0472108362 0.0083336863
| 26> H 3.3154786063 -0.233528832 -0.7896999577
| 27> H 1.847918949 2.5502169797 -0.5359636519
| 28> H -1.3535775612 2.7222566832 0.5877428045
| 29> H -3.4706807163 -0.4590225945 -0.3770176429
| 30> *
| 31>
| 32>                          ****END OF INPUT****

CARTESIAN COORDINATES (ANGSTROEM)
---------------------------------
  C     -1.761188   -1.377404   -0.476563
  C     -1.123990   -0.492437    0.610770
  H     -1.822981   -0.393355    1.450572
  C     -0.843739    0.931941    0.093030
  H     -1.103096    0.995532   -0.975648
  C      0.645662    1.259848    0.230817
  H      0.907393    1.337106    1.298311
  C      1.445970    0.112710   -0.387973
  H      1.101973   -0.053200   -1.419862
  C      1.181584   -1.166060    0.427069
  H      1.985874   -1.284339    1.174178
  O      0.014126   -1.109226    1.194207
  O      1.188733   -2.244271   -0.467396
  O      2.806290    0.473830   -0.379707
  O      0.892113    2.478946   -0.420496
  O     -1.637868    1.830952    0.825647
  O     -2.875676   -0.769898   -1.069408
  H     -2.028845   -2.345226   -0.026248
  H     -1.047896   -1.555348   -1.284659
  H      0.944323   -3.047211    0.008334
  H      3.315479   -0.233529   -0.789700
  H      1.847919    2.550217   -0.535964
  H     -1.353578    2.722257    0.587743
  H     -3.470681   -0.459023   -0.377018

 Total Charge           Charge          ....    0
 Multiplicity           Mult            ....    1
 Number of Electrons    NEL             ....   96
 Basis Dimension        Dim             ....  192

ORBITAL ENERGIES
----------------

  NO   OCC          E(Eh)            E(eV)
   0   2.0000     -18.776204      -510.9265
   1   2.0000     -18.769168      -510.7350
   2   2.0000     -18.768773      -510.7243
   3   2.0000     -18.752407      -510.2789
   4   2.0000     -18.750078      -510.2155
   5   2.0000     -18.746064      -510.1063
   6   2.0000      -9.990622      -271.8586
   7   2.0000      -9.947462      -270.6842
   8   2.0000      -9.944743      -270.6102
   9   2.0000      -9.940410      -270.4923
  10   2.0000      -9.937417      -270.4109
  11   2.0000      -9.929215      -270.1877
  12   2.0000      -0.987954       -26.8836
  13   2.0000      -0.951645       -25.8956
  14   2.0000      -0.937267       -25.5043
  15   2.0000      -0.927625       -25.2420
  16   2.0000      -0.918572       -24.9956
  17   2.0000      -0.915156       -24.9027
  18   2.0000      -0.705943       -19.2097
  19   2.0000      -0.695260       -18.9190
  20   2.0000      -0.619148       -16.8479
  21   2.0000      -0.584014       -15.8918
  22   2.0000      -0.575009       -15.6468
  23   2.0000      -0.527664       -14.3585
  24   2.0000      -0.509089       -13.8530
  25   2.0000      -0.482148       -13.1199
  26   2.0000      -0.475316       -12.9340
  27   2.0000      -0.455713       -12.4006
  28   2.0000      -0.450046       -12.2464
  29   2.0000      -0.434554       -11.8248
  30   2.0000      -0.419129       -11.4051
  31   2.0000      -0.393175       -10.6988
  32   2.0000      -0.386448       -10.5158
  33   2.0000      -0.381427       -10.3792
  34   2.0000      -0.361618        -9.8401
  35   2.0000      -0.345115        -9.3911
  36   2.0000      -0.340665        -9.2700
  37   2.0000      -0.321271        -8.7422
  38   2.0000      -0.311225        -8.4689
  39   2.0000      -0.294212        -8.0059
  40   2.0000      -0.286932        -7.8078
  41   2.0000      -0.270915        -7.3720
  42   2.0000      -0.253584        -6.9004
  43   2.0000      -0.244317        -6.6482
  44   2.0000      -0.231715        -6.3053
  45   2.0000      -0.222258        -6.0479
  46   2.0000      -0.216591        -5.8937
  47   2.0000      -0.211704        -5.7608
  48   0.0000       0.014664         0.3990
  49   0.0000       0.025756         0.7009
  50   0.0000       0.031504         0.8573
  51   0.0000       0.048338         1.3154
  52   0.0000       0.056342         1.5332

MULLIKEN ATOMIC CHARGES
-----------------------
   0 C :    0.015693
   1 C :    0.001263
   2 H :    0.078212
   3 C :    0.070653
   4 H :    0.073913
   5 C :    0.059355
   6 H :    0.061059
   7 C :   -0.012210
   8 H :    0.072913
   9 C :    0.197082
  10 H :    0.061800
  11 O :   -0.304987
  12 O :   -0.398889
  13 O :   -0.419717
  14 O :   -0.426111
  15 O :   -0.420157
  16 O :   -0.420699
  17 H :    0.072666
  18 H :    0.104522
  19 H :    0.301626
  20 H :    0.312878
  21 H :    0.309881
  22 H :    0.307426
  23 H :    0.301829
Sum of atomic charges:   -0.0000000

LOEWDIN ATOMIC CHARGES
----------------------
   0 C :   -0.145074
   1 C :   -0.067040
   2 H :    0.120104
   3 C :   -0.069429
   4 H :    0.109747
   5 C :   -0.075817
   6 H :    0.107125
   7 C :   -0.088683
   8 H :    0.110306
   9 C :   -0.009940
  10 H :    0.098795
  11 O :   -0.135067
  12 O :   -0.316147
  13 O :   -0.318718
  14 O :   -0.323394
  15 O :   -0.321450
  16 O :   -0.324796
  17 H :    0.094452
  18 H :    0.114114
  19 H :    0.284547
  20 H :    0.294617
  21 H :    0.287674
  22 H :    0.288060
  23 H :    0.286014

  Mayer bond orders larger than 0.100000
B(  0-C ,  1-C ) :   1.0421 B(  0-C , 16-O ) :   1.0559 B(  0-C , 17-H ) :   0.9143
B(  0-C , 18-H ) :   0.9071 B(  1-C ,  2-H ) :   0.8875 B(  1-C ,  3-C ) :   0.9820
B(  1-C , 11-O ) :   1.0080 B(  3-C ,  4-H ) :   0.8797 B(  3-C ,  5-C ) :   1.0406
B(  3-C , 15-O ) :   1.0708 B(  5-C ,  6-H ) :   0.8654 B(  5-C ,  7-C ) :   1.0171
B(  5-C , 14-O ) :   1.0861 B(  7-C ,  8-H ) :   0.8792 B(  7-C ,  9-C ) :   0.9933
B(  7-C , 13-O ) :   1.0645 B(  9-C , 10-H ) :   0.8870 B(  9-C , 11-O ) :   1.0701
B(  9-C , 12-O ) :   1.1050 B( 12-O , 19-H ) :   0.8386 B( 13-O , 20-H ) :   0.8444
B( 14-O , 21-H ) :   0.8317 B( 15-O , 22-H ) :   0.8415 B( 16-O , 23-H ) :   0.8473

Dispersion correction           -0.024583219
FINAL SINGLE POINT ENERGY      -685.694289274022

DIPOLE MOMENT
-------------

Method             : SCF
Type of density    : Electron Density
Multiplicity       :   1
Irrep              :   0
Energy             :  -685.8251825931531585 Eh
Relativity type    :
Basis              : AO
                                X                 Y                 Z
Electronic contribution:      1.339774093       1.069309110       1.027038999
Nuclear contribution   :     -0.673599952      -1.647136403      -0.839633380
                        -----------------------------------------
Total Dipole Moment    :      0.666174141      -0.577827293       0.187405619
                        -----------------------------------------
Magnitude (a.u.)       :      0.901550460
Magnitude (Debye)      :      2.291559157

Rotational constants in cm-1:             0.037341             0.029157             0.019511
Rotational constants in MHz :          1119.460747           874.092860           584.927252

                             ****ORCA TERMINATED NORMALLY****
TOTAL RUN TIME: 0 days 0 hours 0 minutes 8 seconds 592 msec
