                         Program Version 6.0.1  -  RELEASE   -
|  1> ! pbe def2-sv(p) def2/J RI DEFGRID1 loosescf d4 GCP(DFT/SV(P)) printgap
|  2> %output
|  3>     printlevel normal
|  4> end
|  5> * xyz 0 1
|  6> C -1.8058951854 -1.0491797466 -0.6776209404
|  7> C -1.0337114931 -0.477419513 0.5312754712
|  8> H -1.6884813934 -0.5700396829 1.412554641
|  9> C -0.703162549 1.0124769519 0.3376813177
| 10> H -1.5406837122 1.471912254 -0.2061971065
| 11> C 0.5868016701 1.2448093118 -0.4864751782
| 12> H 0.8512689137 2.3025633671 -0.3605875125
| 13> C 1.7231702468 0.3824677964 0.0818615806
| 14> H 2.5834607224 0.4244921796 -0.5959672763
| 15> C 1.2634530535 -1.0904835753 0.1513225984
| 16> H 2.0143869272 -1.6646076575 0.7147818488
| 17> O 0.088044367 -1.2726410083 0.8880163996
| 18> O 1.1471185861 -1.5707881968 -1.1649073588
| 19> O 2.1645383006 0.8260285426 1.3298412071
| 20> O 0.3939136726 1.0302474913 -1.8555880893
| 21> O -0.4993806468 1.657371332 1.5818937984
| 22> O -3.1327080534 -0.5909584143 -0.7027416919
| 23> H -1.7651196144 -2.1464185292 -0.6278707168
| 24> H -1.364783429 -0.7154840891 -1.6173791198
| 25> H 0.9135087267 -2.5062248775 -1.142355643
| 26> H 1.3856551774 1.067356515 1.8549131859
| 27> H 0.610270449 0.1071786255 -2.0525587018
| 28> H -1.3187779412 1.6468302118 2.0883260381
| 29> H -3.6100915041 -0.9458969168 0.0560639299
| 30> *
| 31>
| 32>                          ****END OF INPUT****

CARTESIAN COORDINATES (ANGSTROEM)
---------------------------------
  C     -1.805895   -1.049180   -0.677621
  C     -1.033711   -0.477420    0.531275
  H     -1.688481   -0.570040    1.412555
  C     -0.703163    1.012477    0.337681
  H     -1.540684    1.471912   -0.206197
  C      0.586802    1.244809   -0.486475
  H      0.851269    2.302563   -0.360588
  C      1.723170    0.382468    0.081862
  H      2.583461    0.424492   -0.595967
  C      1.263453   -1.090484    0.151323
  H      2.014387   -1.664608    0.714782
  O      0.088044   -1.272641    0.888016
  O      1.147119   -1.570788   -1.164907
  O      2.164538    0.826029    1.329841
  O      0.393914    1.030247   -1.855588
  O     -0.499381    1.657371    1.581894
  O     -3.132708   -0.590958   -0.702742
  H     -1.765120   -2.146419   -0.627871
  H     -1.364783   -0.715484   -1.617379
  H      0.913509   -2.506225   -1.142356
  H      1.385655    1.067357    1.854913
  H      0.610270    0.107179   -2.052559
  H     -1.318778    1.646830    2.088326
  H     -3.610092   -0.945897    0.056064

 Total Charge           Charge          ....    0
 Multiplicity           Mult            ....    1
 Number of Electrons    NEL             ....   96
 Basis Dimension        Dim             ....  192

ORBITAL ENERGIES
----------------

  NO   OCC          E(Eh)            E(eV)
   0   2.0000     -18.785854      -511.1891
   1   2.0000     -18.776608      -510.9375
   2   2.0000     -18.774192      -510.8717
   3   2.0000     -18.759873      -510.4821
   4   2.0000     -18.744460      -510.0627
   5   2.0000     -18.738409      -509.8980
   6   2.0000      -9.989778      -271.8357
   7   2.0000      -9.953614      -270.8516
   8   2.0000      -9.948065      -270.7006
   9   2.0000      -9.941014      -270.5087
  10   2.0000      -9.939139      -270.4577
  11   2.0000      -9.938610      -270.4433
  12   2.0000      -0.994301       -27.0563
  13   2.0000      -0.952137       -25.9090
  14   2.0000      -0.937876       -25.5209
  15   2.0000      -0.928726       -25.2719
  16   2.0000      -0.925050       -25.1719
  17   2.0000      -0.915865       -24.9220
  18   2.0000      -0.707494       -19.2519
  19   2.0000      -0.688041       -18.7226
  20   2.0000      -0.629027       -17.1167
  21   2.0000      -0.589973       -16.0540
  22   2.0000      -0.580422       -15.7941
  23   2.0000      -0.525311       -14.2944
  24   2.0000      -0.518423       -14.1070
  25   2.0000      -0.491851       -13.3840
  26   2.0000      -0.474537       -12.9128
  27   2.0000      -0.471091       -12.8190
  28   2.0000      -0.444503       -12.0955
  29   2.0000      -0.420890       -11.4530
  30   2.0000      -0.415674       -11.3111
  31   2.0000      -0.404183       -10.9984
  32   2.0000      -0.398046       -10.8314
  33   2.0000      -0.381273       -10.3750
  34   2.0000      -0.368392       -10.0244
  35   2.0000      -0.358829        -9.7642
  36   2.0000      -0.338962        -9.2236
  37   2.0000      -0.330295        -8.9878
  38   2.0000      -0.306753        -8.3472
  39   2.0000      -0.299900        -8.1607
  40   2.0000      -0.282746        -7.6939
  41   2.0000      -0.274931        -7.4813
  42   2.0000      -0.259701        -7.0668
  43   2.0000      -0.251621        -6.8469
  44   2.0000      -0.243460        -6.6249
  45   2.0000      -0.225446        -6.1347
  46   2.0000      -0.213164        -5.8005
  47   2.0000      -0.204389        -5.5617
  48   0.0000       0.004999         0.1360
  49   0.0000       0.008896         0.2421
  50   0.0000       0.020248         0.5510
  51   0.0000       0.051613         1.4045
  52   0.0000       0.068761         1.8711

MULLIKEN ATOMIC CHARGES
-----------------------
   0 C :    0.026153
   1 C :    0.038731
   2 H :    0.039110
   3 C :    0.033369
   4 H :    0.089104
   5 C :    0.046827
   6 H :    0.087253
   7 C :    0.021089
   8 H :    0.087473
   9 C :    0.176935
  10 H :    0.076135
  11 O :   -0.305245
  12 O :   -0.413533
  13 O :   -0.421690
  14 O :   -0.415118
  15 O :   -0.425703
  16 O :   -0.426614
  17 H :    0.068172
  18 H :    0.082811
  19 H :    0.312019
  20 H :    0.302142
  21 H :    0.317036
  22 H :    0.308577
  23 H :    0.294965
Sum of atomic charges:   -0.0000000

LOEWDIN ATOMIC CHARGES
----------------------
   0 C :   -0.146459
   1 C :   -0.078333
   2 H :    0.102625
   3 C :   -0.077254
   4 H :    0.116582
   5 C :   -0.066748
   6 H :    0.119530
   7 C :   -0.084419
   8 H :    0.121015
   9 C :   -0.009638
  10 H :    0.104775
  11 O :   -0.138919
  12 O :   -0.312700
  13 O :   -0.313450
  14 O :   -0.312678
  15 O :   -0.312511
  16 O :   -0.327088
  17 H :    0.092807
  18 H :    0.114348
  19 H :    0.290506
  20 H :    0.272656
  21 H :    0.273449
  22 H :    0.289945
  23 H :    0.281958

  Mayer bond orders larger than 0.100000
B(  0-C ,  1-C ) :   1.0218 B(  0-C , 16-O ) :   1.0468 B(  0-C , 17-H ) :   0.9116
B(  0-C , 18-H ) :   0.9004 B(  1-C ,  2-H ) :   0.8958 B(  1-C ,  3-C ) :   0.9780
B(  1-C , 11-O ) :   1.0022 B(  3-C ,  4-H ) :   0.8880 B(  3-C ,  5-C ) :   0.9693
B(  3-C , 15-O ) :   0.9908 B(  5-C ,  6-H ) :   0.9017 B(  5-C ,  7-C ) :   1.0105
B(  5-C , 14-O ) :   1.0931 B(  7-C ,  8-H ) :   0.8952 B(  7-C ,  9-C ) :   0.9725
B(  7-C , 13-O ) :   1.0776 B(  9-C , 10-H ) :   0.9042 B(  9-C , 11-O ) :   1.0686
B(  9-C , 12-O ) :   1.0603 B( 12-O , 19-H ) :   0.8306 B( 13-O , 20-H ) :   0.8107
B( 14-O , 21-H ) :   0.7974 B( 15-O , 20-H ) :   0.1011 B( 15-O , 22-H ) :   0.8431
B( 16-O , 23-H ) :   0.8519

Dispersion correction           -0.025931708
FINAL SINGLE POINT ENERGY      -685.697676811619

DIPOLE MOMENT
-------------

Method             : SCF
Type of density    : Electron Density
Multiplicity       :   1
Irrep              :   0
Energy             :  -685.8311624731285292 Eh
Relativity type    :
Basis              : AO
                                X                 Y                 Z
Electronic contribution:      1.774163574       0.344535106       1.101595064
Nuclear contribution   :     -2.745870116      -1.432667412      -0.445694798
                        -----------------------------------------
Total Dipole Moment    :     -0.971706542      -1.088132306       0.655900267
                        -----------------------------------------
Magnitude (a.u.)       :      1.599515764
Magnitude (Debye)      :      4.065645970

Rotational constants in cm-1:             0.041175             0.028248             0.024444
Rotational constants in MHz :          1234.401879           846.844256           732.820248

                             ****ORCA TERMINATED NORMALLY****
TOTAL RUN TIME: 0 days 0 hours 0 minutes 9 seconds 658 msec
