                         Program Version 6.0.1  -  RELEASE   -
|  1> ! pbe def2-sv(p) def2/J RI DEFGRID1 loosescf d4 GCP(DFT/SV(P)) printgap
|  2> %output
|  3>     printlevel normal
|  4> end
|  5> * xyz 0 1
|  6> C -1.5913220181 0.938705964 0.0929005044
|  7> C -1.3089779511 -0.5573255596 -0.0027079476
|  8> C 0.0762648177 -0.9954813768 -0.3912674206
|  9> C 1.2671989061 -0.4402797934 -0.2181177331
| 10> C 1.6485577529 0.8482502735 0.4382203688
| 11> H -1.2187510505 1.4567873523 -0.7878058909
| 12> H -1.1445264201 1.3741478384 0.9822315585
| 13> H -2.6667592072 1.0989029777 0.1511824741
| 14> H -1.5507246223 -1.0260449817 0.9583237077
| 15> H -1.9962683024 -0.9852635144 -0.7385568434
| 16> H 0.0677192515 -1.9691958724 -0.869637066
| 17> H 2.1221921978 -1.00531771 -0.5727940272
| 18> H 2.5247832375 1.2670021584 -0.0541098695
| 19> H 1.9144999369 0.6613265681 1.4801457679
| 20> H 0.8548029067 1.5840827475 0.4159546386
| 21> *
| 22>
| 23>                          ****END OF INPUT****

CARTESIAN COORDINATES (ANGSTROEM)
---------------------------------
  C     -1.591322    0.938706    0.092901
  C     -1.308978   -0.557326   -0.002708
  C      0.076265   -0.995481   -0.391267
  C      1.267199   -0.440280   -0.218118
  C      1.648558    0.848250    0.438220
  H     -1.218751    1.456787   -0.787806
  H     -1.144526    1.374148    0.982232
  H     -2.666759    1.098903    0.151182
  H     -1.550725   -1.026045    0.958324
  H     -1.996268   -0.985264   -0.738557
  H      0.067719   -1.969196   -0.869637
  H      2.122192   -1.005318   -0.572794
  H      2.524783    1.267002   -0.054110
  H      1.914500    0.661327    1.480146
  H      0.854803    1.584083    0.415955

 Total Charge           Charge          ....    0
 Multiplicity           Mult            ....    1
 Number of Electrons    NEL             ....   40
 Basis Dimension        Dim             ....   90

ORBITAL ENERGIES
----------------

  NO   OCC          E(Eh)            E(eV)
   0   2.0000      -9.887685      -269.0576
   1   2.0000      -9.879912      -268.8461
   2   2.0000      -9.879081      -268.8235
   3   2.0000      -9.874568      -268.7007
   4   2.0000      -9.874187      -268.6903
   5   2.0000      -0.719609       -19.5816
   6   2.0000      -0.669978       -18.2310
   7   2.0000      -0.613126       -16.6840
   8   2.0000      -0.549044       -14.9402
   9   2.0000      -0.459046       -12.4913
  10   2.0000      -0.423027       -11.5111
  11   2.0000      -0.397210       -10.8086
  12   2.0000      -0.371300       -10.1036
  13   2.0000      -0.362854        -9.8738
  14   2.0000      -0.343494        -9.3470
  15   2.0000      -0.335669        -9.1340
  16   2.0000      -0.314122        -8.5477
  17   2.0000      -0.289229        -7.8703
  18   2.0000      -0.273629        -7.4458
  19   2.0000      -0.207934        -5.6582
  20   0.0000      -0.003302        -0.0899
  21   0.0000       0.038035         1.0350
  22   0.0000       0.065670         1.7870
  23   0.0000       0.074442         2.0257
  24   0.0000       0.093130         2.5342

MULLIKEN ATOMIC CHARGES
-----------------------
   0 C :   -0.291904
   1 C :   -0.129941
   2 C :   -0.148575
   3 C :   -0.165629
   4 C :   -0.227175
   5 H :    0.112986
   6 H :    0.117059
   7 H :    0.098790
   8 H :    0.102824
   9 H :    0.084741
  10 H :    0.061655
  11 H :    0.063340
  12 H :    0.099699
  13 H :    0.114247
  14 H :    0.107883
Sum of atomic charges:   -0.0000000

LOEWDIN ATOMIC CHARGES
----------------------
   0 C :   -0.342999
   1 C :   -0.233204
   2 C :   -0.155243
   3 C :   -0.157324
   4 C :   -0.343376
   5 H :    0.121203
   6 H :    0.118905
   7 H :    0.120047
   8 H :    0.129815
   9 H :    0.122676
  10 H :    0.118605
  11 H :    0.118620
  12 H :    0.125168
  13 H :    0.131631
  14 H :    0.125477

  Mayer bond orders larger than 0.100000
B(  0-C ,  1-C ) :   1.1578 B(  0-C ,  5-H ) :   0.9532 B(  0-C ,  6-H ) :   0.9408
B(  0-C ,  7-H ) :   0.9455 B(  1-C ,  2-C ) :   1.0859 B(  1-C ,  8-H ) :   0.9051
B(  1-C ,  9-H ) :   0.9177 B(  2-C ,  3-C ) :   2.0374 B(  2-C , 10-H ) :   0.9162
B(  3-C ,  4-C ) :   1.1171 B(  3-C , 11-H ) :   0.9168 B(  4-C , 12-H ) :   0.9386
B(  4-C , 13-H ) :   0.9324 B(  4-C , 14-H ) :   0.9340

Dispersion correction           -0.010160133
FINAL SINGLE POINT ENERGY      -196.025012361583

DIPOLE MOMENT
-------------

Method             : SCF
Type of density    : Electron Density
Multiplicity       :   1
Irrep              :   0
Energy             :  -196.0729252479053173 Eh
Relativity type    :
Basis              : AO
                                X                 Y                 Z
Electronic contribution:      0.951557114      -2.251773612      -0.810899567
Nuclear contribution   :     -1.025442291       2.304529550       0.905265836
                        -----------------------------------------
Total Dipole Moment    :     -0.073885177       0.052755938       0.094366270
                        -----------------------------------------
Magnitude (a.u.)       :      0.130947323
Magnitude (Debye)      :      0.332841643

Rotational constants in cm-1:             0.258504             0.119288             0.086934
Rotational constants in MHz :          7749.742718          3576.152970          2606.212672

                             ****ORCA TERMINATED NORMALLY****
TOTAL RUN TIME: 0 days 0 hours 0 minutes 6 seconds 142 msec
