                         Program Version 6.0.1  -  RELEASE   -
|  1> ! r2scan-3c def2/J RI DEFGRID2 scfconv6 printgap
|  2> %output
|  3>     printlevel normal
|  4> end
|  5> * xyz 0 1
|  6> C -3.2389216943 0.8242746648 -0.7316505122
|  7> N -2.0123615286 0.1255899249 -0.4269252325
|  8> C -1.4601316765 -0.6602785526 -1.5016883784
|  9> C -1.6079102292 0.0618938544 0.8690031854
| 10> O -2.2897304006 0.4493262077 1.7983307588
| 11> N -0.3703049362 -0.5334297944 1.1010182466
| 12> C 0.8336032342 -0.2766104594 0.4405537907
| 13> C 0.9919527548 0.8030595236 -0.4252143999
| 14> C 2.2012434178 1.0092732301 -1.0627014918
| 15> C 3.2694245582 0.1574985926 -0.8399964993
| 16> C 3.1246996639 -0.9011586923 0.041616469
| 17> C 1.9190276336 -1.1186412638 0.6790697823
| 18> H -3.5564168378 1.3631652369 0.1581972916
| 19> H -4.026529828 0.1235447522 -1.0223299773
| 20> H -3.0705279248 1.5275875942 -1.5500968334
| 21> H -2.275308419 -1.1618499969 -2.0296463916
| 22> H -0.781084254 -1.4152726112 -1.1142643339
| 23> H -0.9177709744 -0.034543863 -2.2168926298
| 24> H -0.2696934508 -0.8298979525 2.0631776936
| 25> H 0.17481682 1.4918718834 -0.574758825
| 26> H 2.312098078 1.8514460954 -1.7300502915
| 27> H 4.2114691036 0.3239998182 -1.3396289713
| 28> H 3.9564537408 -1.5626683751 0.2340840118
| 29> H 1.8071254866 -1.9423713854 1.3693627193
| 30> *
| 31>
| 32>                          ****END OF INPUT****

CARTESIAN COORDINATES (ANGSTROEM)
---------------------------------
  C     -3.238922    0.824275   -0.731651
  N     -2.012362    0.125590   -0.426925
  C     -1.460132   -0.660279   -1.501688
  C     -1.607910    0.061894    0.869003
  O     -2.289730    0.449326    1.798331
  N     -0.370305   -0.533430    1.101018
  C      0.833603   -0.276610    0.440554
  C      0.991953    0.803060   -0.425214
  C      2.201243    1.009273   -1.062701
  C      3.269425    0.157499   -0.839996
  C      3.124700   -0.901159    0.041616
  C      1.919028   -1.118641    0.679070
  H     -3.556417    1.363165    0.158197
  H     -4.026530    0.123545   -1.022330
  H     -3.070528    1.527588   -1.550097
  H     -2.275308   -1.161850   -2.029646
  H     -0.781084   -1.415273   -1.114264
  H     -0.917771   -0.034544   -2.216893
  H     -0.269693   -0.829898    2.063178
  H      0.174817    1.491872   -0.574759
  H      2.312098    1.851446   -1.730050
  H      4.211469    0.324000   -1.339629
  H      3.956454   -1.562668    0.234084
  H      1.807125   -1.942371    1.369363

 Total Charge           Charge          ....    0
 Multiplicity           Mult            ....    1
 Number of Electrons    NEL             ....   88
 Basis Dimension        Dim             ....  303

ORBITAL ENERGIES
----------------

  NO   OCC          E(Eh)            E(eV)
   0   2.0000     -18.905034      -514.4321
   1   2.0000     -14.194227      -386.2446
   2   2.0000     -14.189821      -386.1247
   3   2.0000     -10.149289      -276.1762
   4   2.0000     -10.085654      -274.4446
   5   2.0000     -10.066955      -273.9358
   6   2.0000     -10.059712      -273.7387
   7   2.0000     -10.040930      -273.2276
   8   2.0000     -10.040628      -273.2194
   9   2.0000     -10.038886      -273.1720
  10   2.0000     -10.037335      -273.1298
  11   2.0000     -10.033057      -273.0134
  12   2.0000      -1.016741       -27.6669
  13   2.0000      -0.915055       -24.8999
  14   2.0000      -0.899163       -24.4675
  15   2.0000      -0.821208       -22.3462
  16   2.0000      -0.725035       -19.7292
  17   2.0000      -0.716690       -19.5021
  18   2.0000      -0.694548       -18.8996
  19   2.0000      -0.668950       -18.2030
  20   2.0000      -0.594460       -16.1761
  21   2.0000      -0.587789       -15.9946
  22   2.0000      -0.535870       -14.5818
  23   2.0000      -0.517092       -14.0708
  24   2.0000      -0.488192       -13.2844
  25   2.0000      -0.463321       -12.6076
  26   2.0000      -0.452761       -12.3203
  27   2.0000      -0.440199       -11.9784
  28   2.0000      -0.419396       -11.4124
  29   2.0000      -0.410765       -11.1775
  30   2.0000      -0.397313       -10.8114
  31   2.0000      -0.392830       -10.6895
  32   2.0000      -0.380430       -10.3520
  33   2.0000      -0.375915       -10.2292
  34   2.0000      -0.369464       -10.0536
  35   2.0000      -0.349311        -9.5052
  36   2.0000      -0.345347        -9.3974
  37   2.0000      -0.334645        -9.1061
  38   2.0000      -0.320140        -8.7115
  39   2.0000      -0.284894        -7.7524
  40   2.0000      -0.243647        -6.6300
  41   2.0000      -0.235114        -6.3978
  42   2.0000      -0.214719        -5.8428
  43   2.0000      -0.200274        -5.4497
  44   0.0000      -0.038914        -1.0589
  45   0.0000      -0.033387        -0.9085
  46   0.0000       0.021453         0.5838
  47   0.0000       0.063516         1.7284
  48   0.0000       0.076838         2.0909

MULLIKEN ATOMIC CHARGES
-----------------------
   0 C :   -0.395476
   1 N :    0.033189
   2 C :   -0.429828
   3 C :    0.166607
   4 O :   -0.457928
   5 N :   -0.116449
   6 C :    0.244658
   7 C :   -0.243147
   8 C :   -0.154806
   9 C :   -0.175120
  10 C :   -0.118393
  11 C :   -0.347090
  12 H :    0.197851
  13 H :    0.146649
  14 H :    0.139470
  15 H :    0.141141
  16 H :    0.180873
  17 H :    0.173728
  18 H :    0.264685
  19 H :    0.164143
  20 H :    0.146492
  21 H :    0.147286
  22 H :    0.147963
  23 H :    0.143502
Sum of atomic charges:   -0.0000000

LOEWDIN ATOMIC CHARGES
----------------------
   0 C :   -0.105666
   1 N :   -0.818435
   2 C :   -0.102414
   3 C :    0.427506
   4 O :   -0.431410
   5 N :   -0.572542
   6 C :    0.139289
   7 C :   -0.144594
   8 C :   -0.155055
   9 C :   -0.185983
  10 C :   -0.153363
  11 C :   -0.146010
  12 H :    0.209597
  13 H :    0.171134
  14 H :    0.170443
  15 H :    0.175353
  16 H :    0.200234
  17 H :    0.174070
  18 H :    0.286558
  19 H :    0.184380
  20 H :    0.168412
  21 H :    0.166940
  22 H :    0.168585
  23 H :    0.172973

  Mayer bond orders larger than 0.100000
B(  0-C ,  1-N ) :   0.9209 B(  0-C , 12-H ) :   0.9523 B(  0-C , 13-H ) :   0.9561
B(  0-C , 14-H ) :   0.9562 B(  1-N ,  2-C ) :   0.9251 B(  1-N ,  3-C ) :   1.1834
B(  2-C , 15-H ) :   0.9475 B(  2-C , 16-H ) :   0.9555 B(  2-C , 17-H ) :   0.9541
B(  3-C ,  4-O ) :   1.9164 B(  3-C ,  5-N ) :   1.0666 B(  5-N ,  6-C ) :   0.8939
B(  5-N , 18-H ) :   0.9115 B(  6-C ,  7-C ) :   1.3705 B(  6-C , 11-C ) :   1.3614
B(  7-C ,  8-C ) :   1.3926 B(  7-C , 19-H ) :   0.9465 B(  8-C ,  9-C ) :   1.4164
B(  8-C , 20-H ) :   0.9533 B(  9-C , 10-C ) :   1.4135 B(  9-C , 21-H ) :   0.9492
B( 10-C , 11-C ) :   1.4081 B( 10-C , 22-H ) :   0.9437 B( 11-C , 23-H ) :   0.9494

Dispersion correction           -0.009207338
FINAL SINGLE POINT ENERGY      -534.788487376291

DIPOLE MOMENT
-------------

Method             : SCF
Type of density    : Electron Density
Multiplicity       :   1
Irrep              :   0
Energy             :  -534.7986216105048243 Eh
Relativity type    :
Basis              : AO
                                X                 Y                 Z
Electronic contribution:      2.760095616      -0.157016095       6.171765264
Nuclear contribution   :     -2.331786361      -0.244184281      -7.243140926
                        -----------------------------------------
Total Dipole Moment    :      0.428309255      -0.401200376      -1.071375662
                        -----------------------------------------
Magnitude (a.u.)       :      1.221579457
Magnitude (Debye)      :      3.105008220

Rotational constants in cm-1:             0.068249             0.019562             0.017371
Rotational constants in MHz :          2046.062931           586.439714           520.757370

                             ****ORCA TERMINATED NORMALLY****
TOTAL RUN TIME: 0 days 0 hours 0 minutes 45 seconds 463 msec
