                         Program Version 6.0.1  -  RELEASE   -
|  1> ! pbe def2-sv(p) def2/J RI DEFGRID1 loosescf d4 GCP(DFT/SV(P)) printgap
|  2> %output
|  3>     printlevel normal
|  4> end
|  5> * xyz 0 1
|  6> C -1.7981441233 -1.0660646406 -0.6698920723
|  7> C -1.0304830023 -0.4850677508 0.5284427455
|  8> H -1.6916790162 -0.5510942587 1.4001338501
|  9> C -0.7079125527 1.0016717131 0.3256534825
| 10> H -1.5545614351 1.4457588854 -0.2152216094
| 11> C 0.58769812 1.2384882787 -0.4897993523
| 12> H 0.8629953901 2.2980573804 -0.3800899816
| 13> C 1.7174910043 0.3805146761 0.103617519
| 14> H 2.6033945074 0.4443231971 -0.5376066109
| 15> C 1.2680418211 -1.0940251183 0.1558811141
| 16> H 2.0203445837 -1.6674407463 0.7192401141
| 17> O 0.0912230408 -1.2782171774 0.8857360393
| 18> O 1.1659571726 -1.5742242626 -1.1639342271
| 19> O 2.1015558669 0.8192934363 1.3731898641
| 20> O 0.4117441971 1.0160338987 -1.8622486662
| 21> O -0.5846482981 1.574799356 1.615007655
| 22> O -3.080921546 -0.4839849538 -0.6670158684
| 23> H -1.8616862912 -2.1560424289 -0.5364833505
| 24> H -1.277978735 -0.849557551 -1.6103280164
| 25> H 0.929277807 -2.5088316644 -1.1382015809
| 26> H 1.3058927951 0.8445993769 1.9308598934
| 27> H 0.6360027982 0.0928053045 -2.04870152
| 28> H -0.5029272186 2.5313742278 1.5286592399
| 29> H -3.5716675025 -0.8021113825 -1.4319176187
| 30> *
| 31>
| 32>                          ****END OF INPUT****

CARTESIAN COORDINATES (ANGSTROEM)
---------------------------------
  C     -1.798144   -1.066065   -0.669892
  C     -1.030483   -0.485068    0.528443
  H     -1.691679   -0.551094    1.400134
  C     -0.707913    1.001672    0.325653
  H     -1.554561    1.445759   -0.215222
  C      0.587698    1.238488   -0.489799
  H      0.862995    2.298057   -0.380090
  C      1.717491    0.380515    0.103618
  H      2.603395    0.444323   -0.537607
  C      1.268042   -1.094025    0.155881
  H      2.020345   -1.667441    0.719240
  O      0.091223   -1.278217    0.885736
  O      1.165957   -1.574224   -1.163934
  O      2.101556    0.819293    1.373190
  O      0.411744    1.016034   -1.862249
  O     -0.584648    1.574799    1.615008
  O     -3.080922   -0.483985   -0.667016
  H     -1.861686   -2.156042   -0.536483
  H     -1.277979   -0.849558   -1.610328
  H      0.929278   -2.508832   -1.138202
  H      1.305893    0.844599    1.930860
  H      0.636003    0.092805   -2.048702
  H     -0.502927    2.531374    1.528659
  H     -3.571668   -0.802111   -1.431918

 Total Charge           Charge          ....    0
 Multiplicity           Mult            ....    1
 Number of Electrons    NEL             ....   96
 Basis Dimension        Dim             ....  192

ORBITAL ENERGIES
----------------

  NO   OCC          E(Eh)            E(eV)
   0   2.0000     -18.786099      -511.1957
   1   2.0000     -18.775145      -510.8977
   2   2.0000     -18.767747      -510.6964
   3   2.0000     -18.755321      -510.3582
   4   2.0000     -18.744139      -510.0540
   5   2.0000     -18.740855      -509.9646
   6   2.0000      -9.990518      -271.8558
   7   2.0000      -9.946768      -270.6653
   8   2.0000      -9.942636      -270.5529
   9   2.0000      -9.940514      -270.4951
  10   2.0000      -9.940297      -270.4892
  11   2.0000      -9.936737      -270.3924
  12   2.0000      -0.993821       -27.0433
  13   2.0000      -0.947939       -25.7947
  14   2.0000      -0.932921       -25.3861
  15   2.0000      -0.927379       -25.2353
  16   2.0000      -0.924110       -25.1463
  17   2.0000      -0.916205       -24.9312
  18   2.0000      -0.707120       -19.2417
  19   2.0000      -0.685853       -18.6630
  20   2.0000      -0.624554       -16.9950
  21   2.0000      -0.588562       -16.0156
  22   2.0000      -0.578574       -15.7438
  23   2.0000      -0.526054       -14.3147
  24   2.0000      -0.507365       -13.8061
  25   2.0000      -0.482234       -13.1223
  26   2.0000      -0.477639       -12.9972
  27   2.0000      -0.464752       -12.6465
  28   2.0000      -0.441052       -12.0016
  29   2.0000      -0.435263       -11.8441
  30   2.0000      -0.415057       -11.2943
  31   2.0000      -0.405706       -11.0398
  32   2.0000      -0.387347       -10.5403
  33   2.0000      -0.378742       -10.3061
  34   2.0000      -0.362077        -9.8526
  35   2.0000      -0.357938        -9.7400
  36   2.0000      -0.333548        -9.0763
  37   2.0000      -0.327820        -8.9204
  38   2.0000      -0.310994        -8.4626
  39   2.0000      -0.298165        -8.1135
  40   2.0000      -0.278780        -7.5860
  41   2.0000      -0.270702        -7.3662
  42   2.0000      -0.264744        -7.2040
  43   2.0000      -0.248795        -6.7700
  44   2.0000      -0.239841        -6.5264
  45   2.0000      -0.221868        -6.0373
  46   2.0000      -0.217212        -5.9106
  47   2.0000      -0.198341        -5.3971
  48   0.0000       0.008880         0.2416
  49   0.0000       0.016099         0.4381
  50   0.0000       0.024018         0.6536
  51   0.0000       0.057194         1.5563
  52   0.0000       0.067139         1.8269

MULLIKEN ATOMIC CHARGES
-----------------------
   0 C :    0.009887
   1 C :    0.066687
   2 H :    0.091289
   3 C :    0.017353
   4 H :    0.090919
   5 C :    0.041089
   6 H :    0.062870
   7 C :    0.029526
   8 H :    0.087036
   9 C :    0.170602
  10 H :    0.078015
  11 O :   -0.304552
  12 O :   -0.415204
  13 O :   -0.425700
  14 O :   -0.418773
  15 O :   -0.418664
  16 O :   -0.429541
  17 H :    0.067689
  18 H :    0.060136
  19 H :    0.311868
  20 H :    0.298344
  21 H :    0.316734
  22 H :    0.307972
  23 H :    0.304418
Sum of atomic charges:    0.0000000

LOEWDIN ATOMIC CHARGES
----------------------
   0 C :   -0.143232
   1 C :   -0.056171
   2 H :    0.128729
   3 C :   -0.078412
   4 H :    0.116361
   5 C :   -0.078355
   6 H :    0.106647
   7 C :   -0.084472
   8 H :    0.121296
   9 C :   -0.010195
  10 H :    0.104887
  11 O :   -0.133250
  12 O :   -0.314678
  13 O :   -0.314349
  14 O :   -0.318941
  15 O :   -0.309087
  16 O :   -0.337549
  17 H :    0.094011
  18 H :    0.093686
  19 H :    0.290902
  20 H :    0.269908
  21 H :    0.272121
  22 H :    0.290278
  23 H :    0.289864

  Mayer bond orders larger than 0.100000
B(  0-C ,  1-C ) :   1.0657 B(  0-C , 16-O ) :   1.0760 B(  0-C , 17-H ) :   0.9083
B(  0-C , 18-H ) :   0.8949 B(  1-C ,  2-H ) :   0.8879 B(  1-C ,  3-C ) :   1.0158
B(  1-C , 11-O ) :   0.9957 B(  3-C ,  4-H ) :   0.8855 B(  3-C ,  5-C ) :   0.9504
B(  3-C , 15-O ) :   1.0087 B(  5-C ,  6-H ) :   0.9046 B(  5-C ,  7-C ) :   0.9868
B(  5-C , 14-O ) :   1.0887 B(  7-C ,  8-H ) :   0.8931 B(  7-C ,  9-C ) :   0.9898
B(  7-C , 13-O ) :   1.0682 B(  9-C , 10-H ) :   0.9052 B(  9-C , 11-O ) :   1.0753
B(  9-C , 12-O ) :   1.0561 B( 12-O , 19-H ) :   0.8315 B( 13-O , 20-H ) :   0.8074
B( 14-O , 21-H ) :   0.7987 B( 15-O , 20-H ) :   0.1045 B( 15-O , 22-H ) :   0.8410
B( 16-O , 23-H ) :   0.8493

Dispersion correction           -0.026010427
FINAL SINGLE POINT ENERGY      -685.698596469545

DIPOLE MOMENT
-------------

Method             : SCF
Type of density    : Electron Density
Multiplicity       :   1
Irrep              :   0
Energy             :  -685.8322630839689964 Eh
Relativity type    :
Basis              : AO
                                X                 Y                 Z
Electronic contribution:      1.437967926       0.131979794       1.592365812
Nuclear contribution   :     -1.971035087      -0.822771319      -2.173555566
                        -----------------------------------------
Total Dipole Moment    :     -0.533067162      -0.690791525      -0.581189754
                        -----------------------------------------
Magnitude (a.u.)       :      1.048396424
Magnitude (Debye)      :      2.664811933

Rotational constants in cm-1:             0.040961             0.028728             0.024813
Rotational constants in MHz :          1227.988194           861.235370           743.879554

                             ****ORCA TERMINATED NORMALLY****
TOTAL RUN TIME: 0 days 0 hours 0 minutes 8 seconds 539 msec
