                         Program Version 6.0.1  -  RELEASE   -
|  1> ! r2scan-3c def2/J RI DEFGRID2 scfconv6 printgap
|  2> %output
|  3>     printlevel normal
|  4> end
|  5> * xyz 0 1
|  6> C 1.5886633118 1.6247348991 0.7909840364
|  7> C 0.2944150529 0.8773087285 1.1672758965
|  8> H -0.0439843207 1.2679247237 2.1297310484
|  9> C 0.3283774807 -0.6783343355 1.2518514645
| 10> H -0.0404297612 -0.9900081645 2.2324562057
| 11> C 1.6634712434 -1.404029028 1.040287228
| 12> O 2.4537362971 -0.8414664963 0.031144103
| 13> S 3.6848808745 0.1358838535 0.6203542064
| 14> O 4.4032161078 -0.5846208995 1.618250539
| 15> O 2.69523526 1.1529036426 1.5012279867
| 16> C -0.7388883294 -1.0924666088 0.2016676086
| 17> C -0.2222558412 -0.6965763211 -1.1666722515
| 18> C -0.279474139 0.6412185992 -1.2320270824
| 19> C -0.8087517864 1.1331779011 0.1026377941
| 20> C -1.8120673345 0.0004620966 0.410189687
| 21> Cl -3.1396242066 -0.0906613972 -0.7529138527
| 22> Cl -2.4948138117 0.053231389 2.0303128408
| 23> Cl -1.4475105067 2.7626881929 0.1038185851
| 24> Cl 0.1828774278 1.6670028165 -2.4974595873
| 25> Cl 0.3436735402 -1.7992597723 -2.3066551176
| 26> Cl -1.2864709036 -2.7484290353 0.3472356338
| 27> H 1.4551359967 2.6843262537 1.0312046834
| 28> H 1.7769272491 1.5333636897 -0.2837363642
| 29> H 2.232028087 -1.4013378254 1.9786982826
| 30> H 1.4555108473 -2.4450870162 0.7717898417
| 31> *
| 32>
| 33>                          ****END OF INPUT****

CARTESIAN COORDINATES (ANGSTROEM)
---------------------------------
  C      1.588663    1.624735    0.790984
  C      0.294415    0.877309    1.167276
  H     -0.043984    1.267925    2.129731
  C      0.328377   -0.678334    1.251851
  H     -0.040430   -0.990008    2.232456
  C      1.663471   -1.404029    1.040287
  O      2.453736   -0.841466    0.031144
  S      3.684881    0.135884    0.620354
  O      4.403216   -0.584621    1.618251
  O      2.695235    1.152904    1.501228
  C     -0.738888   -1.092467    0.201668
  C     -0.222256   -0.696576   -1.166672
  C     -0.279474    0.641219   -1.232027
  C     -0.808752    1.133178    0.102638
  C     -1.812067    0.000462    0.410190
  Cl    -3.139624   -0.090661   -0.752914
  Cl    -2.494814    0.053231    2.030313
  Cl    -1.447511    2.762688    0.103819
  Cl     0.182877    1.667003   -2.497460
  Cl     0.343674   -1.799260   -2.306655
  Cl    -1.286471   -2.748429    0.347236
  H      1.455136    2.684326    1.031205
  H      1.776927    1.533364   -0.283736
  H      2.232028   -1.401338    1.978698
  H      1.455511   -2.445087    0.771790

 Total Charge           Charge          ....    0
 Multiplicity           Mult            ....    1
 Number of Electrons    NEL             ....  202
 Basis Dimension        Dim             ....  462

ORBITAL ENERGIES
----------------

  NO   OCC          E(Eh)            E(eV)
   0   2.0000    -101.259124     -2755.4008
   1   2.0000    -101.256602     -2755.3322
   2   2.0000    -101.248043     -2755.0993
   3   2.0000    -101.242704     -2754.9540
   4   2.0000    -101.241789     -2754.9291
   5   2.0000    -101.238392     -2754.8367
   6   2.0000     -88.751075     -2415.0395
   7   2.0000     -19.012629      -517.3599
   8   2.0000     -19.010139      -517.2922
   9   2.0000     -18.976792      -516.3848
  10   2.0000     -10.202285      -277.6183
  11   2.0000     -10.166049      -276.6323
  12   2.0000     -10.162858      -276.5454
  13   2.0000     -10.137490      -275.8551
  14   2.0000     -10.136148      -275.8186
  15   2.0000     -10.119940      -275.3776
  16   2.0000     -10.114311      -275.2244
  17   2.0000     -10.094746      -274.6920
  18   2.0000     -10.093619      -274.6613
  19   2.0000      -9.414482      -256.1811
  20   2.0000      -9.412051      -256.1149
  21   2.0000      -9.404198      -255.9012
  22   2.0000      -9.398609      -255.7491
  23   2.0000      -9.397699      -255.7244
  24   2.0000      -9.394388      -255.6343
  25   2.0000      -8.026911      -218.4234
  26   2.0000      -7.161022      -194.8613
  27   2.0000      -7.158647      -194.7967
  28   2.0000      -7.150906      -194.5860
  29   2.0000      -7.150855      -194.5847
  30   2.0000      -7.149935      -194.5596
  31   2.0000      -7.148332      -194.5160
  32   2.0000      -7.147505      -194.4935
  33   2.0000      -7.145241      -194.4319
  34   2.0000      -7.144310      -194.4066
  35   2.0000      -7.141357      -194.3262
  36   2.0000      -7.140001      -194.2893
  37   2.0000      -7.139915      -194.2870
  38   2.0000      -7.134537      -194.1406
  39   2.0000      -7.134311      -194.1345
  40   2.0000      -7.133635      -194.1161
  41   2.0000      -7.133405      -194.1098
  42   2.0000      -7.130088      -194.0196
  43   2.0000      -7.129963      -194.0161
  44   2.0000      -5.974428      -162.5724
  45   2.0000      -5.973213      -162.5394
  46   2.0000      -5.964348      -162.2982
  47   2.0000      -1.114707       -30.3327
  48   2.0000      -1.028870       -27.9970
  49   2.0000      -1.024464       -27.8771
  50   2.0000      -0.973367       -26.4867
  51   2.0000      -0.894389       -24.3376
  52   2.0000      -0.881951       -23.9991
  53   2.0000      -0.854661       -23.2565
  54   2.0000      -0.845513       -23.0076
  55   2.0000      -0.821103       -22.3433
  56   2.0000      -0.814701       -22.1691
  57   2.0000      -0.774840       -21.0845
  58   2.0000      -0.739733       -20.1292
  59   2.0000      -0.711257       -19.3543
  60   2.0000      -0.671204       -18.2644
  61   2.0000      -0.670563       -18.2469
  62   2.0000      -0.602216       -16.3871
  63   2.0000      -0.586621       -15.9628
  64   2.0000      -0.572416       -15.5762
  65   2.0000      -0.541701       -14.7404
  66   2.0000      -0.531536       -14.4638
  67   2.0000      -0.520767       -14.1708
  68   2.0000      -0.509699       -13.8696
  69   2.0000      -0.495282       -13.4773
  70   2.0000      -0.481434       -13.1005
  71   2.0000      -0.465459       -12.6658
  72   2.0000      -0.461624       -12.5614
  73   2.0000      -0.455475       -12.3941
  74   2.0000      -0.448969       -12.2171
  75   2.0000      -0.433018       -11.7830
  76   2.0000      -0.427796       -11.6409
  77   2.0000      -0.422697       -11.5022
  78   2.0000      -0.415466       -11.3054
  79   2.0000      -0.401509       -10.9256
  80   2.0000      -0.389246       -10.5919
  81   2.0000      -0.385270       -10.4837
  82   2.0000      -0.369318       -10.0497
  83   2.0000      -0.357283        -9.7222
  84   2.0000      -0.346102        -9.4179
  85   2.0000      -0.344500        -9.3743
  86   2.0000      -0.335172        -9.1205
  87   2.0000      -0.327089        -8.9005
  88   2.0000      -0.319083        -8.6827
  89   2.0000      -0.316399        -8.6097
  90   2.0000      -0.313335        -8.5263
  91   2.0000      -0.311289        -8.4706
  92   2.0000      -0.306130        -8.3302
  93   2.0000      -0.303701        -8.2641
  94   2.0000      -0.302021        -8.2184
  95   2.0000      -0.297375        -8.0920
  96   2.0000      -0.295952        -8.0533
  97   2.0000      -0.293314        -7.9815
  98   2.0000      -0.280577        -7.6349
  99   2.0000      -0.268966        -7.3189
 100   2.0000      -0.242654        -6.6029
 101   0.0000      -0.075276        -2.0484
 102   0.0000      -0.069422        -1.8891
 103   0.0000      -0.048559        -1.3213
 104   0.0000      -0.030047        -0.8176
 105   0.0000      -0.015968        -0.4345

MULLIKEN ATOMIC CHARGES
-----------------------
   0 C :   -0.152227
   1 C :   -0.278315
   2 H :    0.222348
   3 C :   -0.110650
   4 H :    0.226234
   5 C :   -0.230833
   6 O :   -0.289973
   7 S :    0.670398
   8 O :   -0.464124
   9 O :   -0.283385
  10 C :    0.205068
  11 C :   -0.034737
  12 C :   -0.314571
  13 C :    0.357229
  14 C :    0.102065
  15 Cl:   -0.064892
  16 Cl:   -0.067678
  17 Cl:   -0.086177
  18 Cl:   -0.021630
  19 Cl:   -0.022605
  20 Cl:   -0.082376
  21 H :    0.173644
  22 H :    0.167488
  23 H :    0.197523
  24 H :    0.182175
Sum of atomic charges:   -0.0000000

LOEWDIN ATOMIC CHARGES
----------------------
   0 C :    0.027934
   1 C :   -0.168495
   2 H :    0.189997
   3 C :   -0.172440
   4 H :    0.193964
   5 C :    0.018797
   6 O :   -0.697631
   7 S :    1.076231
   8 O :   -0.505818
   9 O :   -0.666901
  10 C :   -0.233636
  11 C :   -0.228402
  12 C :   -0.250442
  13 C :   -0.230732
  14 C :   -0.293796
  15 Cl:    0.173825
  16 Cl:    0.174701
  17 Cl:    0.172406
  18 Cl:    0.219231
  19 Cl:    0.245380
  20 Cl:    0.171782
  21 H :    0.192757
  22 H :    0.192246
  23 H :    0.200562
  24 H :    0.198480

  Mayer bond orders larger than 0.100000
B(  0-C ,  1-C ) :   0.8653 B(  0-C ,  9-O ) :   0.9014 B(  0-C , 21-H ) :   0.9480
B(  0-C , 22-H ) :   0.9694 B(  1-C ,  2-H ) :   0.9440 B(  1-C ,  3-C ) :   0.9319
B(  1-C , 13-C ) :   0.9188 B(  3-C ,  4-H ) :   0.9512 B(  3-C ,  5-C ) :   0.8232
B(  3-C , 10-C ) :   0.9581 B(  5-C ,  6-O ) :   0.7934 B(  5-C , 23-H ) :   0.9691
B(  5-C , 24-H ) :   0.9510 B(  6-O ,  7-S ) :   0.8171 B(  7-S ,  8-O ) :   1.6874
B(  7-S ,  9-O ) :   0.7834 B( 10-C , 11-C ) :   0.9536 B( 10-C , 14-C ) :   0.8653
B( 10-C , 20-Cl) :   1.0200 B( 11-C , 12-C ) :   1.4103 B( 11-C , 19-Cl) :   1.1341
B( 12-C , 13-C ) :   0.7980 B( 12-C , 18-Cl) :   1.2300 B( 13-C , 14-C ) :   0.8513
B( 13-C , 17-Cl) :   1.0390 B( 14-C , 15-Cl) :   1.0690 B( 14-C , 16-Cl) :   1.0158

Dispersion correction           -0.018921151
FINAL SINGLE POINT ENERGY     -3731.287629619130

DIPOLE MOMENT
-------------

Method             : SCF
Type of density    : Electron Density
Multiplicity       :   1
Irrep              :   0
Energy             : -3731.2990611967584300 Eh
Relativity type    :
Basis              : AO
                                X                 Y                 Z
Electronic contribution:    -17.034329529      -0.514348768     -11.494304570
Nuclear contribution   :     16.972603511       0.809690381      11.531011105
                        -----------------------------------------
Total Dipole Moment    :     -0.061726018       0.295341613       0.036706535
                        -----------------------------------------
Magnitude (a.u.)       :      0.303947594
Magnitude (Debye)      :      0.772573385

Rotational constants in cm-1:             0.010026             0.006533             0.006151
Rotational constants in MHz :           300.583468           195.853238           184.409868

                             ****ORCA TERMINATED NORMALLY****
TOTAL RUN TIME: 0 days 0 hours 1 minutes 10 seconds 313 msec
