                         Program Version 6.0.1  -  RELEASE   -
|  1> ! pbe def2-sv(p) def2/J RI DEFGRID1 loosescf d4 GCP(DFT/SV(P)) printgap
|  2> %output
|  3>     printlevel normal
|  4> end
|  5> * xyz 0 1
|  6> C -0.4855287573 -1.4134738637 -0.0004605725
|  7> N -0.4285728954 0.0350318876 0.002923129
|  8> C -1.6668716809 0.7662339331 -0.0014225686
|  9> C 0.7775907617 0.6234872663 0.0006372099
| 10> O 1.8318953885 0.0338470813 -0.0010145226
| 11> H 0.0156501399 -1.8050538333 -0.8874951047
| 12> H -1.522083734 -1.7383135384 0.0070677392
| 13> H 0.0295739263 -1.8084743685 0.8768965182
| 14> H -1.4595629613 1.8348518716 0.0032596812
| 15> H -2.2612236731 0.5208469986 0.8829100685
| 16> H -2.2522742748 0.5268783845 -0.8934640619
| 17> H 0.7096724565 1.7281980285 0.001154798
| 18> *
| 19>
| 20>                          ****END OF INPUT****

CARTESIAN COORDINATES (ANGSTROEM)
---------------------------------
  C     -0.485529   -1.413474   -0.000461
  N     -0.428573    0.035032    0.002923
  C     -1.666872    0.766234   -0.001423
  C      0.777591    0.623487    0.000637
  O      1.831895    0.033847   -0.001015
  H      0.015650   -1.805054   -0.887495
  H     -1.522084   -1.738314    0.007068
  H      0.029574   -1.808474    0.876897
  H     -1.459563    1.834852    0.003260
  H     -2.261224    0.520847    0.882910
  H     -2.252274    0.526878   -0.893464
  H      0.709672    1.728198    0.001155

 Total Charge           Charge          ....    0
 Multiplicity           Mult            ....    1
 Number of Electrons    NEL             ....   40
 Basis Dimension        Dim             ....   84

ORBITAL ENERGIES
----------------

  NO   OCC          E(Eh)            E(eV)
   0   2.0000     -18.709951      -509.1236
   1   2.0000     -14.032960      -381.8563
   2   2.0000      -9.964239      -271.1407
   3   2.0000      -9.931353      -270.2459
   4   2.0000      -9.919884      -269.9338
   5   2.0000      -0.933070       -25.3901
   6   2.0000      -0.854535       -23.2531
   7   2.0000      -0.665808       -18.1176
   8   2.0000      -0.636566       -17.3218
   9   2.0000      -0.509360       -13.8604
  10   2.0000      -0.467217       -12.7136
  11   2.0000      -0.433560       -11.7978
  12   2.0000      -0.415215       -11.2986
  13   2.0000      -0.371134       -10.0991
  14   2.0000      -0.371033       -10.0963
  15   2.0000      -0.353283        -9.6133
  16   2.0000      -0.339812        -9.2468
  17   2.0000      -0.327149        -8.9022
  18   2.0000      -0.207248        -5.6395
  19   2.0000      -0.198768        -5.4087
  20   0.0000       0.002770         0.0754
  21   0.0000       0.032844         0.8937
  22   0.0000       0.065669         1.7870
  23   0.0000       0.078343         2.1318
  24   0.0000       0.088428         2.4063

MULLIKEN ATOMIC CHARGES
-----------------------
   0 C :   -0.177272
   1 N :   -0.211630
   2 C :   -0.183565
   3 C :    0.059553
   4 O :   -0.236993
   5 H :    0.125754
   6 H :    0.107879
   7 H :    0.126170
   8 H :    0.119917
   9 H :    0.117466
  10 H :    0.117347
  11 H :    0.035375
Sum of atomic charges:    0.0000000

LOEWDIN ATOMIC CHARGES
----------------------
   0 C :   -0.249525
   1 N :   -0.067260
   2 C :   -0.248896
   3 C :   -0.044058
   4 O :   -0.194073
   5 H :    0.127152
   6 H :    0.120089
   7 H :    0.127490
   8 H :    0.124778
   9 H :    0.116696
  10 H :    0.116566
  11 H :    0.071040

  Mayer bond orders larger than 0.100000
B(  0-C ,  1-N ) :   0.9938 B(  0-C ,  5-H ) :   0.9513 B(  0-C ,  6-H ) :   0.9512
B(  0-C ,  7-H ) :   0.9512 B(  1-N ,  2-C ) :   1.0230 B(  1-N ,  3-C ) :   1.2090
B(  2-C ,  8-H ) :   0.9430 B(  2-C ,  9-H ) :   0.9485 B(  2-C , 10-H ) :   0.9484
B(  3-C ,  4-O ) :   2.0095 B(  3-C , 11-H ) :   0.9076

Dispersion correction           -0.007684786
FINAL SINGLE POINT ENERGY      -247.959244706373

DIPOLE MOMENT
-------------

Method             : SCF
Type of density    : Electron Density
Multiplicity       :   1
Irrep              :   0
Energy             :  -248.0050675420234256 Eh
Relativity type    :
Basis              : AO
                                X                 Y                 Z
Electronic contribution:      4.808083277       0.787726643       0.008551671
Nuclear contribution   :     -6.298671012      -0.694550638      -0.009071441
                        -----------------------------------------
Total Dipole Moment    :     -1.490587735       0.093176005      -0.000519770
                        -----------------------------------------
Magnitude (a.u.)       :      1.493497182
Magnitude (Debye)      :      3.796168151

Rotational constants in cm-1:             0.304024             0.142624             0.100748
Rotational constants in MHz :          9114.422779          4275.760112          3020.340835

                             ****ORCA TERMINATED NORMALLY****
TOTAL RUN TIME: 0 days 0 hours 0 minutes 15 seconds 555 msec
