                         Program Version 6.0.1  -  RELEASE   -
|  1> ! pbe def2-sv(p) def2/J RI DEFGRID1 loosescf d4 GCP(DFT/SV(P)) printgap
|  2> %output
|  3>     printlevel normal
|  4> end
|  5> * xyz 0 1
|  6> C -3.4038926562 0.6673485902 0.3307869702
|  7> C -1.9083361271 0.3833136796 0.4463879196
|  8> H -1.6386251268 0.4235597647 1.5073426505
|  9> C -1.0765304537 1.4269764131 -0.3226494797
| 10> C -0.0393889804 0.8153363394 -1.2703949157
| 11> C 0.7587660492 -0.3585160674 -0.6911615586
| 12> H 1.0918577046 -0.9745605562 -1.5390960134
| 13> C -0.1240588477 -1.2898395091 0.1183799734
| 14> O 0.3186474393 -2.1561479279 0.8319715769
| 15> C -1.5993700781 -1.037263073 -0.0450643035
| 16> C 2.0432677469 -0.0125741412 0.0929035375
| 17> C 3.1433724393 0.5056032201 -0.8299102637
| 18> C 1.8020569215 0.9702232678 1.2342683042
| 19> H -3.6300616921 1.6625383884 0.7071457524
| 20> H -3.7243779753 0.6087739453 -0.7075178495
| 21> H -3.9770380507 -0.0546410757 0.908164563
| 22> H -1.7435077529 2.0495438562 -0.9235110587
| 23> H -0.5846996648 2.0876694703 0.3896888946
| 24> H -0.5579071526 0.4645504731 -2.1660409346
| 25> H 0.6482218601 1.597773886 -1.5940524762
| 26> H -1.8763480929 -1.134442473 -1.095941866
| 27> H -2.1604048356 -1.7697363895 0.5370500397
| 28> H 2.3815978417 -0.9583266636 0.5312691872
| 29> H 4.057119116 0.6676341765 -0.2629821383
| 30> H 2.8600315762 1.4515178188 -1.2867854518
| 31> H 3.3560690556 -0.2092274362 -1.6217998455
| 32> H 1.5739608608 1.9631684971 0.8546084468
| 33> H 2.6965430638 1.0446045276 1.8491137412
| 34> H 0.9851297871 0.6311344947 1.8662174003
| 35> *
| 36>
| 37>                          ****END OF INPUT****

CARTESIAN COORDINATES (ANGSTROEM)
---------------------------------
  C     -3.403893    0.667349    0.330787
  C     -1.908336    0.383314    0.446388
  H     -1.638625    0.423560    1.507343
  C     -1.076530    1.426976   -0.322649
  C     -0.039389    0.815336   -1.270395
  C      0.758766   -0.358516   -0.691162
  H      1.091858   -0.974561   -1.539096
  C     -0.124059   -1.289840    0.118380
  O      0.318647   -2.156148    0.831972
  C     -1.599370   -1.037263   -0.045064
  C      2.043268   -0.012574    0.092904
  C      3.143372    0.505603   -0.829910
  C      1.802057    0.970223    1.234268
  H     -3.630062    1.662538    0.707146
  H     -3.724378    0.608774   -0.707518
  H     -3.977038   -0.054641    0.908165
  H     -1.743508    2.049544   -0.923511
  H     -0.584700    2.087669    0.389689
  H     -0.557907    0.464550   -2.166041
  H      0.648222    1.597774   -1.594052
  H     -1.876348   -1.134442   -1.095942
  H     -2.160405   -1.769736    0.537050
  H      2.381598   -0.958327    0.531269
  H      4.057119    0.667634   -0.262982
  H      2.860032    1.451518   -1.286785
  H      3.356069   -0.209227   -1.621800
  H      1.573961    1.963168    0.854608
  H      2.696543    1.044605    1.849114
  H      0.985130    0.631134    1.866217

 Total Charge           Charge          ....    0
 Multiplicity           Mult            ....    1
 Number of Electrons    NEL             ....   86
 Basis Dimension        Dim             ....  190

ORBITAL ENERGIES
----------------

  NO   OCC          E(Eh)            E(eV)
   0   2.0000     -18.732290      -509.7315
   1   2.0000      -9.966149      -271.1927
   2   2.0000      -9.907105      -269.5860
   3   2.0000      -9.897763      -269.3318
   4   2.0000      -9.894812      -269.2515
   5   2.0000      -9.893234      -269.2086
   6   2.0000      -9.888758      -269.0868
   7   2.0000      -9.888044      -269.0674
   8   2.0000      -9.880269      -268.8558
   9   2.0000      -9.873966      -268.6843
  10   2.0000      -9.873492      -268.6714
  11   2.0000      -0.935522       -25.4568
  12   2.0000      -0.766423       -20.8554
  13   2.0000      -0.728610       -19.8265
  14   2.0000      -0.676666       -18.4130
  15   2.0000      -0.654997       -17.8234
  16   2.0000      -0.617477       -16.8024
  17   2.0000      -0.610631       -16.6161
  18   2.0000      -0.560842       -15.2613
  19   2.0000      -0.511155       -13.9092
  20   2.0000      -0.502855       -13.6834
  21   2.0000      -0.456088       -12.4108
  22   2.0000      -0.449909       -12.2427
  23   2.0000      -0.424928       -11.5629
  24   2.0000      -0.411620       -11.2007
  25   2.0000      -0.395650       -10.7662
  26   2.0000      -0.388028       -10.5588
  27   2.0000      -0.376680       -10.2500
  28   2.0000      -0.364507        -9.9187
  29   2.0000      -0.361098        -9.8260
  30   2.0000      -0.349865        -9.5203
  31   2.0000      -0.343202        -9.3390
  32   2.0000      -0.338843        -9.2204
  33   2.0000      -0.336448        -9.1552
  34   2.0000      -0.324590        -8.8325
  35   2.0000      -0.317472        -8.6389
  36   2.0000      -0.295808        -8.0493
  37   2.0000      -0.294903        -8.0247
  38   2.0000      -0.291807        -7.9405
  39   2.0000      -0.280743        -7.6394
  40   2.0000      -0.270619        -7.3639
  41   2.0000      -0.263995        -7.1837
  42   2.0000      -0.188164        -5.1202
  43   0.0000      -0.046959        -1.2778
  44   0.0000       0.021996         0.5985
  45   0.0000       0.040437         1.1004
  46   0.0000       0.048867         1.3297
  47   0.0000       0.061641         1.6773

MULLIKEN ATOMIC CHARGES
-----------------------
   0 C :   -0.215698
   1 C :   -0.253603
   2 H :    0.084492
   3 C :   -0.098270
   4 C :   -0.105989
   5 C :   -0.141258
   6 H :    0.092502
   7 C :   -0.000660
   8 O :   -0.151827
   9 C :   -0.040039
  10 C :   -0.164563
  11 C :   -0.236874
  12 C :   -0.256562
  13 H :    0.106718
  14 H :    0.094955
  15 H :    0.100461
  16 H :    0.076412
  17 H :    0.087625
  18 H :    0.069253
  19 H :    0.091390
  20 H :    0.083363
  21 H :    0.081919
  22 H :    0.088438
  23 H :    0.099996
  24 H :    0.095562
  25 H :    0.096578
  26 H :    0.102657
  27 H :    0.102414
  28 H :    0.110608
Sum of atomic charges:   -0.0000000

LOEWDIN ATOMIC CHARGES
----------------------
   0 C :   -0.326572
   1 C :   -0.145701
   2 H :    0.120085
   3 C :   -0.221901
   4 C :   -0.220515
   5 C :   -0.164105
   6 H :    0.144872
   7 C :    0.049735
   8 O :   -0.121881
   9 C :   -0.236002
  10 C :   -0.145498
  11 C :   -0.329654
  12 C :   -0.330413
  13 H :    0.120297
  14 H :    0.116599
  15 H :    0.119226
  16 H :    0.120259
  17 H :    0.120341
  18 H :    0.119546
  19 H :    0.121924
  20 H :    0.132272
  21 H :    0.127596
  22 H :    0.123825
  23 H :    0.120210
  24 H :    0.113045
  25 H :    0.116908
  26 H :    0.114987
  27 H :    0.122099
  28 H :    0.118417

  Mayer bond orders larger than 0.100000
B(  0-C ,  1-C ) :   1.1174 B(  0-C , 13-H ) :   0.9480 B(  0-C , 14-H ) :   0.9447
B(  0-C , 15-H ) :   0.9465 B(  1-C ,  2-H ) :   0.8934 B(  1-C ,  3-C ) :   1.0651
B(  1-C ,  9-C ) :   1.1205 B(  3-C ,  4-C ) :   1.1877 B(  3-C , 16-H ) :   0.9067
B(  3-C , 17-H ) :   0.9032 B(  4-C ,  5-C ) :   1.0855 B(  4-C , 18-H ) :   0.8809
B(  4-C , 19-H ) :   0.9073 B(  5-C ,  6-H ) :   0.8470 B(  5-C ,  7-C ) :   0.9121
B(  5-C , 10-C ) :   1.0581 B(  7-C ,  8-O ) :   2.1856 B(  7-C ,  9-C ) :   1.0870
B(  9-C , 20-H ) :   0.8597 B(  9-C , 21-H ) :   0.8905 B( 10-C , 11-C ) :   1.1157
B( 10-C , 12-C ) :   1.1289 B( 10-C , 22-H ) :   0.8808 B( 11-C , 23-H ) :   0.9489
B( 11-C , 24-H ) :   0.9390 B( 11-C , 25-H ) :   0.9488 B( 12-C , 26-H ) :   0.9343
B( 12-C , 27-H ) :   0.9446 B( 12-C , 28-H ) :   0.9410

Dispersion correction           -0.030653449
FINAL SINGLE POINT ENERGY      -466.028803739921

DIPOLE MOMENT
-------------

Method             : SCF
Type of density    : Electron Density
Multiplicity       :   1
Irrep              :   0
Energy             :  -466.1246801378683813 Eh
Relativity type    :
Basis              : AO
                                X                 Y                 Z
Electronic contribution:     -0.100932660      -8.162451027       1.370157812
Nuclear contribution   :     -0.222721806       8.928937524      -1.908203062
                        -----------------------------------------
Total Dipole Moment    :     -0.323654466       0.766486497      -0.538045250
                        -----------------------------------------
Magnitude (a.u.)       :      0.990831194
Magnitude (Debye)      :      2.518492746

Rotational constants in cm-1:             0.058786             0.026156             0.022222
Rotational constants in MHz :          1762.371893           784.145247           666.203533

                             ****ORCA TERMINATED NORMALLY****
TOTAL RUN TIME: 0 days 0 hours 0 minutes 18 seconds 278 msec
