                         Program Version 6.0.1  -  RELEASE   -
|  1> ! pbe def2-sv(p) def2/J RI DEFGRID1 loosescf d4 GCP(DFT/SV(P)) printgap
|  2> %output
|  3>     printlevel normal
|  4> end
|  5> * xyz 0 1
|  6> C -1.4861194711 -1.4509148817 0.2515196916
|  7> O -1.5759810305 -0.1067996542 -0.1896851219
|  8> C -0.6356340948 0.7992333018 0.0608881964
|  9> O -0.7810022215 1.9308485693 -0.3074749473
| 10> C 0.6166844019 0.3662972314 0.8198241625
| 11> Cl 1.6558947353 -0.601982686 -0.2688524711
| 12> H -2.3531476708 -1.9508604726 -0.1765604598
| 13> H -1.5388069141 -1.5119772894 1.3414539881
| 14> H -0.5741922924 -1.9325447261 -0.1040382739
| 15> H 0.3921569183 -0.2406503901 1.6959681482
| 16> H 1.1781347358 1.2567843061 1.0993630346
| 17> *
| 18>
| 19>                          ****END OF INPUT****

CARTESIAN COORDINATES (ANGSTROEM)
---------------------------------
  C     -1.486119   -1.450915    0.251520
  O     -1.575981   -0.106800   -0.189685
  C     -0.635634    0.799233    0.060888
  O     -0.781002    1.930849   -0.307475
  C      0.616684    0.366297    0.819824
  Cl     1.655895   -0.601983   -0.268852
  H     -2.353148   -1.950860   -0.176560
  H     -1.538807   -1.511977    1.341454
  H     -0.574192   -1.932545   -0.104038
  H      0.392157   -0.240650    1.695968
  H      1.178135    1.256784    1.099363

 Total Charge           Charge          ....    0
 Multiplicity           Mult            ....    1
 Number of Electrons    NEL             ....   56
 Basis Dimension        Dim             ....   98

ORBITAL ENERGIES
----------------

  NO   OCC          E(Eh)            E(eV)
   0   2.0000    -100.647075     -2738.7461
   1   2.0000     -18.810671      -511.8644
   2   2.0000     -18.744485      -510.0634
   3   2.0000     -10.023681      -272.7582
   4   2.0000      -9.965837      -271.1842
   5   2.0000      -9.955815      -270.9115
   6   2.0000      -9.182605      -249.8714
   7   2.0000      -7.014605      -190.8771
   8   2.0000      -7.002164      -190.5386
   9   2.0000      -7.001835      -190.5296
  10   2.0000      -1.016931       -27.6721
  11   2.0000      -0.932156       -25.3653
  12   2.0000      -0.798843       -21.7376
  13   2.0000      -0.676640       -18.4123
  14   2.0000      -0.646116       -17.5817
  15   2.0000      -0.528549       -14.3826
  16   2.0000      -0.478930       -13.0324
  17   2.0000      -0.451830       -12.2949
  18   2.0000      -0.443562       -12.0699
  19   2.0000      -0.407061       -11.0767
  20   2.0000      -0.399720       -10.8769
  21   2.0000      -0.372827       -10.1451
  22   2.0000      -0.358590        -9.7577
  23   2.0000      -0.314443        -8.5564
  24   2.0000      -0.279151        -7.5961
  25   2.0000      -0.270765        -7.3679
  26   2.0000      -0.262651        -7.1471
  27   2.0000      -0.226649        -6.1674
  28   0.0000      -0.059015        -1.6059
  29   0.0000       0.011142         0.3032
  30   0.0000       0.037923         1.0319
  31   0.0000       0.060852         1.6559
  32   0.0000       0.076761         2.0888

MULLIKEN ATOMIC CHARGES
-----------------------
   0 C :   -0.141578
   1 O :   -0.213158
   2 C :    0.150287
   3 O :   -0.154592
   4 C :   -0.223532
   5 Cl:   -0.110410
   6 H :    0.139162
   7 H :    0.114863
   8 H :    0.123793
   9 H :    0.151803
  10 H :    0.163361
Sum of atomic charges:   -0.0000000

LOEWDIN ATOMIC CHARGES
----------------------
   0 C :   -0.213851
   1 O :   -0.061606
   2 C :    0.004272
   3 O :   -0.124873
   4 C :   -0.310146
   5 Cl:    0.074892
   6 H :    0.129979
   7 H :    0.112825
   8 H :    0.108806
   9 H :    0.133588
  10 H :    0.146115

  Mayer bond orders larger than 0.100000
B(  0-C ,  1-O ) :   0.9554 B(  0-C ,  6-H ) :   0.9582 B(  0-C ,  7-H ) :   0.9464
B(  0-C ,  8-H ) :   0.9290 B(  1-O ,  2-C ) :   1.1895 B(  2-C ,  3-O ) :   2.1520
B(  2-C ,  4-C ) :   0.9633 B(  4-C ,  5-Cl) :   1.0223 B(  4-C ,  9-H ) :   0.9017
B(  4-C , 10-H ) :   0.9149

Dispersion correction           -0.008969013
FINAL SINGLE POINT ENERGY      -727.072139418429

DIPOLE MOMENT
-------------

Method             : SCF
Type of density    : Electron Density
Multiplicity       :   1
Irrep              :   0
Energy             :  -727.1135148604125789 Eh
Relativity type    :
Basis              : AO
                                X                 Y                 Z
Electronic contribution:      5.042287759       2.148967398      -3.064425168
Nuclear contribution   :     -4.974255782      -3.273509340       3.971268119
                        -----------------------------------------
Total Dipole Moment    :      0.068031977      -1.124541942       0.906842950
                        -----------------------------------------
Magnitude (a.u.)       :      1.446232023
Magnitude (Debye)      :      3.676029665

Rotational constants in cm-1:             0.129028             0.076897             0.054074
Rotational constants in MHz :          3868.149327          2305.313252          1621.096475

                             ****ORCA TERMINATED NORMALLY****
TOTAL RUN TIME: 0 days 0 hours 0 minutes 7 seconds 422 msec
