                         Program Version 6.0.1  -  RELEASE   -
|  1> ! pbe def2-sv(p) def2/J RI DEFGRID1 loosescf d4 GCP(DFT/SV(P)) printgap
|  2> %output
|  3>     printlevel normal
|  4> end
|  5> * xyz 0 1
|  6> C 2.4730452995 1.1632886632 -0.3340876078
|  7> C 1.6997559295 -0.0803311953 0.0281812913
|  8> O 2.2515857952 -1.1161272809 0.3190264374
|  9> C 0.2161737441 0.0230024267 0.0046312826
| 10> C -0.4846149059 1.2165238087 -0.1640214099
| 11> C -1.8683184741 1.1838540428 -0.1687423287
| 12> C -2.5038656556 -0.0389862283 -0.0036113104
| 13> N -1.8527313328 -1.1791852338 0.1560247922
| 14> C -0.5359306004 -1.1462235213 0.159784919
| 15> H 2.29511988 1.9383750369 0.4088916482
| 16> H 2.1604931525 1.5341045808 -1.3076165813
| 17> H 3.5345664593 0.9310316734 -0.3565145448
| 18> H 0.0321303342 2.157228997 -0.2817476231
| 19> H -2.4430283469 2.0884822529 -0.2944977546
| 20> H -3.5834660117 -0.1123815633 0.0033400981
| 21> H -0.0286287981 -2.0929554094 0.2903081125
| 22> *
| 23>
| 24>                          ****END OF INPUT****

CARTESIAN COORDINATES (ANGSTROEM)
---------------------------------
  C      2.473045    1.163289   -0.334088
  C      1.699756   -0.080331    0.028181
  O      2.251586   -1.116127    0.319026
  C      0.216174    0.023002    0.004631
  C     -0.484615    1.216524   -0.164021
  C     -1.868318    1.183854   -0.168742
  C     -2.503866   -0.038986   -0.003611
  N     -1.852731   -1.179185    0.156025
  C     -0.535931   -1.146224    0.159785
  H      2.295120    1.938375    0.408892
  H      2.160493    1.534105   -1.307617
  H      3.534566    0.931032   -0.356515
  H      0.032130    2.157229   -0.281748
  H     -2.443028    2.088482   -0.294498
  H     -3.583466   -0.112382    0.003340
  H     -0.028629   -2.092955    0.290308

 Total Charge           Charge          ....    0
 Multiplicity           Mult            ....    1
 Number of Electrons    NEL             ....   64
 Basis Dimension        Dim             ....  140

ORBITAL ENERGIES
----------------

  NO   OCC          E(Eh)            E(eV)
   0   2.0000     -18.749626      -510.2033
   1   2.0000     -13.993892      -380.7932
   2   2.0000      -9.985334      -271.7148
   3   2.0000      -9.938702      -270.4458
   4   2.0000      -9.933927      -270.3159
   5   2.0000      -9.929066      -270.1836
   6   2.0000      -9.918535      -269.8971
   7   2.0000      -9.917019      -269.8558
   8   2.0000      -9.896018      -269.2843
   9   2.0000      -0.950675       -25.8692
  10   2.0000      -0.873299       -23.7637
  11   2.0000      -0.749071       -20.3833
  12   2.0000      -0.707313       -19.2470
  13   2.0000      -0.674530       -18.3549
  14   2.0000      -0.594553       -16.1786
  15   2.0000      -0.576661       -15.6917
  16   2.0000      -0.511425       -13.9166
  17   2.0000      -0.475391       -12.9360
  18   2.0000      -0.452816       -12.3217
  19   2.0000      -0.421827       -11.4785
  20   2.0000      -0.414713       -11.2849
  21   2.0000      -0.405061       -11.0223
  22   2.0000      -0.379845       -10.3361
  23   2.0000      -0.375744       -10.2245
  24   2.0000      -0.369284       -10.0487
  25   2.0000      -0.357359        -9.7242
  26   2.0000      -0.334320        -9.0973
  27   2.0000      -0.332811        -9.0563
  28   2.0000      -0.278722        -7.5844
  29   2.0000      -0.253069        -6.8864
  30   2.0000      -0.222955        -6.0669
  31   2.0000      -0.202880        -5.5207
  32   0.0000      -0.100100        -2.7239
  33   0.0000      -0.065992        -1.7957
  34   0.0000      -0.012790        -0.3480
  35   0.0000       0.030889         0.8405
  36   0.0000       0.058497         1.5918

MULLIKEN ATOMIC CHARGES
-----------------------
   0 C :   -0.256055
   1 C :    0.000500
   2 O :   -0.143578
   3 C :    0.020601
   4 C :   -0.065838
   5 C :   -0.059862
   6 C :   -0.047508
   7 N :   -0.042295
   8 C :   -0.079516
   9 H :    0.129603
  10 H :    0.127248
  11 H :    0.122278
  12 H :    0.065242
  13 H :    0.066880
  14 H :    0.078590
  15 H :    0.083709
Sum of atomic charges:    0.0000000

LOEWDIN ATOMIC CHARGES
----------------------
   0 C :   -0.363387
   1 C :    0.044477
   2 O :   -0.113650
   3 C :   -0.097048
   4 C :   -0.085448
   5 C :   -0.138852
   6 C :   -0.064062
   7 N :   -0.066693
   8 C :   -0.042752
   9 H :    0.143417
  10 H :    0.140538
  11 H :    0.138310
  12 H :    0.129606
  13 H :    0.131410
  14 H :    0.118624
  15 H :    0.125508

  Mayer bond orders larger than 0.100000
B(  0-C ,  1-C ) :   1.1165 B(  0-C ,  9-H ) :   0.9124 B(  0-C , 10-H ) :   0.9230
B(  0-C , 11-H ) :   0.9300 B(  1-C ,  2-O ) :   2.1828 B(  1-C ,  3-C ) :   0.9168
B(  3-C ,  4-C ) :   1.3866 B(  3-C ,  8-C ) :   1.3399 B(  4-C ,  5-C ) :   1.4122
B(  4-C , 12-H ) :   0.9424 B(  5-C ,  6-C ) :   1.3745 B(  5-C , 13-H ) :   0.9453
B(  6-C ,  7-N ) :   1.5350 B(  6-C , 14-H ) :   0.9523 B(  7-N ,  8-C ) :   1.5531
B(  8-C , 15-H ) :   0.9435

Dispersion correction           -0.016434352
FINAL SINGLE POINT ENERGY      -400.084744860183

DIPOLE MOMENT
-------------

Method             : SCF
Type of density    : Electron Density
Multiplicity       :   1
Irrep              :   0
Energy             :  -400.1301773495791849 Eh
Relativity type    :
Basis              : AO
                                X                 Y                 Z
Electronic contribution:     -2.120530132      -4.535130029       1.122726704
Nuclear contribution   :      1.868733668       6.022461284      -1.437171964
                        -----------------------------------------
Total Dipole Moment    :     -0.251796465       1.487331255      -0.314445261
                        -----------------------------------------
Magnitude (a.u.)       :      1.540919058
Magnitude (Debye)      :      3.916704980

Rotational constants in cm-1:             0.126578             0.041599             0.031565
Rotational constants in MHz :          3794.716603          1247.097318           946.288580

                             ****ORCA TERMINATED NORMALLY****
TOTAL RUN TIME: 0 days 0 hours 0 minutes 14 seconds 547 msec
