                         Program Version 6.0.1  -  RELEASE   -
|  1> ! pbe def2-sv(p) def2/J RI DEFGRID1 loosescf d4 GCP(DFT/SV(P)) printgap
|  2> %output
|  3>     printlevel normal
|  4> end
|  5> * xyz 0 1
|  6> C -1.0884684352 -1.8882858759 -0.0002605895
|  7> C -0.0102698813 -0.8583408651 -0.0001469182
|  8> C 1.3244938357 -1.2458908484 0.0001236917
|  9> C 2.3476694126 -0.3157198622 0.000233601
| 10> C 2.0556389961 1.0402888287 6.23777e-05
| 11> C 0.7386600167 1.4474552482 -0.0001193258
| 12> C -0.3047062117 0.5170599619 -0.0002153565
| 13> C -1.6755921412 1.0312505061 -0.0002094187
| 14> O -2.6976551108 0.3907945 0.000507956
| 15> H -1.7281652454 -1.7675639446 0.8726180145
| 16> H -1.7283961845 -1.7670926393 -0.872913481
| 17> H -0.6662475793 -2.8904228019 -0.0005750144
| 18> H 1.5643183515 -2.2996645499 0.0002759022
| 19> H 3.3757036462 -0.6470001742 0.0004285617
| 20> H 2.8520306488 1.769069324 -5.10215e-05
| 21> H 0.498822379 2.501616723 -0.0004453821
| 22> H -1.712966902 2.1411526847 -0.0010618377
| 23> *
| 24>
| 25>                          ****END OF INPUT****

CARTESIAN COORDINATES (ANGSTROEM)
---------------------------------
  C     -1.088468   -1.888286   -0.000261
  C     -0.010270   -0.858341   -0.000147
  C      1.324494   -1.245891    0.000124
  C      2.347669   -0.315720    0.000234
  C      2.055639    1.040289    0.000062
  C      0.738660    1.447455   -0.000119
  C     -0.304706    0.517060   -0.000215
  C     -1.675592    1.031251   -0.000209
  O     -2.697655    0.390794    0.000508
  H     -1.728165   -1.767564    0.872618
  H     -1.728396   -1.767093   -0.872913
  H     -0.666248   -2.890423   -0.000575
  H      1.564318   -2.299665    0.000276
  H      3.375704   -0.647000    0.000429
  H      2.852031    1.769069   -0.000051
  H      0.498822    2.501617   -0.000445
  H     -1.712967    2.141153   -0.001062

 Total Charge           Charge          ....    0
 Multiplicity           Mult            ....    1
 Number of Electrons    NEL             ....   64
 Basis Dimension        Dim             ....  142

ORBITAL ENERGIES
----------------

  NO   OCC          E(Eh)            E(eV)
   0   2.0000     -18.746649      -510.1223
   1   2.0000      -9.966764      -271.2094
   2   2.0000      -9.922939      -270.0169
   3   2.0000      -9.910567      -269.6802
   4   2.0000      -9.908984      -269.6372
   5   2.0000      -9.907639      -269.6006
   6   2.0000      -9.904164      -269.5060
   7   2.0000      -9.904076      -269.5036
   8   2.0000      -9.882419      -268.9143
   9   2.0000      -0.943707       -25.6796
  10   2.0000      -0.794381       -21.6162
  11   2.0000      -0.708912       -19.2905
  12   2.0000      -0.697456       -18.9787
  13   2.0000      -0.627442       -17.0736
  14   2.0000      -0.579333       -15.7644
  15   2.0000      -0.551003       -14.9936
  16   2.0000      -0.505211       -13.7475
  17   2.0000      -0.464283       -12.6338
  18   2.0000      -0.433926       -11.8077
  19   2.0000      -0.415710       -11.3120
  20   2.0000      -0.390355       -10.6221
  21   2.0000      -0.390010       -10.6127
  22   2.0000      -0.382991       -10.4217
  23   2.0000      -0.369946       -10.0667
  24   2.0000      -0.350348        -9.5335
  25   2.0000      -0.342428        -9.3180
  26   2.0000      -0.328796        -8.9470
  27   2.0000      -0.321497        -8.7484
  28   2.0000      -0.310890        -8.4597
  29   2.0000      -0.245532        -6.6813
  30   2.0000      -0.234366        -6.3774
  31   2.0000      -0.202961        -5.5228
  32   0.0000      -0.093151        -2.5348
  33   0.0000      -0.045244        -1.2312
  34   0.0000       0.000876         0.0238
  35   0.0000       0.039398         1.0721
  36   0.0000       0.057729         1.5709

MULLIKEN ATOMIC CHARGES
-----------------------
   0 C :   -0.186098
   1 C :   -0.033108
   2 C :   -0.125315
   3 C :   -0.029696
   4 C :   -0.037429
   5 C :   -0.119427
   6 C :    0.078179
   7 C :    0.009563
   8 O :   -0.157909
   9 H :    0.125117
  10 H :    0.125088
  11 H :    0.092907
  12 H :    0.045238
  13 H :    0.061541
  14 H :    0.058454
  15 H :    0.055042
  16 H :    0.037855
Sum of atomic charges:   -0.0000000

LOEWDIN ATOMIC CHARGES
----------------------
   0 C :   -0.323662
   1 C :   -0.006428
   2 C :   -0.122040
   3 C :   -0.099273
   4 C :   -0.128447
   5 C :   -0.094046
   6 C :   -0.093363
   7 C :   -0.000654
   8 O :   -0.117231
   9 H :    0.140605
  10 H :    0.140590
  11 H :    0.118853
  12 H :    0.125352
  13 H :    0.128186
  14 H :    0.126988
  15 H :    0.126585
  16 H :    0.077985

  Mayer bond orders larger than 0.100000
B(  0-C ,  1-C ) :   1.1693 B(  0-C ,  9-H ) :   0.9134 B(  0-C , 10-H ) :   0.9135
B(  0-C , 11-H ) :   0.9276 B(  1-C ,  2-C ) :   1.4033 B(  1-C ,  6-C ) :   1.3535
B(  2-C ,  3-C ) :   1.3576 B(  2-C , 12-H ) :   0.9568 B(  3-C ,  4-C ) :   1.3546
B(  3-C , 13-H ) :   0.9632 B(  4-C ,  5-C ) :   1.3833 B(  4-C , 14-H ) :   0.9665
B(  5-C ,  6-C ) :   1.3096 B(  5-C , 15-H ) :   0.9566 B(  6-C ,  7-C ) :   0.9935
B(  7-C ,  8-O ) :   2.1038 B(  7-C , 16-H ) :   0.9165

Dispersion correction           -0.018032032
FINAL SINGLE POINT ENERGY      -384.060458503698

DIPOLE MOMENT
-------------

Method             : SCF
Type of density    : Electron Density
Multiplicity       :   1
Irrep              :   0
Energy             :  -384.1074312838739502 Eh
Relativity type    :
Basis              : AO
                                X                 Y                 Z
Electronic contribution:     -1.195273822       2.801802431       0.001192937
Nuclear contribution   :      2.263336759      -2.771105534      -0.001610123
                        -----------------------------------------
Total Dipole Moment    :      1.068062937       0.030696897      -0.000417186
                        -----------------------------------------
Magnitude (a.u.)       :      1.068504053
Magnitude (Debye)      :      2.715921465

Rotational constants in cm-1:             0.102666             0.049084             0.033410
Rotational constants in MHz :          3077.856857          1471.511645          1001.605053

                             ****ORCA TERMINATED NORMALLY****
TOTAL RUN TIME: 0 days 0 hours 0 minutes 7 seconds 379 msec
