                         Program Version 6.0.1  -  RELEASE   -
|  1> ! r2scan-3c def2/J RI DEFGRID2 scfconv6 printgap
|  2> %output
|  3>     printlevel normal
|  4> end
|  5> * xyz 0 1
|  6> C -2.3707562423 -0.8591147194 -0.2506546312
|  7> O -1.0405729518 -0.6194760138 0.1958580203
|  8> C -0.5653879996 0.6154926674 0.1078188123
|  9> O -1.1729559999 1.5690346874 -0.2965622981
| 10> C 0.8647118272 0.692113244 0.6163897657
| 11> Cl 1.8690593297 -0.5636092693 -0.1432604359
| 12> H -2.975465005 -1.1493967272 0.6087650861
| 13> H -2.3380853312 -1.6735087516 -0.9733059558
| 14> H -2.7793259015 0.042666521 -0.7091829284
| 15> H 0.8849038001 0.5202703976 1.6933990125
| 16> H 1.2861046214 1.6670949386 0.3748319798
| 17> *
| 18>
| 19>                          ****END OF INPUT****

CARTESIAN COORDINATES (ANGSTROEM)
---------------------------------
  C     -2.370756   -0.859115   -0.250655
  O     -1.040573   -0.619476    0.195858
  C     -0.565388    0.615493    0.107819
  O     -1.172956    1.569035   -0.296562
  C      0.864712    0.692113    0.616390
  Cl     1.869059   -0.563609   -0.143260
  H     -2.975465   -1.149397    0.608765
  H     -2.338085   -1.673509   -0.973306
  H     -2.779326    0.042667   -0.709183
  H      0.884904    0.520270    1.693399
  H      1.286105    1.667095    0.374832

 Total Charge           Charge          ....    0
 Multiplicity           Mult            ....    1
 Number of Electrons    NEL             ....   56
 Basis Dimension        Dim             ....  157

ORBITAL ENERGIES
----------------

  NO   OCC          E(Eh)            E(eV)
   0   2.0000    -101.215631     -2754.2173
   1   2.0000     -19.014768      -517.4181
   2   2.0000     -18.951857      -515.7062
   3   2.0000     -10.176113      -276.9061
   4   2.0000     -10.113006      -275.1889
   5   2.0000     -10.094768      -274.6926
   6   2.0000      -9.371527      -255.0122
   7   2.0000      -7.118280      -193.6983
   8   2.0000      -7.107363      -193.4012
   9   2.0000      -7.107215      -193.3971
  10   2.0000      -1.092894       -29.7391
  11   2.0000      -1.003252       -27.2999
  12   2.0000      -0.836931       -22.7741
  13   2.0000      -0.726171       -19.7601
  14   2.0000      -0.665389       -18.1062
  15   2.0000      -0.551744       -15.0137
  16   2.0000      -0.491714       -13.3802
  17   2.0000      -0.474065       -12.9000
  18   2.0000      -0.461115       -12.5476
  19   2.0000      -0.431122       -11.7314
  20   2.0000      -0.409821       -11.1518
  21   2.0000      -0.399218       -10.8633
  22   2.0000      -0.370806       -10.0901
  23   2.0000      -0.333309        -9.0698
  24   2.0000      -0.297197        -8.0871
  25   2.0000      -0.288038        -7.8379
  26   2.0000      -0.276787        -7.5318
  27   2.0000      -0.252626        -6.8743
  28   0.0000      -0.050144        -1.3645
  29   0.0000       0.018197         0.4952
  30   0.0000       0.060057         1.6342
  31   0.0000       0.095281         2.5927
  32   0.0000       0.119293         3.2461

MULLIKEN ATOMIC CHARGES
-----------------------
   0 C :   -0.297717
   1 O :   -0.180580
   2 C :    0.404745
   3 O :   -0.418736
   4 C :   -0.206886
   5 Cl:   -0.152211
   6 H :    0.151209
   7 H :    0.154093
   8 H :    0.187400
   9 H :    0.172684
  10 H :    0.186000
Sum of atomic charges:    0.0000000

LOEWDIN ATOMIC CHARGES
----------------------
   0 C :   -0.040863
   1 O :   -0.602221
   2 C :    0.331447
   3 O :   -0.409888
   4 C :   -0.252095
   5 Cl:    0.069332
   6 H :    0.174820
   7 H :    0.176932
   8 H :    0.193803
   9 H :    0.179414
  10 H :    0.179320

  Mayer bond orders larger than 0.100000
B(  0-C ,  1-O ) :   0.8387 B(  0-C ,  6-H ) :   0.9620 B(  0-C ,  7-H ) :   0.9634
B(  0-C ,  8-H ) :   0.9681 B(  1-O ,  2-C ) :   1.0782 B(  2-C ,  3-O ) :   1.8550
B(  2-C ,  4-C ) :   0.9972 B(  4-C ,  5-Cl) :   1.0063 B(  4-C ,  9-H ) :   0.9269
B(  4-C , 10-H ) :   0.9694

Dispersion correction           -0.002606734
FINAL SINGLE POINT ENERGY      -727.901951615088

DIPOLE MOMENT
-------------

Method             : SCF
Type of density    : Electron Density
Multiplicity       :   1
Irrep              :   0
Energy             :  -727.9099466454105141 Eh
Relativity type    :
Basis              : AO
                                X                 Y                 Z
Electronic contribution:      7.672676418      -0.537050772      -0.697031095
Nuclear contribution   :     -8.097167744       0.214317484       1.123814724
                        -----------------------------------------
Total Dipole Moment    :     -0.424491326      -0.322733288       0.426783629
                        -----------------------------------------
Magnitude (a.u.)       :      0.683003607
Magnitude (Debye)      :      1.736057202

Rotational constants in cm-1:             0.179426             0.059611             0.047869
Rotational constants in MHz :          5379.065141          1787.085877          1435.084257

                             ****ORCA TERMINATED NORMALLY****
TOTAL RUN TIME: 0 days 0 hours 0 minutes 13 seconds 939 msec
