                         Program Version 6.0.1  -  RELEASE   -
|  1> ! pbe def2-sv(p) def2/J RI DEFGRID1 loosescf d4 GCP(DFT/SV(P)) printgap
|  2> %output
|  3>     printlevel normal
|  4> end
|  5> * xyz 0 1
|  6> C 1.7125274865 -0.9440906384 -0.0010976456
|  7> C 0.7129066937 0.1777099816 0.0002243954
|  8> C 1.134665702 1.4413262985 0.0010717968
|  9> C -0.7129036139 -0.1777232931 0.0001665129
| 10> C -1.1346921732 -1.4413276077 0.001031104
| 11> C -1.7125075293 0.944099174 -0.0010831023
| 12> H 1.5860947591 -1.569967772 0.8808661115
| 13> H 2.725024251 -0.5488572629 -0.0012107023
| 14> H 1.5852894497 -1.5685630627 -0.8839539129
| 15> H 0.4701858901 2.2861222318 0.001598086
| 16> H 2.1860498933 1.6765943354 0.0005702358
| 17> H -2.1860831976 -1.6765620308 0.0009481372
| 18> H -0.4702518758 -2.2861410579 0.0017799231
| 19> H -2.7250127414 0.5488305508 -0.0023665411
| 20> H -1.5867087388 1.5694055342 0.8814948809
| 21> H -1.5845467644 1.5692110487 -0.8834569242
| 22> *
| 23>
| 24>                          ****END OF INPUT****

CARTESIAN COORDINATES (ANGSTROEM)
---------------------------------
  C      1.712527   -0.944091   -0.001098
  C      0.712907    0.177710    0.000224
  C      1.134666    1.441326    0.001072
  C     -0.712904   -0.177723    0.000167
  C     -1.134692   -1.441328    0.001031
  C     -1.712508    0.944099   -0.001083
  H      1.586095   -1.569968    0.880866
  H      2.725024   -0.548857   -0.001211
  H      1.585289   -1.568563   -0.883954
  H      0.470186    2.286122    0.001598
  H      2.186050    1.676594    0.000570
  H     -2.186083   -1.676562    0.000948
  H     -0.470252   -2.286141    0.001780
  H     -2.725013    0.548831   -0.002367
  H     -1.586709    1.569406    0.881495
  H     -1.584547    1.569211   -0.883457

 Total Charge           Charge          ....    0
 Multiplicity           Mult            ....    1
 Number of Electrons    NEL             ....   46
 Basis Dimension        Dim             ....  104

ORBITAL ENERGIES
----------------

  NO   OCC          E(Eh)            E(eV)
   0   2.0000      -9.903112      -269.4774
   1   2.0000      -9.903047      -269.4756
   2   2.0000      -9.879615      -268.8380
   3   2.0000      -9.879597      -268.8375
   4   2.0000      -9.875811      -268.7345
   5   2.0000      -9.875756      -268.7330
   6   2.0000      -0.749960       -20.4075
   7   2.0000      -0.679829       -18.4991
   8   2.0000      -0.628531       -17.1032
   9   2.0000      -0.596162       -16.2224
  10   2.0000      -0.530166       -14.4265
  11   2.0000      -0.443554       -12.0697
  12   2.0000      -0.432767       -11.7762
  13   2.0000      -0.402703       -10.9581
  14   2.0000      -0.383217       -10.4279
  15   2.0000      -0.363075        -9.8798
  16   2.0000      -0.357436        -9.7263
  17   2.0000      -0.343188        -9.3386
  18   2.0000      -0.332196        -9.0395
  19   2.0000      -0.313565        -8.5325
  20   2.0000      -0.288827        -7.8594
  21   2.0000      -0.257346        -7.0027
  22   2.0000      -0.205732        -5.5982
  23   0.0000      -0.054093        -1.4719
  24   0.0000       0.047219         1.2849
  25   0.0000       0.048411         1.3173
  26   0.0000       0.069013         1.8779
  27   0.0000       0.082956         2.2574

MULLIKEN ATOMIC CHARGES
-----------------------
   0 C :   -0.230202
   1 C :   -0.018289
   2 C :   -0.258947
   3 C :   -0.018270
   4 C :   -0.258943
   5 C :   -0.230277
   6 H :    0.116250
   7 H :    0.097265
   8 H :    0.116229
   9 H :    0.089692
  10 H :    0.088006
  11 H :    0.088007
  12 H :    0.089688
  13 H :    0.097275
  14 H :    0.116280
  15 H :    0.116234
Sum of atomic charges:   -0.0000000

LOEWDIN ATOMIC CHARGES
----------------------
   0 C :   -0.322913
   1 C :   -0.050953
   2 C :   -0.249984
   3 C :   -0.050957
   4 C :   -0.249985
   5 C :   -0.322898
   6 H :    0.130326
   7 H :    0.124013
   8 H :    0.130331
   9 H :    0.119218
  10 H :    0.119961
  11 H :    0.119961
  12 H :    0.119218
  13 H :    0.124010
  14 H :    0.130335
  15 H :    0.130315

  Mayer bond orders larger than 0.100000
B(  0-C ,  1-C ) :   1.1345 B(  0-C ,  6-H ) :   0.9238 B(  0-C ,  7-H ) :   0.9376
B(  0-C ,  8-H ) :   0.9239 B(  1-C ,  2-C ) :   1.9522 B(  1-C ,  3-C ) :   1.0933
B(  2-C ,  4-C ) :   0.1395 B(  2-C ,  9-H ) :   0.8947 B(  2-C , 10-H ) :   0.9037
B(  3-C ,  4-C ) :   1.9522 B(  3-C ,  5-C ) :   1.1345 B(  4-C , 11-H ) :   0.9037
B(  4-C , 12-H ) :   0.8947 B(  5-C , 13-H ) :   0.9376 B(  5-C , 14-H ) :   0.9238
B(  5-C , 15-H ) :   0.9239

Dispersion correction           -0.012860638
FINAL SINGLE POINT ENERGY      -234.045440473508

DIPOLE MOMENT
-------------

Method             : SCF
Type of density    : Electron Density
Multiplicity       :   1
Irrep              :   0
Energy             :  -234.0930041710880403 Eh
Relativity type    :
Basis              : AO
                                X                 Y                 Z
Electronic contribution:     -0.000015697      -0.000097947       0.003081985
Nuclear contribution   :      0.000038395       0.000068031      -0.003500018
                        -----------------------------------------
Total Dipole Moment    :      0.000022698      -0.000029917      -0.000418033
                        -----------------------------------------
Magnitude (a.u.)       :      0.000419716
Magnitude (Debye)      :      0.001066834

Rotational constants in cm-1:             0.165346             0.110968             0.068087
Rotational constants in MHz :          4956.960607          3326.735563          2041.208257

                             ****ORCA TERMINATED NORMALLY****
TOTAL RUN TIME: 0 days 0 hours 0 minutes 11 seconds 982 msec
