                         Program Version 6.0.1  -  RELEASE   -
|  1> ! pbe def2-sv(p) def2/J RI DEFGRID1 loosescf d4 GCP(DFT/SV(P)) printgap
|  2> %output
|  3>     printlevel normal
|  4> end
|  5> * xyz 0 1
|  6> C -2.7575716995 -0.7845677201 0.0004864528
|  7> O -1.794817439 0.2380886527 -0.0004576896
|  8> C -0.4637115754 -0.1233360376 -0.0002289271
|  9> C 0.0225412495 -1.4178853591 -0.0001998033
| 10> C 1.392395211 -1.6427347003 6.0437e-06
| 11> C 2.2749542572 -0.5813183904 0.0001175646
| 12> C 1.7970261551 0.7191221103 0.0001153535
| 13> C 0.4340227446 0.9581557562 -1.63019e-05
| 14> O -0.0327780741 2.23462034 9.55357e-05
| 15> H -2.6750804177 -1.410943703 0.8942897702
| 16> H -2.6761920828 -1.4116230143 -0.893076896
| 17> H -3.7233330599 -0.2811672842 0.0008952239
| 18> H -0.6518831272 -2.2596474747 -0.0002510542
| 19> H 1.759615887 -2.6576011884 6.50108e-05
| 20> H 3.3392051014 -0.7591065885 0.0002082131
| 21> H 2.4663964383 1.5641876282 0.0002883143
| 22> H -0.9989040315 2.1960683503 -1.10281e-05
| 23> *
| 24>
| 25>                          ****END OF INPUT****

CARTESIAN COORDINATES (ANGSTROEM)
---------------------------------
  C     -2.757572   -0.784568    0.000486
  O     -1.794817    0.238089   -0.000458
  C     -0.463712   -0.123336   -0.000229
  C      0.022541   -1.417885   -0.000200
  C      1.392395   -1.642735    0.000006
  C      2.274954   -0.581318    0.000118
  C      1.797026    0.719122    0.000115
  C      0.434023    0.958156   -0.000016
  O     -0.032778    2.234620    0.000096
  H     -2.675080   -1.410944    0.894290
  H     -2.676192   -1.411623   -0.893077
  H     -3.723333   -0.281167    0.000895
  H     -0.651883   -2.259647   -0.000251
  H      1.759616   -2.657601    0.000065
  H      3.339205   -0.759107    0.000208
  H      2.466396    1.564188    0.000288
  H     -0.998904    2.196068   -0.000011

 Total Charge           Charge          ....    0
 Multiplicity           Mult            ....    1
 Number of Electrons    NEL             ....   66
 Basis Dimension        Dim             ....  142

ORBITAL ENERGIES
----------------

  NO   OCC          E(Eh)            E(eV)
   0   2.0000     -18.799084      -511.5491
   1   2.0000     -18.773596      -510.8555
   2   2.0000      -9.948870      -270.7225
   3   2.0000      -9.948099      -270.7015
   4   2.0000      -9.945671      -270.6355
   5   2.0000      -9.891000      -269.1478
   6   2.0000      -9.883738      -268.9502
   7   2.0000      -9.883425      -268.9417
   8   2.0000      -9.882403      -268.9138
   9   2.0000      -0.982800       -26.7434
  10   2.0000      -0.950682       -25.8694
  11   2.0000      -0.767847       -20.8942
  12   2.0000      -0.683717       -18.6049
  13   2.0000      -0.665852       -18.1188
  14   2.0000      -0.628183       -17.0937
  15   2.0000      -0.546910       -14.8822
  16   2.0000      -0.542284       -14.7563
  17   2.0000      -0.503181       -13.6922
  18   2.0000      -0.469839       -12.7850
  19   2.0000      -0.435938       -11.8625
  20   2.0000      -0.428924       -11.6716
  21   2.0000      -0.408725       -11.1220
  22   2.0000      -0.396621       -10.7926
  23   2.0000      -0.377920       -10.2837
  24   2.0000      -0.363646        -9.8953
  25   2.0000      -0.337551        -9.1852
  26   2.0000      -0.332140        -9.0380
  27   2.0000      -0.299323        -8.1450
  28   2.0000      -0.298574        -8.1246
  29   2.0000      -0.292438        -7.9576
  30   2.0000      -0.282620        -7.6905
  31   2.0000      -0.211830        -5.7642
  32   2.0000      -0.179047        -4.8721
  33   0.0000      -0.022138        -0.6024
  34   0.0000      -0.012885        -0.3506
  35   0.0000       0.033622         0.9149
  36   0.0000       0.041097         1.1183
  37   0.0000       0.064607         1.7580

MULLIKEN ATOMIC CHARGES
-----------------------
   0 C :   -0.112661
   1 O :   -0.310489
   2 C :    0.204480
   3 C :   -0.210376
   4 C :   -0.053313
   5 C :   -0.040064
   6 C :   -0.164447
   7 C :    0.170145
   8 O :   -0.329353
   9 H :    0.114162
  10 H :    0.114170
  11 H :    0.124784
  12 H :    0.036833
  13 H :    0.046396
  14 H :    0.049258
  15 H :    0.043201
  16 H :    0.317272
Sum of atomic charges:   -0.0000000

LOEWDIN ATOMIC CHARGES
----------------------
   0 C :   -0.201941
   1 O :   -0.110998
   2 C :   -0.003867
   3 C :   -0.170528
   4 C :   -0.143673
   5 C :   -0.133394
   6 C :   -0.149704
   7 C :    0.009285
   8 O :   -0.234500
   9 H :    0.110860
  10 H :    0.110850
  11 H :    0.121838
  12 H :    0.126246
  13 H :    0.121864
  14 H :    0.123270
  15 H :    0.131479
  16 H :    0.292911

  Mayer bond orders larger than 0.100000
B(  0-C ,  1-O ) :   0.9857 B(  0-C ,  9-H ) :   0.9421 B(  0-C , 10-H ) :   0.9421
B(  0-C , 11-H ) :   0.9584 B(  1-O ,  2-C ) :   1.0823 B(  2-C ,  3-C ) :   1.3227
B(  2-C ,  7-C ) :   1.2809 B(  3-C ,  4-C ) :   1.3183 B(  3-C , 12-H ) :   0.9678
B(  4-C ,  5-C ) :   1.3843 B(  4-C , 13-H ) :   0.9664 B(  5-C ,  6-C ) :   1.3275
B(  5-C , 14-H ) :   0.9694 B(  6-C ,  7-C ) :   1.4019 B(  6-C , 15-H ) :   0.9697
B(  7-C ,  8-O ) :   1.2505 B(  8-O , 16-H ) :   0.8224

Dispersion correction           -0.016803694
FINAL SINGLE POINT ENERGY      -421.094078958474

DIPOLE MOMENT
-------------

Method             : SCF
Type of density    : Electron Density
Multiplicity       :   1
Irrep              :   0
Energy             :  -421.1538330968563741 Eh
Relativity type    :
Basis              : AO
                                X                 Y                 Z
Electronic contribution:      2.091653908       4.140137420      -0.001842441
Nuclear contribution   :     -2.991855976      -4.672829058       0.002253331
                        -----------------------------------------
Total Dipole Moment    :     -0.900202068      -0.532691637       0.000410890
                        -----------------------------------------
Magnitude (a.u.)       :      1.046003973
Magnitude (Debye)      :      2.658730808

Rotational constants in cm-1:             0.087750             0.052043             0.032873
Rotational constants in MHz :          2630.667658          1560.197452           985.508886

                             ****ORCA TERMINATED NORMALLY****
TOTAL RUN TIME: 0 days 0 hours 0 minutes 9 seconds 333 msec
