                         Program Version 6.0.1  -  RELEASE   -
|  1> ! pbe def2-sv(p) def2/J RI DEFGRID1 loosescf d4 GCP(DFT/SV(P)) printgap
|  2> %output
|  3>     printlevel normal
|  4> end
|  5> * xyz 0 1
|  6> C -3.9860552352 -0.8548889858 1.0451194238
|  7> N -3.3194215216 -0.9370666519 -0.2313077121
|  8> C -2.1504648474 -0.3437599684 -0.5626203717
|  9> O -1.682325375 -0.367602826 -1.6722882773
| 10> O -1.5728480725 0.2616785045 0.507083129
| 11> C -0.3051034208 0.8067576501 0.3091580951
| 12> C -0.174478984 2.1686717633 0.2777066332
| 13> C 1.091577414 2.7498125837 0.121599718
| 14> C 2.2000409014 1.9633755403 -0.0131024937
| 15> C 2.0948114543 0.5571912376 0.0159153209
| 16> C 0.8200560206 -0.0450997721 0.1878018024
| 17> C 0.7260819363 -1.4508480977 0.237629344
| 18> C 1.8424732278 -2.2277830023 0.10426804
| 19> C 3.1014156629 -1.6367950207 -0.079161781
| 20> C 3.2246105192 -0.2764527626 -0.1183611235
| 21> H -4.7728121515 -0.0950380758 1.0361325917
| 22> H -3.2560326578 -0.5952727008 1.8075209946
| 23> H -4.429924925 -1.8209494042 1.2863039493
| 24> H -3.8369835808 -1.3151930998 -1.0096154738
| 25> H -1.0529174793 2.7888961194 0.3706914905
| 26> H 1.1750558467 3.8260082136 0.0987077122
| 27> H 3.1762665418 2.4069900116 -0.1451515729
| 28> H -0.2410643325 -1.9095709321 0.3819167153
| 29> H 1.7617027925 -3.304237623 0.1397877777
| 30> H 3.97218956 -2.2670787165 -0.1860878105
| 31> H 4.1927365588 0.184296376 -0.2538404528
| 32> *
| 33>
| 34>                          ****END OF INPUT****

CARTESIAN COORDINATES (ANGSTROEM)
---------------------------------
  C     -3.986055   -0.854889    1.045119
  N     -3.319422   -0.937067   -0.231308
  C     -2.150465   -0.343760   -0.562620
  O     -1.682325   -0.367603   -1.672288
  O     -1.572848    0.261679    0.507083
  C     -0.305103    0.806758    0.309158
  C     -0.174479    2.168672    0.277707
  C      1.091577    2.749813    0.121600
  C      2.200041    1.963376   -0.013102
  C      2.094811    0.557191    0.015915
  C      0.820056   -0.045100    0.187802
  C      0.726082   -1.450848    0.237629
  C      1.842473   -2.227783    0.104268
  C      3.101416   -1.636795   -0.079162
  C      3.224611   -0.276453   -0.118361
  H     -4.772812   -0.095038    1.036133
  H     -3.256033   -0.595273    1.807521
  H     -4.429925   -1.820949    1.286304
  H     -3.836984   -1.315193   -1.009615
  H     -1.052917    2.788896    0.370691
  H      1.175056    3.826008    0.098708
  H      3.176267    2.406990   -0.145152
  H     -0.241064   -1.909571    0.381917
  H      1.761703   -3.304238    0.139788
  H      3.972190   -2.267079   -0.186088
  H      4.192737    0.184296   -0.253840

 Total Charge           Charge          ....    0
 Multiplicity           Mult            ....    1
 Number of Electrons    NEL             ....  106
 Basis Dimension        Dim             ....  232

ORBITAL ENERGIES
----------------

  NO   OCC          E(Eh)            E(eV)
   0   2.0000     -18.805458      -511.7225
   1   2.0000     -18.715078      -509.2632
   2   2.0000     -14.021641      -381.5483
   3   2.0000     -10.022926      -272.7377
   4   2.0000      -9.953850      -270.8580
   5   2.0000      -9.925711      -270.0923
   6   2.0000      -9.904441      -269.5136
   7   2.0000      -9.903643      -269.4918
   8   2.0000      -9.896266      -269.2911
   9   2.0000      -9.894685      -269.2481
  10   2.0000      -9.893934      -269.2276
  11   2.0000      -9.893589      -269.2182
  12   2.0000      -9.893368      -269.2122
  13   2.0000      -9.893306      -269.2106
  14   2.0000      -9.893197      -269.2076
  15   2.0000      -1.013071       -27.5671
  16   2.0000      -0.915736       -24.9184
  17   2.0000      -0.845109       -22.9966
  18   2.0000      -0.794441       -21.6178
  19   2.0000      -0.746299       -20.3078
  20   2.0000      -0.698040       -18.9946
  21   2.0000      -0.670047       -18.2329
  22   2.0000      -0.656903       -17.8752
  23   2.0000      -0.639841       -17.4110
  24   2.0000      -0.592627       -16.1262
  25   2.0000      -0.559628       -15.2282
  26   2.0000      -0.555111       -15.1053
  27   2.0000      -0.517489       -14.0816
  28   2.0000      -0.489416       -13.3177
  29   2.0000      -0.464291       -12.6340
  30   2.0000      -0.450956       -12.2711
  31   2.0000      -0.445517       -12.1231
  32   2.0000      -0.441794       -12.0218
  33   2.0000      -0.422583       -11.4991
  34   2.0000      -0.402257       -10.9460
  35   2.0000      -0.400417       -10.8959
  36   2.0000      -0.383319       -10.4306
  37   2.0000      -0.380295       -10.3484
  38   2.0000      -0.366064        -9.9611
  39   2.0000      -0.363921        -9.9028
  40   2.0000      -0.357873        -9.7382
  41   2.0000      -0.353623        -9.6226
  42   2.0000      -0.340042        -9.2530
  43   2.0000      -0.332913        -9.0590
  44   2.0000      -0.305172        -8.3042
  45   2.0000      -0.298569        -8.1245
  46   2.0000      -0.294316        -8.0087
  47   2.0000      -0.266676        -7.2566
  48   2.0000      -0.248423        -6.7599
  49   2.0000      -0.227667        -6.1951
  50   2.0000      -0.220514        -6.0005
  51   2.0000      -0.216237        -5.8841
  52   2.0000      -0.194317        -5.2876
  53   0.0000      -0.068927        -1.8756
  54   0.0000      -0.040175        -1.0932
  55   0.0000      -0.002932        -0.0798
  56   0.0000       0.024658         0.6710
  57   0.0000       0.030130         0.8199

MULLIKEN ATOMIC CHARGES
-----------------------
   0 C :   -0.180839
   1 N :   -0.295070
   2 C :    0.182343
   3 O :   -0.209933
   4 O :   -0.262458
   5 C :    0.182130
   6 C :   -0.120670
   7 C :   -0.040952
   8 C :   -0.111442
   9 C :    0.131827
  10 C :    0.126943
  11 C :   -0.125985
  12 C :   -0.042316
  13 C :   -0.035982
  14 C :   -0.132118
  15 H :    0.113108
  16 H :    0.139018
  17 H :    0.113307
  18 H :    0.239000
  19 H :    0.038463
  20 H :    0.055087
  21 H :    0.038265
  22 H :    0.052785
  23 H :    0.052039
  24 H :    0.053234
  25 H :    0.040217
Sum of atomic charges:    0.0000000

LOEWDIN ATOMIC CHARGES
----------------------
   0 C :   -0.263157
   1 N :   -0.177335
   2 C :    0.019931
   3 O :   -0.191699
   4 O :   -0.056717
   5 C :    0.051792
   6 C :   -0.132635
   7 C :   -0.119795
   8 C :   -0.115365
   9 C :   -0.020354
  10 C :   -0.028633
  11 C :   -0.104493
  12 C :   -0.120495
  13 C :   -0.122538
  14 C :   -0.109535
  15 H :    0.113579
  16 H :    0.133022
  17 H :    0.119000
  18 H :    0.242355
  19 H :    0.130818
  20 H :    0.126458
  21 H :    0.124551
  22 H :    0.127342
  23 H :    0.124800
  24 H :    0.124636
  25 H :    0.124466

  Mayer bond orders larger than 0.100000
B(  0-C ,  1-N ) :   1.0190 B(  0-C , 15-H ) :   0.9546 B(  0-C , 16-H ) :   0.9451
B(  0-C , 17-H ) :   0.9569 B(  1-N ,  2-C ) :   1.2132 B(  1-N , 18-H ) :   0.8643
B(  2-C ,  3-O ) :   2.0662 B(  2-C ,  4-O ) :   1.0551 B(  4-O ,  5-C ) :   0.9924
B(  5-C ,  6-C ) :   1.5010 B(  5-C , 10-C ) :   1.2354 B(  6-C ,  7-C ) :   1.2148
B(  6-C , 19-H ) :   0.9630 B(  7-C ,  8-C ) :   1.4464 B(  7-C , 20-H ) :   0.9612
B(  8-C ,  9-C ) :   1.2353 B(  8-C , 21-H ) :   0.9672 B(  9-C , 10-C ) :   1.2544
B(  9-C , 14-C ) :   1.2389 B( 10-C , 11-C ) :   1.2574 B( 11-C , 12-C ) :   1.4592
B( 11-C , 22-H ) :   0.9483 B( 12-C , 13-C ) :   1.2572 B( 12-C , 23-H ) :   0.9616
B( 13-C , 14-C ) :   1.4627 B( 13-C , 24-H ) :   0.9622 B( 14-C , 25-H ) :   0.9650

Dispersion correction           -0.032953306
FINAL SINGLE POINT ENERGY      -667.733251275906

DIPOLE MOMENT
-------------

Method             : SCF
Type of density    : Electron Density
Multiplicity       :   1
Irrep              :   0
Energy             :  -667.8086251151759143 Eh
Relativity type    :
Basis              : AO
                                X                 Y                 Z
Electronic contribution:      2.516405194       1.791155749      -2.601822524
Nuclear contribution   :     -3.173456833      -1.977952768       3.289808485
                        -----------------------------------------
Total Dipole Moment    :     -0.657051639      -0.186797019       0.687985961
                        -----------------------------------------
Magnitude (a.u.)       :      0.969502277
Magnitude (Debye)      :      2.464278949

Rotational constants in cm-1:             0.035638             0.015186             0.011797
Rotational constants in MHz :          1068.403838           455.261677           353.656674

                             ****ORCA TERMINATED NORMALLY****
TOTAL RUN TIME: 0 days 0 hours 0 minutes 18 seconds 633 msec
