                         Program Version 6.0.1  -  RELEASE   -
|  1> ! pbe def2-sv(p) def2/J RI DEFGRID1 loosescf d4 GCP(DFT/SV(P)) printgap
|  2> %output
|  3>     printlevel normal
|  4> end
|  5> * xyz 0 1
|  6> C -2.3612020457 0.1186091928 0.1654869457
|  7> C -0.9285031007 0.4081997009 -0.2673598475
|  8> C 0.0017250263 -0.7174994119 0.0743839827
|  9> C 1.3200900201 -0.6133213217 0.143721677
| 10> C 2.083490579 0.6508394584 -0.1043993733
| 11> H -2.735703833 -0.7772412662 -0.3253460384
| 12> H -3.0147087149 0.9491704717 -0.0925708678
| 13> H -2.4089188199 -0.0337877183 1.2416797093
| 14> H -0.90532285 0.5761054744 -1.3500609046
| 15> H -0.5812855902 1.328628468 0.2084917074
| 16> H -0.469441333 -1.6724598452 0.2630560795
| 17> H 1.9092436342 -1.4820066344 0.403601252
| 18> H 1.9708896913 1.3349102658 0.7379936392
| 19> H 1.7151850491 1.1579865969 -0.9945175625
| 20> H 3.1424684079 0.4440275281 -0.2333437631
| 21> *
| 22>
| 23>                          ****END OF INPUT****

CARTESIAN COORDINATES (ANGSTROEM)
---------------------------------
  C     -2.361202    0.118609    0.165487
  C     -0.928503    0.408200   -0.267360
  C      0.001725   -0.717499    0.074384
  C      1.320090   -0.613321    0.143722
  C      2.083491    0.650839   -0.104399
  H     -2.735704   -0.777241   -0.325346
  H     -3.014709    0.949170   -0.092571
  H     -2.408919   -0.033788    1.241680
  H     -0.905323    0.576105   -1.350061
  H     -0.581286    1.328628    0.208492
  H     -0.469441   -1.672460    0.263056
  H      1.909244   -1.482007    0.403601
  H      1.970890    1.334910    0.737994
  H      1.715185    1.157987   -0.994518
  H      3.142468    0.444028   -0.233344

 Total Charge           Charge          ....    0
 Multiplicity           Mult            ....    1
 Number of Electrons    NEL             ....   40
 Basis Dimension        Dim             ....   90

ORBITAL ENERGIES
----------------

  NO   OCC          E(Eh)            E(eV)
   0   2.0000      -9.885432      -268.9963
   1   2.0000      -9.878761      -268.8147
   2   2.0000      -9.876792      -268.7612
   3   2.0000      -9.876245      -268.7463
   4   2.0000      -9.873756      -268.6786
   5   2.0000      -0.723359       -19.6836
   6   2.0000      -0.672658       -18.3039
   7   2.0000      -0.604307       -16.4440
   8   2.0000      -0.545762       -14.8509
   9   2.0000      -0.467818       -12.7300
  10   2.0000      -0.420552       -11.4438
  11   2.0000      -0.398209       -10.8358
  12   2.0000      -0.380828       -10.3629
  13   2.0000      -0.363971        -9.9042
  14   2.0000      -0.333785        -9.0827
  15   2.0000      -0.324824        -8.8389
  16   2.0000      -0.310851        -8.4587
  17   2.0000      -0.302379        -8.2281
  18   2.0000      -0.279911        -7.6168
  19   2.0000      -0.207504        -5.6465
  20   0.0000      -0.009161        -0.2493
  21   0.0000       0.044362         1.2071
  22   0.0000       0.063320         1.7230
  23   0.0000       0.066652         1.8137
  24   0.0000       0.087964         2.3936

MULLIKEN ATOMIC CHARGES
-----------------------
   0 C :   -0.287111
   1 C :   -0.140533
   2 C :   -0.143641
   3 C :   -0.161819
   4 C :   -0.237294
   5 H :    0.103311
   6 H :    0.101016
   7 H :    0.104898
   8 H :    0.104474
   9 H :    0.095170
  10 H :    0.059157
  11 H :    0.064934
  12 H :    0.119287
  13 H :    0.114776
  14 H :    0.103377
Sum of atomic charges:   -0.0000000

LOEWDIN ATOMIC CHARGES
----------------------
   0 C :   -0.338277
   1 C :   -0.234213
   2 C :   -0.153046
   3 C :   -0.155988
   4 C :   -0.341146
   5 H :    0.117879
   6 H :    0.118459
   7 H :    0.119042
   8 H :    0.126876
   9 H :    0.122148
  10 H :    0.117388
  11 H :    0.117627
  12 H :    0.131664
  13 H :    0.127109
  14 H :    0.124477

  Mayer bond orders larger than 0.100000
B(  0-C ,  1-C ) :   1.1443 B(  0-C ,  5-H ) :   0.9546 B(  0-C ,  6-H ) :   0.9528
B(  0-C ,  7-H ) :   0.9595 B(  1-C ,  2-C ) :   1.0750 B(  1-C ,  8-H ) :   0.9075
B(  1-C ,  9-H ) :   0.9102 B(  2-C ,  3-C ) :   1.9895 B(  2-C , 10-H ) :   0.9404
B(  3-C ,  4-C ) :   1.1172 B(  3-C , 11-H ) :   0.9354 B(  4-C , 12-H ) :   0.9331
B(  4-C , 13-H ) :   0.9370 B(  4-C , 14-H ) :   0.9470

Dispersion correction           -0.009746767
FINAL SINGLE POINT ENERGY      -196.028382343387

DIPOLE MOMENT
-------------

Method             : SCF
Type of density    : Electron Density
Multiplicity       :   1
Irrep              :   0
Energy             :  -196.0765487293965066 Eh
Relativity type    :
Basis              : AO
                                X                 Y                 Z
Electronic contribution:      1.301753048      -1.583983653       0.099683330
Nuclear contribution   :     -1.292408111       1.712460275      -0.132296702
                        -----------------------------------------
Total Dipole Moment    :      0.009344937       0.128476623      -0.032613372
                        -----------------------------------------
Magnitude (a.u.)       :      0.132880407
Magnitude (Debye)      :      0.337755152

Rotational constants in cm-1:             0.456414             0.083990             0.074585
Rotational constants in MHz :         13682.939488          2517.955443          2236.006902

                             ****ORCA TERMINATED NORMALLY****
TOTAL RUN TIME: 0 days 0 hours 0 minutes 6 seconds 191 msec
