                         Program Version 6.0.1  -  RELEASE   -
|  1> ! pbe def2-sv(p) def2/J RI DEFGRID1 loosescf d4 GCP(DFT/SV(P)) printgap
|  2> %output
|  3>     printlevel normal
|  4> end
|  5> * xyz 0 1
|  6> C -2.1613241711 -1.182694963 -0.1044026739
|  7> C -1.2297771801 -0.3318139708 0.7720938952
|  8> H -1.7775869864 -0.1006105108 1.6926328505
|  9> C -0.8846294427 1.0107838107 0.1003924385
| 10> H -1.0979002466 0.9613923472 -0.9792985679
| 11> C 0.6119506121 1.2864077747 0.2610205287
| 12> H 0.8650295319 1.3436626007 1.330998265
| 13> C 1.3712159316 0.1191638676 -0.3673779233
| 14> H 1.0648970434 0.0300721969 -1.4232340615
| 15> C 1.0035199031 -1.1945686453 0.3676511881
| 16> H 1.8292570471 -1.4745133308 1.0353292552
| 17> O -0.092306605 -1.0362845352 1.2335536056
| 18> O 0.8547154849 -2.249965432 -0.5218651748
| 19> O 2.7494917849 0.4077468623 -0.2931027303
| 20> O 0.9055141555 2.5057428563 -0.3753295809
| 21> O -1.6633276345 2.0168813018 0.6929667731
| 22> O -1.6031674911 -1.3647416085 -1.3973807089
| 23> H -3.1204231632 -0.6592594993 -0.1792183412
| 24> H -2.3094203356 -2.152853564 0.384963292
| 25> H 0.0360335416 -2.0961868849 -1.02988987
| 26> H 3.2411424388 -0.3511076917 -0.6252534222
| 27> H 1.864974064 2.548201146 -0.4697560643
| 28> H -1.2753763298 2.8618014077 0.4301898032
| 29> H -2.2289636543 -1.8571385784 -1.9391907184
| 30> *
| 31>
| 32>                          ****END OF INPUT****

CARTESIAN COORDINATES (ANGSTROEM)
---------------------------------
  C     -2.161324   -1.182695   -0.104403
  C     -1.229777   -0.331814    0.772094
  H     -1.777587   -0.100611    1.692633
  C     -0.884629    1.010784    0.100392
  H     -1.097900    0.961392   -0.979299
  C      0.611951    1.286408    0.261021
  H      0.865030    1.343663    1.330998
  C      1.371216    0.119164   -0.367378
  H      1.064897    0.030072   -1.423234
  C      1.003520   -1.194569    0.367651
  H      1.829257   -1.474513    1.035329
  O     -0.092307   -1.036285    1.233554
  O      0.854715   -2.249965   -0.521865
  O      2.749492    0.407747   -0.293103
  O      0.905514    2.505743   -0.375330
  O     -1.663328    2.016881    0.692967
  O     -1.603167   -1.364742   -1.397381
  H     -3.120423   -0.659259   -0.179218
  H     -2.309420   -2.152854    0.384963
  H      0.036034   -2.096187   -1.029890
  H      3.241142   -0.351108   -0.625253
  H      1.864974    2.548201   -0.469756
  H     -1.275376    2.861801    0.430190
  H     -2.228964   -1.857139   -1.939191

 Total Charge           Charge          ....    0
 Multiplicity           Mult            ....    1
 Number of Electrons    NEL             ....   96
 Basis Dimension        Dim             ....  192

ORBITAL ENERGIES
----------------

  NO   OCC          E(Eh)            E(eV)
   0   2.0000     -18.792100      -511.3590
   1   2.0000     -18.762856      -510.5633
   2   2.0000     -18.759831      -510.4810
   3   2.0000     -18.750147      -510.2174
   4   2.0000     -18.744135      -510.0539
   5   2.0000     -18.735070      -509.8072
   6   2.0000      -9.975660      -271.4515
   7   2.0000      -9.949982      -270.7528
   8   2.0000      -9.949127      -270.7295
   9   2.0000      -9.937819      -270.4218
  10   2.0000      -9.936169      -270.3769
  11   2.0000      -9.935290      -270.3530
  12   2.0000      -0.976425       -26.5699
  13   2.0000      -0.956227       -26.0202
  14   2.0000      -0.943396       -25.6711
  15   2.0000      -0.931005       -25.3339
  16   2.0000      -0.912264       -24.8240
  17   2.0000      -0.898867       -24.4594
  18   2.0000      -0.707614       -19.2552
  19   2.0000      -0.691384       -18.8135
  20   2.0000      -0.624710       -16.9992
  21   2.0000      -0.581621       -15.8267
  22   2.0000      -0.564661       -15.3652
  23   2.0000      -0.523960       -14.2577
  24   2.0000      -0.502850       -13.6832
  25   2.0000      -0.485485       -13.2107
  26   2.0000      -0.476886       -12.9767
  27   2.0000      -0.454418       -12.3653
  28   2.0000      -0.448302       -12.1989
  29   2.0000      -0.428130       -11.6500
  30   2.0000      -0.425041       -11.5659
  31   2.0000      -0.406956       -11.0738
  32   2.0000      -0.392567       -10.6823
  33   2.0000      -0.379515       -10.3271
  34   2.0000      -0.358271        -9.7491
  35   2.0000      -0.343446        -9.3456
  36   2.0000      -0.329363        -8.9624
  37   2.0000      -0.315650        -8.5893
  38   2.0000      -0.310647        -8.4531
  39   2.0000      -0.296690        -8.0733
  40   2.0000      -0.283886        -7.7249
  41   2.0000      -0.271257        -7.3813
  42   2.0000      -0.257422        -7.0048
  43   2.0000      -0.251346        -6.8395
  44   2.0000      -0.222963        -6.0671
  45   2.0000      -0.216717        -5.8972
  46   2.0000      -0.212744        -5.7891
  47   2.0000      -0.205757        -5.5989
  48   0.0000       0.002286         0.0622
  49   0.0000       0.022044         0.5999
  50   0.0000       0.049862         1.3568
  51   0.0000       0.054347         1.4788
  52   0.0000       0.070083         1.9070

MULLIKEN ATOMIC CHARGES
-----------------------
   0 C :    0.001421
   1 C :    0.063188
   2 H :    0.090460
   3 C :    0.044287
   4 H :    0.066043
   5 C :    0.057546
   6 H :    0.062014
   7 C :    0.000393
   8 H :    0.054460
   9 C :    0.197951
  10 H :    0.060213
  11 O :   -0.301978
  12 O :   -0.419107
  13 O :   -0.424910
  14 O :   -0.431544
  15 O :   -0.419670
  16 O :   -0.441031
  17 H :    0.099215
  18 H :    0.097950
  19 H :    0.290541
  20 H :    0.310561
  21 H :    0.311582
  22 H :    0.308660
  23 H :    0.321756
Sum of atomic charges:   -0.0000000

LOEWDIN ATOMIC CHARGES
----------------------
   0 C :   -0.135478
   1 C :   -0.057091
   2 H :    0.133268
   3 C :   -0.068315
   4 H :    0.103467
   5 C :   -0.079037
   6 H :    0.107691
   7 C :   -0.095303
   8 H :    0.102952
   9 C :   -0.010273
  10 H :    0.107733
  11 O :   -0.137841
  12 O :   -0.328507
  13 O :   -0.324406
  14 O :   -0.326617
  15 O :   -0.321557
  16 O :   -0.326367
  17 H :    0.116604
  18 H :    0.110387
  19 H :    0.261266
  20 H :    0.292152
  21 H :    0.289292
  22 H :    0.287213
  23 H :    0.298768

  Mayer bond orders larger than 0.100000
B(  0-C ,  1-C ) :   1.0784 B(  0-C , 16-O ) :   1.0080 B(  0-C , 17-H ) :   0.9128
B(  0-C , 18-H ) :   0.9118 B(  1-C ,  2-H ) :   0.8791 B(  1-C ,  3-C ) :   0.9870
B(  1-C , 11-O ) :   1.0439 B(  3-C ,  4-H ) :   0.8775 B(  3-C ,  5-C ) :   1.0347
B(  3-C , 15-O ) :   1.0814 B(  5-C ,  6-H ) :   0.8698 B(  5-C ,  7-C ) :   1.0178
B(  5-C , 14-O ) :   1.0729 B(  7-C ,  8-H ) :   0.8785 B(  7-C ,  9-C ) :   0.9825
B(  7-C , 13-O ) :   1.0601 B(  9-C , 10-H ) :   0.8912 B(  9-C , 11-O ) :   1.0471
B(  9-C , 12-O ) :   1.1275 B( 12-O , 19-H ) :   0.7884 B( 13-O , 20-H ) :   0.8436
B( 14-O , 21-H ) :   0.8331 B( 15-O , 22-H ) :   0.8368 B( 16-O , 19-H ) :   0.1352
B( 16-O , 23-H ) :   0.8388

Dispersion correction           -0.025083157
FINAL SINGLE POINT ENERGY      -685.698135060652

DIPOLE MOMENT
-------------

Method             : SCF
Type of density    : Electron Density
Multiplicity       :   1
Irrep              :   0
Energy             :  -685.8311708374502587 Eh
Relativity type    :
Basis              : AO
                                X                 Y                 Z
Electronic contribution:      2.225166600       0.525163998       0.834963651
Nuclear contribution   :     -2.711464623      -0.883877018      -1.671976589
                        -----------------------------------------
Total Dipole Moment    :     -0.486298023      -0.358713020      -0.837012938
                        -----------------------------------------
Magnitude (a.u.)       :      1.032352389
Magnitude (Debye)      :      2.624031238

Rotational constants in cm-1:             0.036798             0.032005             0.021004
Rotational constants in MHz :          1103.170605           959.497823           629.689594

                             ****ORCA TERMINATED NORMALLY****
TOTAL RUN TIME: 0 days 0 hours 0 minutes 9 seconds 542 msec
