                         Program Version 6.0.1  -  RELEASE   -
|  1> ! r2scan-3c def2/J RI DEFGRID2 scfconv6 printgap
|  2> %output
|  3>     printlevel normal
|  4> end
|  5> * xyz 0 1
|  6> C -3.1486492303 0.5189400648 -0.2451614715
|  7> C -1.7318321343 0.5531385233 0.3160974935
|  8> C -0.7796752511 -0.19203456 -0.6004177899
|  9> Br 1.0452292223 -0.1605419404 0.1010981995
| 10> H -3.4999213632 -0.5063777106 -0.3401186048
| 11> H -3.8256327398 1.053858383 0.4155381946
| 12> H -3.1850664068 0.987057171 -1.2266160424
| 13> H -1.7163783835 0.0956250221 1.3080435138
| 14> H -1.4012865312 1.5890895262 0.4210473919
| 15> H -0.7328632024 0.2639497092 -1.5888950956
| 16> H -1.0509504541 -1.2431640189 -0.6940742881
| 17> *
| 18>
| 19>                          ****END OF INPUT****

CARTESIAN COORDINATES (ANGSTROEM)
---------------------------------
  C     -3.148649    0.518940   -0.245161
  C     -1.731832    0.553139    0.316097
  C     -0.779675   -0.192035   -0.600418
  Br     1.045229   -0.160542    0.101098
  H     -3.499921   -0.506378   -0.340119
  H     -3.825633    1.053858    0.415538
  H     -3.185066    0.987057   -1.226616
  H     -1.716378    0.095625    1.308044
  H     -1.401287    1.589090    0.421047
  H     -0.732863    0.263950   -1.588895
  H     -1.050950   -1.243164   -0.694074

 Total Charge           Charge          ....    0
 Multiplicity           Mult            ....    1
 Number of Electrons    NEL             ....   60
 Basis Dimension        Dim             ....  128

ORBITAL ENERGIES
----------------

  NO   OCC          E(Eh)            E(eV)
   0   2.0000    -482.210851    -13121.6244
   1   2.0000     -62.282966     -1694.8057
   2   2.0000     -56.063444     -1525.5639
   3   2.0000     -56.060736     -1525.4902
   4   2.0000     -56.060614     -1525.4869
   5   2.0000     -10.091713      -274.6095
   6   2.0000     -10.046000      -273.3656
   7   2.0000     -10.033530      -273.0262
   8   2.0000      -8.615237      -234.4325
   9   2.0000      -6.422660      -174.7695
  10   2.0000      -6.409068      -174.3996
  11   2.0000      -6.409003      -174.3979
  12   2.0000      -2.520245       -68.5794
  13   2.0000      -2.516873       -68.4876
  14   2.0000      -2.516816       -68.4860
  15   2.0000      -2.506696       -68.2107
  16   2.0000      -2.506684       -68.2103
  17   2.0000      -0.794172       -21.6105
  18   2.0000      -0.729069       -19.8390
  19   2.0000      -0.637295       -17.3417
  20   2.0000      -0.569160       -15.4876
  21   2.0000      -0.458241       -12.4694
  22   2.0000      -0.415412       -11.3039
  23   2.0000      -0.393021       -10.6946
  24   2.0000      -0.384881       -10.4731
  25   2.0000      -0.335910        -9.1406
  26   2.0000      -0.325950        -8.8696
  27   2.0000      -0.320199        -8.7131
  28   2.0000      -0.249421        -6.7871
  29   2.0000      -0.249209        -6.7813
  30   0.0000      -0.021557        -0.5866
  31   0.0000       0.095911         2.6099
  32   0.0000       0.107743         2.9318
  33   0.0000       0.131832         3.5873
  34   0.0000       0.136413         3.7120

MULLIKEN ATOMIC CHARGES
-----------------------
   0 C :   -0.451060
   1 C :   -0.245771
   2 C :   -0.195237
   3 Br:   -0.175372
   4 H :    0.142394
   5 H :    0.154715
   6 H :    0.142408
   7 H :    0.152356
   8 H :    0.152388
   9 H :    0.161584
  10 H :    0.161595
Sum of atomic charges:    0.0000000

LOEWDIN ATOMIC CHARGES
----------------------
   0 C :   -0.421415
   1 C :   -0.342874
   2 C :   -0.397654
   3 Br:    0.070006
   4 H :    0.151484
   5 H :    0.156776
   6 H :    0.151493
   7 H :    0.158674
   8 H :    0.158670
   9 H :    0.157420
  10 H :    0.157420

  Mayer bond orders larger than 0.100000
B(  0-C ,  1-C ) :   0.8960 B(  0-C ,  4-H ) :   0.9771 B(  0-C ,  5-H ) :   0.9671
B(  0-C ,  6-H ) :   0.9770 B(  1-C ,  2-C ) :   0.9422 B(  1-C ,  7-H ) :   0.9638
B(  1-C ,  8-H ) :   0.9639 B(  2-C ,  3-Br) :   0.9846 B(  2-C ,  9-H ) :   0.9571
B(  2-C , 10-H ) :   0.9571

Dispersion correction           -0.002293420
FINAL SINGLE POINT ENERGY     -2692.632590560498

DIPOLE MOMENT
-------------

Method             : SCF
Type of density    : Electron Density
Multiplicity       :   1
Irrep              :   0
Energy             : -2692.6357883087312075 Eh
Relativity type    :
Basis              : AO
                                X                 Y                 Z
Electronic contribution:     23.250408172      -3.530838606       2.316856131
Nuclear contribution   :    -24.164352253       3.592202663      -2.538371019
                        -----------------------------------------
Total Dipole Moment    :     -0.913944081       0.061364057      -0.221514888
                        -----------------------------------------
Magnitude (a.u.)       :      0.942405526
Magnitude (Debye)      :      2.395404482

Rotational constants in cm-1:             0.843495             0.054707             0.052904
Rotational constants in MHz :         25287.345348          1640.088885          1586.018584

                             ****ORCA TERMINATED NORMALLY****
TOTAL RUN TIME: 0 days 0 hours 0 minutes 18 seconds 803 msec
