                         Program Version 6.0.1  -  RELEASE   -
|  1> ! pbe def2-sv(p) def2/J RI DEFGRID1 loosescf d4 GCP(DFT/SV(P)) printgap
|  2> %output
|  3>     printlevel normal
|  4> end
|  5> * xyz 0 1
|  6> C -3.2389216943 0.8242746648 -0.7316505122
|  7> N -2.0123615286 0.1255899249 -0.4269252325
|  8> C -1.4601316765 -0.6602785526 -1.5016883784
|  9> C -1.6079102292 0.0618938544 0.8690031854
| 10> O -2.2897304006 0.4493262077 1.7983307588
| 11> N -0.3703049362 -0.5334297944 1.1010182466
| 12> C 0.8336032342 -0.2766104594 0.4405537907
| 13> C 0.9919527548 0.8030595236 -0.4252143999
| 14> C 2.2012434178 1.0092732301 -1.0627014918
| 15> C 3.2694245582 0.1574985926 -0.8399964993
| 16> C 3.1246996639 -0.9011586923 0.041616469
| 17> C 1.9190276336 -1.1186412638 0.6790697823
| 18> H -3.5564168378 1.3631652369 0.1581972916
| 19> H -4.026529828 0.1235447522 -1.0223299773
| 20> H -3.0705279248 1.5275875942 -1.5500968334
| 21> H -2.275308419 -1.1618499969 -2.0296463916
| 22> H -0.781084254 -1.4152726112 -1.1142643339
| 23> H -0.9177709744 -0.034543863 -2.2168926298
| 24> H -0.2696934508 -0.8298979525 2.0631776936
| 25> H 0.17481682 1.4918718834 -0.574758825
| 26> H 2.312098078 1.8514460954 -1.7300502915
| 27> H 4.2114691036 0.3239998182 -1.3396289713
| 28> H 3.9564537408 -1.5626683751 0.2340840118
| 29> H 1.8071254866 -1.9423713854 1.3693627193
| 30> *
| 31>
| 32>                          ****END OF INPUT****

CARTESIAN COORDINATES (ANGSTROEM)
---------------------------------
  C     -3.238922    0.824275   -0.731651
  N     -2.012362    0.125590   -0.426925
  C     -1.460132   -0.660279   -1.501688
  C     -1.607910    0.061894    0.869003
  O     -2.289730    0.449326    1.798331
  N     -0.370305   -0.533430    1.101018
  C      0.833603   -0.276610    0.440554
  C      0.991953    0.803060   -0.425214
  C      2.201243    1.009273   -1.062701
  C      3.269425    0.157499   -0.839996
  C      3.124700   -0.901159    0.041616
  C      1.919028   -1.118641    0.679070
  H     -3.556417    1.363165    0.158197
  H     -4.026530    0.123545   -1.022330
  H     -3.070528    1.527588   -1.550097
  H     -2.275308   -1.161850   -2.029646
  H     -0.781084   -1.415273   -1.114264
  H     -0.917771   -0.034544   -2.216893
  H     -0.269693   -0.829898    2.063178
  H      0.174817    1.491872   -0.574759
  H      2.312098    1.851446   -1.730050
  H      4.211469    0.324000   -1.339629
  H      3.956454   -1.562668    0.234084
  H      1.807125   -1.942371    1.369363

 Total Charge           Charge          ....    0
 Multiplicity           Mult            ....    1
 Number of Electrons    NEL             ....   88
 Basis Dimension        Dim             ....  192

ORBITAL ENERGIES
----------------

  NO   OCC          E(Eh)            E(eV)
   0   2.0000     -18.707000      -509.0433
   1   2.0000     -14.024169      -381.6170
   2   2.0000     -14.017899      -381.4464
   3   2.0000     -10.001500      -272.1547
   4   2.0000      -9.941345      -270.5178
   5   2.0000      -9.920599      -269.9532
   6   2.0000      -9.913587      -269.7624
   7   2.0000      -9.896224      -269.2899
   8   2.0000      -9.896176      -269.2886
   9   2.0000      -9.894908      -269.2541
  10   2.0000      -9.893696      -269.2212
  11   2.0000      -9.889129      -269.0969
  12   2.0000      -0.949729       -25.8434
  13   2.0000      -0.855303       -23.2740
  14   2.0000      -0.843427       -22.9508
  15   2.0000      -0.769283       -20.9333
  16   2.0000      -0.677369       -18.4321
  17   2.0000      -0.670253       -18.2385
  18   2.0000      -0.653308       -17.7774
  19   2.0000      -0.631217       -17.1763
  20   2.0000      -0.560979       -15.2650
  21   2.0000      -0.554145       -15.0790
  22   2.0000      -0.507621       -13.8131
  23   2.0000      -0.494497       -13.4560
  24   2.0000      -0.467734       -12.7277
  25   2.0000      -0.439468       -11.9585
  26   2.0000      -0.433181       -11.7874
  27   2.0000      -0.421095       -11.4586
  28   2.0000      -0.400250       -10.8914
  29   2.0000      -0.391865       -10.6632
  30   2.0000      -0.380142       -10.3442
  31   2.0000      -0.374767       -10.1979
  32   2.0000      -0.362428        -9.8622
  33   2.0000      -0.357980        -9.7411
  34   2.0000      -0.350793        -9.5456
  35   2.0000      -0.333212        -9.0672
  36   2.0000      -0.330248        -8.9865
  37   2.0000      -0.320114        -8.7107
  38   2.0000      -0.306957        -8.3527
  39   2.0000      -0.270515        -7.3611
  40   2.0000      -0.233658        -6.3582
  41   2.0000      -0.217256        -5.9118
  42   2.0000      -0.199831        -5.4377
  43   2.0000      -0.188575        -5.1314
  44   0.0000      -0.039449        -1.0735
  45   0.0000      -0.034801        -0.9470
  46   0.0000       0.017193         0.4679
  47   0.0000       0.032060         0.8724
  48   0.0000       0.048425         1.3177

MULLIKEN ATOMIC CHARGES
-----------------------
   0 C :   -0.176879
   1 N :   -0.264594
   2 C :   -0.180270
   3 C :    0.112429
   4 O :   -0.213640
   5 N :   -0.240076
   6 C :    0.157136
   7 C :   -0.115074
   8 C :   -0.064669
   9 C :   -0.042060
  10 C :   -0.059805
  11 C :   -0.120574
  12 H :    0.142874
  13 H :    0.108733
  14 H :    0.103807
  15 H :    0.109836
  16 H :    0.147199
  17 H :    0.113312
  18 H :    0.240170
  19 H :    0.054690
  20 H :    0.052504
  21 H :    0.050204
  22 H :    0.054049
  23 H :    0.030698
Sum of atomic charges:    0.0000000

LOEWDIN ATOMIC CHARGES
----------------------
   0 C :   -0.251621
   1 N :   -0.069535
   2 C :   -0.252657
   3 C :    0.015445
   4 O :   -0.211798
   5 N :   -0.149408
   6 C :   -0.004591
   7 C :   -0.148164
   8 C :   -0.116069
   9 C :   -0.143283
  10 C :   -0.115529
  11 C :   -0.147245
  12 H :    0.137059
  13 H :    0.113768
  14 H :    0.112879
  15 H :    0.116445
  16 H :    0.133709
  17 H :    0.113408
  18 H :    0.244328
  19 H :    0.128301
  20 H :    0.124377
  21 H :    0.122976
  22 H :    0.124762
  23 H :    0.122442

  Mayer bond orders larger than 0.100000
B(  0-C ,  1-N ) :   1.0192 B(  0-C , 12-H ) :   0.9323 B(  0-C , 13-H ) :   0.9510
B(  0-C , 14-H ) :   0.9505 B(  1-N ,  2-C ) :   1.0148 B(  1-N ,  3-C ) :   1.1457
B(  2-C , 15-H ) :   0.9412 B(  2-C , 16-H ) :   0.9412 B(  2-C , 17-H ) :   0.9386
B(  3-C ,  4-O ) :   2.0600 B(  3-C ,  5-N ) :   1.0850 B(  5-N ,  6-C ) :   1.0475
B(  5-N , 18-H ) :   0.8472 B(  6-C ,  7-C ) :   1.3659 B(  6-C , 11-C ) :   1.3497
B(  7-C ,  8-C ) :   1.3618 B(  7-C , 19-H ) :   0.9501 B(  8-C ,  9-C ) :   1.3741
B(  8-C , 20-H ) :   0.9616 B(  9-C , 10-C ) :   1.3666 B(  9-C , 21-H ) :   0.9673
B( 10-C , 11-C ) :   1.3804 B( 10-C , 22-H ) :   0.9603 B( 11-C , 23-H ) :   0.9659

Dispersion correction           -0.027269234
FINAL SINGLE POINT ENERGY      -533.768844261210

DIPOLE MOMENT
-------------

Method             : SCF
Type of density    : Electron Density
Multiplicity       :   1
Irrep              :   0
Energy             :  -533.8469418361798944 Eh
Relativity type    :
Basis              : AO
                                X                 Y                 Z
Electronic contribution:      2.688429092      -0.151276412       6.307497771
Nuclear contribution   :     -2.331786361      -0.244184281      -7.243140926
                        -----------------------------------------
Total Dipole Moment    :      0.356642731      -0.395460692      -0.935643154
                        -----------------------------------------
Magnitude (a.u.)       :      1.076573875
Magnitude (Debye)      :      2.736433324

Rotational constants in cm-1:             0.068249             0.019562             0.017371
Rotational constants in MHz :          2046.062931           586.439714           520.757370

                             ****ORCA TERMINATED NORMALLY****
TOTAL RUN TIME: 0 days 0 hours 0 minutes 23 seconds 222 msec
