                         Program Version 6.0.1  -  RELEASE   -
|  1> ! pbe def2-sv(p) def2/J RI DEFGRID1 loosescf d4 GCP(DFT/SV(P)) printgap
|  2> %output
|  3>     printlevel normal
|  4> end
|  5> * xyz 0 1
|  6> C -2.6734608894 0.0020685257 -0.4054852024
|  7> C -2.0177254367 -1.1969597219 -0.1828376069
|  8> C -0.7092707942 -1.1993740945 0.2656985958
|  9> C -0.0434995283 -0.0018877476 0.500007257
| 10> C -0.7067750033 1.1976118504 0.2688800751
| 11> C -2.0152593977 1.1991238085 -0.1795416125
| 12> C 1.378831248 -0.0039124242 0.9539149904
| 13> Cl 2.4664546158 0.0013596468 -0.4831659872
| 14> H -3.6947190093 0.003586467 -0.7563707144
| 15> H -2.526295466 -2.1330025261 -0.3602870211
| 16> H -0.1971155512 -2.135543528 0.4345357383
| 17> H -0.1927197313 2.1322515301 0.4403750254
| 18> H -2.5218538207 2.1366897712 -0.3545688632
| 19> H 1.6280587476 -0.9007033545 1.5195029288
| 20> H 1.628427829 0.8885766964 1.526082462
| 21> *
| 22>
| 23>                          ****END OF INPUT****

CARTESIAN COORDINATES (ANGSTROEM)
---------------------------------
  C     -2.673461    0.002069   -0.405485
  C     -2.017725   -1.196960   -0.182838
  C     -0.709271   -1.199374    0.265699
  C     -0.043500   -0.001888    0.500007
  C     -0.706775    1.197612    0.268880
  C     -2.015259    1.199124   -0.179542
  C      1.378831   -0.003912    0.953915
  Cl     2.466455    0.001360   -0.483166
  H     -3.694719    0.003586   -0.756371
  H     -2.526295   -2.133003   -0.360287
  H     -0.197116   -2.135544    0.434536
  H     -0.192720    2.132252    0.440375
  H     -2.521854    2.136690   -0.354569
  H      1.628059   -0.900703    1.519503
  H      1.628428    0.888577    1.526082

 Total Charge           Charge          ....    0
 Multiplicity           Mult            ....    1
 Number of Electrons    NEL             ....   66
 Basis Dimension        Dim             ....  130

ORBITAL ENERGIES
----------------

  NO   OCC          E(Eh)            E(eV)
   0   2.0000    -100.616152     -2737.9047
   1   2.0000      -9.945349      -270.6267
   2   2.0000      -9.910987      -269.6917
   3   2.0000      -9.899167      -269.3700
   4   2.0000      -9.899083      -269.3677
   5   2.0000      -9.898984      -269.3650
   6   2.0000      -9.898765      -269.3591
   7   2.0000      -9.898740      -269.3584
   8   2.0000      -9.152067      -249.0404
   9   2.0000      -6.983817      -190.0393
  10   2.0000      -6.971619      -189.7074
  11   2.0000      -6.971574      -189.7062
  12   2.0000      -0.795260       -21.6401
  13   2.0000      -0.763633       -20.7795
  14   2.0000      -0.685745       -18.6601
  15   2.0000      -0.677496       -18.4356
  16   2.0000      -0.602729       -16.4011
  17   2.0000      -0.551943       -15.0191
  18   2.0000      -0.529105       -14.3977
  19   2.0000      -0.472119       -12.8470
  20   2.0000      -0.432407       -11.7664
  21   2.0000      -0.414486       -11.2787
  22   2.0000      -0.389042       -10.5864
  23   2.0000      -0.383825       -10.4444
  24   2.0000      -0.377751       -10.2791
  25   2.0000      -0.372928       -10.1479
  26   2.0000      -0.331891        -9.0312
  27   2.0000      -0.315476        -8.5845
  28   2.0000      -0.306686        -8.3453
  29   2.0000      -0.250907        -6.8275
  30   2.0000      -0.246435        -6.7058
  31   2.0000      -0.235009        -6.3949
  32   2.0000      -0.227462        -6.1896
  33   0.0000      -0.053520        -1.4563
  34   0.0000      -0.041257        -1.1227
  35   0.0000       0.022443         0.6107
  36   0.0000       0.036943         1.0053
  37   0.0000       0.061918         1.6849

MULLIKEN ATOMIC CHARGES
-----------------------
   0 C :   -0.046023
   1 C :   -0.049547
   2 C :   -0.092329
   3 C :    0.078872
   4 C :   -0.092222
   5 C :   -0.049516
   6 C :   -0.132637
   7 Cl:   -0.150274
   8 H :    0.057871
   9 H :    0.056693
  10 H :    0.045659
  11 H :    0.045678
  12 H :    0.056705
  13 H :    0.135506
  14 H :    0.135564
Sum of atomic charges:    0.0000000

LOEWDIN ATOMIC CHARGES
----------------------
   0 C :   -0.119861
   1 C :   -0.118985
   2 C :   -0.111073
   3 C :   -0.073292
   4 C :   -0.111011
   5 C :   -0.118972
   6 C :   -0.254312
   7 Cl:    0.023684
   8 H :    0.125407
   9 H :    0.125720
  10 H :    0.124837
  11 H :    0.124848
  12 H :    0.125722
  13 H :    0.128627
  14 H :    0.128662

  Mayer bond orders larger than 0.100000
B(  0-C ,  1-C ) :   1.3790 B(  0-C ,  5-C ) :   1.3788 B(  0-C ,  8-H ) :   0.9649
B(  1-C ,  2-C ) :   1.3812 B(  1-C ,  9-H ) :   0.9636 B(  2-C ,  3-C ) :   1.3831
B(  2-C , 10-H ) :   0.9630 B(  3-C ,  4-C ) :   1.3828 B(  3-C ,  6-C ) :   1.0526
B(  4-C ,  5-C ) :   1.3813 B(  4-C , 11-H ) :   0.9631 B(  5-C , 12-H ) :   0.9636
B(  6-C ,  7-Cl) :   1.0372 B(  6-C , 13-H ) :   0.9169 B(  6-C , 14-H ) :   0.9169

Dispersion correction           -0.016365337
FINAL SINGLE POINT ENERGY      -730.216085863463

DIPOLE MOMENT
-------------

Method             : SCF
Type of density    : Electron Density
Multiplicity       :   1
Irrep              :   0
Energy             :  -730.2549960749151978 Eh
Relativity type    :
Basis              : AO
                                X                 Y                 Z
Electronic contribution:      8.302439760       0.007959132      -2.496892845
Nuclear contribution   :     -8.823397707      -0.009466289       2.946345811
                        -----------------------------------------
Total Dipole Moment    :     -0.520957947      -0.001507157       0.449452966
                        -----------------------------------------
Magnitude (a.u.)       :      0.688046090
Magnitude (Debye)      :      1.748874177

Rotational constants in cm-1:             0.138690             0.033802             0.030369
Rotational constants in MHz :          4157.815219          1013.373016           910.442085

                             ****ORCA TERMINATED NORMALLY****
TOTAL RUN TIME: 0 days 0 hours 0 minutes 16 seconds 500 msec
