                         Program Version 6.0.1  -  RELEASE   -
|  1> ! r2scan-3c def2/J RI DEFGRID2 scfconv6 printgap
|  2> %output
|  3>     printlevel normal
|  4> end
|  5> * xyz 0 1
|  6> C 0.0001547241 -2.5113650054 0.0003567967
|  7> C 1.2053840564 -1.8286296306 8.30472e-05
|  8> C 1.2061167998 -0.4438525451 -3.98372e-05
|  9> C 4.08525e-05 0.2669024551 3.13877e-05
| 10> C -1.2059995091 -0.4439584538 1.70657e-05
| 11> C -1.2051065062 -1.8287261359 0.0002084462
| 12> Cl -2.6934454962 0.4247323166 -0.0003134747
| 13> C -0.0001133864 1.6819671008 0.0003859556
| 14> N -0.0005517545 2.8270764113 0.0005383035
| 15> Cl 2.6934883048 0.4250748773 -0.0002814669
| 16> H 0.0001593481 -3.5902135214 0.0006324461
| 17> H 2.1425989679 -2.3610041924 9.7506e-05
| 18> H -2.1422811363 -2.3612088662 0.0002887917
| 19> *
| 20>
| 21>                          ****END OF INPUT****

CARTESIAN COORDINATES (ANGSTROEM)
---------------------------------
  C      0.000155   -2.511365    0.000357
  C      1.205384   -1.828630    0.000083
  C      1.206117   -0.443853   -0.000040
  C      0.000041    0.266902    0.000031
  C     -1.206000   -0.443958    0.000017
  C     -1.205107   -1.828726    0.000208
  Cl    -2.693445    0.424732   -0.000313
  C     -0.000113    1.681967    0.000386
  N     -0.000552    2.827076    0.000538
  Cl     2.693488    0.425075   -0.000281
  H      0.000159   -3.590214    0.000632
  H      2.142599   -2.361004    0.000098
  H     -2.142281   -2.361209    0.000289

 Total Charge           Charge          ....    0
 Multiplicity           Mult            ....    1
 Number of Electrons    NEL             ....   86
 Basis Dimension        Dim             ....  226

ORBITAL ENERGIES
----------------

  NO   OCC          E(Eh)            E(eV)
   0   2.0000    -101.247446     -2755.0831
   1   2.0000    -101.247445     -2755.0831
   2   2.0000     -14.166949      -385.5023
   3   2.0000     -10.143570      -276.0206
   4   2.0000     -10.143567      -276.0205
   5   2.0000     -10.114076      -275.2180
   6   2.0000     -10.085626      -274.4438
   7   2.0000     -10.080533      -274.3052
   8   2.0000     -10.080507      -274.3045
   9   2.0000     -10.080280      -274.2984
  10   2.0000      -9.403206      -255.8742
  11   2.0000      -9.403204      -255.8742
  12   2.0000      -7.149697      -194.5532
  13   2.0000      -7.149696      -194.5531
  14   2.0000      -7.139499      -194.2756
  15   2.0000      -7.139498      -194.2756
  16   2.0000      -7.138701      -194.2539
  17   2.0000      -7.138700      -194.2539
  18   2.0000      -0.918535       -24.9946
  19   2.0000      -0.882443       -24.0125
  20   2.0000      -0.872324       -23.7371
  21   2.0000      -0.823268       -22.4023
  22   2.0000      -0.772403       -21.0182
  23   2.0000      -0.733477       -19.9589
  24   2.0000      -0.648904       -17.6576
  25   2.0000      -0.609279       -16.5793
  26   2.0000      -0.556415       -15.1408
  27   2.0000      -0.497712       -13.5434
  28   2.0000      -0.494137       -13.4462
  29   2.0000      -0.454805       -12.3759
  30   2.0000      -0.443178       -12.0595
  31   2.0000      -0.429870       -11.6974
  32   2.0000      -0.389663       -10.6033
  33   2.0000      -0.382962       -10.4209
  34   2.0000      -0.367651       -10.0043
  35   2.0000      -0.347670        -9.4606
  36   2.0000      -0.338666        -9.2156
  37   2.0000      -0.328281        -8.9330
  38   2.0000      -0.323838        -8.8121
  39   2.0000      -0.315179        -8.5765
  40   2.0000      -0.302940        -8.2434
  41   2.0000      -0.265058        -7.2126
  42   2.0000      -0.256773        -6.9872
  43   0.0000      -0.101584        -2.7642
  44   0.0000      -0.076938        -2.0936
  45   0.0000      -0.032632        -0.8880
  46   0.0000      -0.008927        -0.2429
  47   0.0000       0.013634         0.3710

MULLIKEN ATOMIC CHARGES
-----------------------
   0 C :   -0.073871
   1 C :   -0.224408
   2 C :    0.092134
   3 C :   -0.016773
   4 C :    0.092017
   5 C :   -0.224403
   6 Cl:   -0.077570
   7 C :    0.224440
   8 N :   -0.206800
   9 Cl:   -0.077608
  10 H :    0.158098
  11 H :    0.167371
  12 H :    0.167370
Sum of atomic charges:    0.0000000

LOEWDIN ATOMIC CHARGES
----------------------
   0 C :   -0.124821
   1 C :   -0.165596
   2 C :   -0.126856
   3 C :   -0.100046
   4 C :   -0.126870
   5 C :   -0.165602
   6 Cl:    0.196646
   7 C :    0.140528
   8 N :   -0.270358
   9 Cl:    0.196596
  10 H :    0.178225
  11 H :    0.184076
  12 H :    0.184078

  Mayer bond orders larger than 0.100000
B(  0-C ,  1-C ) :   1.3686 B(  0-C ,  5-C ) :   1.3687 B(  0-C , 10-H ) :   0.9505
B(  1-C ,  2-C ) :   1.3528 B(  1-C , 11-H ) :   0.9397 B(  2-C ,  3-C ) :   1.2641
B(  2-C ,  9-Cl) :   1.0908 B(  3-C ,  4-C ) :   1.2642 B(  3-C ,  7-C ) :   1.0999
B(  4-C ,  5-C ) :   1.3528 B(  4-C ,  6-Cl) :   1.0909 B(  5-C , 12-H ) :   0.9397
B(  7-C ,  8-N ) :   2.8158

Dispersion correction           -0.005939734
FINAL SINGLE POINT ENERGY     -1243.559966016827

DIPOLE MOMENT
-------------

Method             : SCF
Type of density    : Electron Density
Multiplicity       :   1
Irrep              :   0
Energy             : -1243.5591175972540441 Eh
Relativity type    :
Basis              : AO
                                X                 Y                 Z
Electronic contribution:     -0.000160092       6.769883235      -0.001811819
Nuclear contribution   :      0.000387182      -8.923572407       0.001757260
                        -----------------------------------------
Total Dipole Moment    :      0.000227090      -2.153689173      -0.000054559
                        -----------------------------------------
Magnitude (a.u.)       :      2.153689185
Magnitude (Debye)      :      5.474242864

Rotational constants in cm-1:             0.048915             0.028404             0.017969
Rotational constants in MHz :          1466.421211           851.529099           538.708861

                             ****ORCA TERMINATED NORMALLY****
TOTAL RUN TIME: 0 days 0 hours 0 minutes 26 seconds 810 msec
