                         Program Version 6.0.1  -  RELEASE   -
|  1> ! pbe def2-sv(p) def2/J RI DEFGRID1 loosescf d4 GCP(DFT/SV(P)) printgap
|  2> %output
|  3>     printlevel normal
|  4> end
|  5> * xyz 0 1
|  6> C -2.2191299661 -1.2096341806 0.1173792545
|  7> C -0.8464848843 -0.5877673481 0.4306403406
|  8> H -0.8017764852 -0.3394543784 1.5025818539
|  9> C -0.6011420771 0.6885762999 -0.3950040414
| 10> H -0.647102847 0.4348270932 -1.4610099846
| 11> C 0.7953053946 1.2825539753 -0.0901183978
| 12> H 0.6800306086 2.0872568892 0.6492108162
| 13> C 1.742168977 0.2083923166 0.4972643796
| 14> H 2.7682815681 0.4693913147 0.1999000031
| 15> C 1.4101518893 -1.1445405518 -0.1396850028
| 16> H 2.0843843531 -1.9209202835 0.2546445902
| 17> O 0.1206616859 -1.5886591862 0.1409500522
| 18> O 1.6043768344 -0.9873865457 -1.5251313522
| 19> O 1.6364989961 0.0760932404 1.8909363902
| 20> O 1.3705359792 1.8883149572 -1.2123853366
| 21> O -1.6294517276 1.6320152022 -0.2028238874
| 22> O -3.2881152039 -0.4387522053 0.5835554919
| 23> H -2.2793705196 -2.1761622242 0.6217364756
| 24> H -2.290502275 -1.3764376689 -0.9672337932
| 25> H 1.3119129708 -1.7970416532 -1.9608454815
| 26> H 2.0088772031 0.86016464 2.310100317
| 27> H 1.5588673933 1.1942927593 -1.8592394396
| 28> H -1.5717506545 1.9844417831 0.6939489655
| 29> H -3.2244089966 0.4325656809 0.1628865967
| 30> *
| 31>
| 32>                          ****END OF INPUT****

CARTESIAN COORDINATES (ANGSTROEM)
---------------------------------
  C     -2.219130   -1.209634    0.117379
  C     -0.846485   -0.587767    0.430640
  H     -0.801776   -0.339454    1.502582
  C     -0.601142    0.688576   -0.395004
  H     -0.647103    0.434827   -1.461010
  C      0.795305    1.282554   -0.090118
  H      0.680031    2.087257    0.649211
  C      1.742169    0.208392    0.497264
  H      2.768282    0.469391    0.199900
  C      1.410152   -1.144541   -0.139685
  H      2.084384   -1.920920    0.254645
  O      0.120662   -1.588659    0.140950
  O      1.604377   -0.987387   -1.525131
  O      1.636499    0.076093    1.890936
  O      1.370536    1.888315   -1.212385
  O     -1.629452    1.632015   -0.202824
  O     -3.288115   -0.438752    0.583555
  H     -2.279371   -2.176162    0.621736
  H     -2.290502   -1.376438   -0.967234
  H      1.311913   -1.797042   -1.960845
  H      2.008877    0.860165    2.310100
  H      1.558867    1.194293   -1.859239
  H     -1.571751    1.984442    0.693949
  H     -3.224409    0.432566    0.162887

 Total Charge           Charge          ....    0
 Multiplicity           Mult            ....    1
 Number of Electrons    NEL             ....   96
 Basis Dimension        Dim             ....  192

ORBITAL ENERGIES
----------------

  NO   OCC          E(Eh)            E(eV)
   0   2.0000     -18.780268      -511.0371
   1   2.0000     -18.776877      -510.9448
   2   2.0000     -18.772433      -510.8239
   3   2.0000     -18.770569      -510.7732
   4   2.0000     -18.745277      -510.0849
   5   2.0000     -18.732589      -509.7397
   6   2.0000      -9.996465      -272.0176
   7   2.0000      -9.953197      -270.8403
   8   2.0000      -9.949202      -270.7316
   9   2.0000      -9.948371      -270.7089
  10   2.0000      -9.939866      -270.4775
  11   2.0000      -9.924478      -270.0588
  12   2.0000      -0.994430       -27.0598
  13   2.0000      -0.953933       -25.9578
  14   2.0000      -0.947389       -25.7798
  15   2.0000      -0.930285       -25.3143
  16   2.0000      -0.921603       -25.0781
  17   2.0000      -0.910333       -24.7714
  18   2.0000      -0.704069       -19.1587
  19   2.0000      -0.697884       -18.9904
  20   2.0000      -0.621900       -16.9227
  21   2.0000      -0.594576       -16.1792
  22   2.0000      -0.569100       -15.4860
  23   2.0000      -0.533589       -14.5197
  24   2.0000      -0.514838       -14.0094
  25   2.0000      -0.497958       -13.5501
  26   2.0000      -0.475141       -12.9292
  27   2.0000      -0.461918       -12.5694
  28   2.0000      -0.446264       -12.1435
  29   2.0000      -0.436665       -11.8823
  30   2.0000      -0.419318       -11.4102
  31   2.0000      -0.401579       -10.9275
  32   2.0000      -0.386467       -10.5163
  33   2.0000      -0.371222       -10.1015
  34   2.0000      -0.363214        -9.8835
  35   2.0000      -0.357661        -9.7325
  36   2.0000      -0.351203        -9.5567
  37   2.0000      -0.324135        -8.8202
  38   2.0000      -0.310402        -8.4465
  39   2.0000      -0.301912        -8.2154
  40   2.0000      -0.286800        -7.8042
  41   2.0000      -0.279559        -7.6072
  42   2.0000      -0.259772        -7.0688
  43   2.0000      -0.252601        -6.8736
  44   2.0000      -0.240232        -6.5371
  45   2.0000      -0.223114        -6.0712
  46   2.0000      -0.213300        -5.8042
  47   2.0000      -0.199940        -5.4406
  48   0.0000       0.005480         0.1491
  49   0.0000       0.018016         0.4902
  50   0.0000       0.019982         0.5437
  51   0.0000       0.046808         1.2737
  52   0.0000       0.071889         1.9562

MULLIKEN ATOMIC CHARGES
-----------------------
   0 C :    0.099779
   1 C :    0.008933
   2 H :    0.059896
   3 C :    0.056236
   4 H :    0.051587
   5 C :    0.112069
   6 H :    0.032781
   7 C :   -0.012203
   8 H :    0.082461
   9 C :    0.185029
  10 H :    0.073789
  11 O :   -0.302970
  12 O :   -0.413087
  13 O :   -0.406053
  14 O :   -0.423814
  15 O :   -0.419262
  16 O :   -0.446248
  17 H :    0.090795
  18 H :    0.054367
  19 H :    0.307792
  20 H :    0.308947
  21 H :    0.305423
  22 H :    0.303866
  23 H :    0.289887
Sum of atomic charges:   -0.0000000

LOEWDIN ATOMIC CHARGES
----------------------
   0 C :   -0.122034
   1 C :   -0.081322
   2 H :    0.106013
   3 C :   -0.079824
   4 H :    0.117001
   5 C :   -0.073962
   6 H :    0.106771
   7 C :   -0.092816
   8 H :    0.113134
   9 C :    0.005282
  10 H :    0.102485
  11 O :   -0.132210
  12 O :   -0.321369
  13 O :   -0.308629
  14 O :   -0.313126
  15 O :   -0.297398
  16 O :   -0.343674
  17 H :    0.115860
  18 H :    0.091733
  19 H :    0.288882
  20 H :    0.291889
  21 H :    0.276912
  22 H :    0.284040
  23 H :    0.266364

  Mayer bond orders larger than 0.100000
B(  0-C ,  1-C ) :   1.0167 B(  0-C , 16-O ) :   1.0948 B(  0-C , 17-H ) :   0.9222
B(  0-C , 18-H ) :   0.9078 B(  1-C ,  2-H ) :   0.8671 B(  1-C ,  3-C ) :   1.0473
B(  1-C , 11-O ) :   0.9576 B(  3-C ,  4-H ) :   0.8440 B(  3-C ,  5-C ) :   1.0012
B(  3-C , 15-O ) :   0.9898 B(  5-C ,  6-H ) :   0.8655 B(  5-C ,  7-C ) :   0.9738
B(  5-C , 14-O ) :   1.0555 B(  7-C ,  8-H ) :   0.8870 B(  7-C ,  9-C ) :   1.0327
B(  7-C , 13-O ) :   1.0438 B(  9-C , 10-H ) :   0.8938 B(  9-C , 11-O ) :   1.0954
B(  9-C , 12-O ) :   1.0832 B( 12-O , 19-H ) :   0.8388 B( 13-O , 20-H ) :   0.8474
B( 14-O , 21-H ) :   0.8301 B( 15-O , 22-H ) :   0.8384 B( 15-O , 23-H ) :   0.1055
B( 16-O , 23-H ) :   0.8146

Dispersion correction           -0.024988486
FINAL SINGLE POINT ENERGY      -685.693050075034

DIPOLE MOMENT
-------------

Method             : SCF
Type of density    : Electron Density
Multiplicity       :   1
Irrep              :   0
Energy             :  -685.8256149261464998 Eh
Relativity type    :
Basis              : AO
                                X                 Y                 Z
Electronic contribution:      1.344456167       0.195333405      -0.077441656
Nuclear contribution   :     -0.380415578      -0.129365868       0.132798447
                        -----------------------------------------
Total Dipole Moment    :      0.964040589       0.065967537       0.055356791
                        -----------------------------------------
Magnitude (a.u.)       :      0.967879305
Magnitude (Debye)      :      2.460153681

Rotational constants in cm-1:             0.043145             0.025319             0.021861
Rotational constants in MHz :          1293.460934           759.044625           655.382802

                             ****ORCA TERMINATED NORMALLY****
TOTAL RUN TIME: 0 days 0 hours 7 minutes 47 seconds 388 msec
