                         Program Version 6.0.1  -  RELEASE   -
|  1> ! pbe def2-sv(p) def2/J RI DEFGRID1 loosescf d4 GCP(DFT/SV(P)) printgap
|  2> %output
|  3>     printlevel normal
|  4> end
|  5> * xyz 0 1
|  6> C -2.1116178052 -1.2586539071 -0.0674695968
|  7> C -1.2002519192 -0.3645289325 0.8051696339
|  8> H -1.7247863876 -0.1505127999 1.7436035878
|  9> C -0.8988783728 0.9776224401 0.0963405673
| 10> H -1.1278524153 0.8695763371 -0.9788415256
| 11> C 0.588399406 1.2989394106 0.2357542775
| 12> H 0.8432911216 1.4067171815 1.2958523899
| 13> C 1.3912450074 0.1322560855 -0.3660994516
| 14> H 1.1244882501 0.023437738 -1.4318714159
| 15> C 1.0359049263 -1.1755018747 0.3563066595
| 16> H 1.8888789184 -1.4622130697 0.9859072613
| 17> O -0.0314683872 -1.0450246707 1.2502329691
| 18> O 0.7876928964 -2.1618658996 -0.6136902422
| 19> O 2.7661031229 0.3649058204 -0.238933362
| 20> O 0.9701075842 2.5009714808 -0.3808910759
| 21> O -1.6419137261 2.0400595945 0.6423568874
| 22> O -1.7243846613 -1.3249906336 -1.4102349518
| 23> H -3.1216232378 -0.8397015197 -0.0659450665
| 24> H -2.1491389396 -2.2576550656 0.3886132283
| 25> H 0.7140585873 -3.0210659858 -0.1799679249
| 26> H 2.903256284 1.3159264616 -0.3619007197
| 27> H 0.4231328278 2.648617596 -1.1605616791
| 28> H -2.5806624994 1.8770714523 0.501894766
| 29> H -0.8263209163 -1.7019700957 -1.4447692009
| 30> *
| 31>
| 32>                          ****END OF INPUT****

CARTESIAN COORDINATES (ANGSTROEM)
---------------------------------
  C     -2.111618   -1.258654   -0.067470
  C     -1.200252   -0.364529    0.805170
  H     -1.724786   -0.150513    1.743604
  C     -0.898878    0.977622    0.096341
  H     -1.127852    0.869576   -0.978842
  C      0.588399    1.298939    0.235754
  H      0.843291    1.406717    1.295852
  C      1.391245    0.132256   -0.366099
  H      1.124488    0.023438   -1.431871
  C      1.035905   -1.175502    0.356307
  H      1.888879   -1.462213    0.985907
  O     -0.031468   -1.045025    1.250233
  O      0.787693   -2.161866   -0.613690
  O      2.766103    0.364906   -0.238933
  O      0.970108    2.500971   -0.380891
  O     -1.641914    2.040060    0.642357
  O     -1.724385   -1.324991   -1.410235
  H     -3.121623   -0.839702   -0.065945
  H     -2.149139   -2.257655    0.388613
  H      0.714059   -3.021066   -0.179968
  H      2.903256    1.315926   -0.361901
  H      0.423133    2.648618   -1.160562
  H     -2.580662    1.877071    0.501895
  H     -0.826321   -1.701970   -1.444769

 Total Charge           Charge          ....    0
 Multiplicity           Mult            ....    1
 Number of Electrons    NEL             ....   96
 Basis Dimension        Dim             ....  192

ORBITAL ENERGIES
----------------

  NO   OCC          E(Eh)            E(eV)
   0   2.0000     -18.789408      -511.2858
   1   2.0000     -18.775838      -510.9165
   2   2.0000     -18.761743      -510.5330
   3   2.0000     -18.758241      -510.4377
   4   2.0000     -18.747316      -510.1404
   5   2.0000     -18.742319      -510.0044
   6   2.0000      -9.995208      -271.9834
   7   2.0000      -9.948760      -270.7195
   8   2.0000      -9.948157      -270.7031
   9   2.0000      -9.945349      -270.6267
  10   2.0000      -9.943139      -270.5666
  11   2.0000      -9.936842      -270.3952
  12   2.0000      -0.995279       -27.0829
  13   2.0000      -0.953378       -25.9427
  14   2.0000      -0.936911       -25.4946
  15   2.0000      -0.927793       -25.2465
  16   2.0000      -0.920479       -25.0475
  17   2.0000      -0.918394       -24.9908
  18   2.0000      -0.707801       -19.2602
  19   2.0000      -0.698153       -18.9977
  20   2.0000      -0.629860       -17.1394
  21   2.0000      -0.584311       -15.8999
  22   2.0000      -0.578884       -15.7522
  23   2.0000      -0.527823       -14.3628
  24   2.0000      -0.511679       -13.9235
  25   2.0000      -0.502253       -13.6670
  26   2.0000      -0.471340       -12.8258
  27   2.0000      -0.462542       -12.5864
  28   2.0000      -0.444310       -12.0903
  29   2.0000      -0.440814       -11.9952
  30   2.0000      -0.409974       -11.1560
  31   2.0000      -0.408440       -11.1142
  32   2.0000      -0.394997       -10.7484
  33   2.0000      -0.384003       -10.4492
  34   2.0000      -0.365222        -9.9382
  35   2.0000      -0.360321        -9.8048
  36   2.0000      -0.346607        -9.4316
  37   2.0000      -0.317267        -8.6333
  38   2.0000      -0.306174        -8.3314
  39   2.0000      -0.293378        -7.9832
  40   2.0000      -0.281469        -7.6592
  41   2.0000      -0.277678        -7.5560
  42   2.0000      -0.270598        -7.3633
  43   2.0000      -0.246708        -6.7133
  44   2.0000      -0.239934        -6.5289
  45   2.0000      -0.233919        -6.3653
  46   2.0000      -0.214011        -5.8235
  47   2.0000      -0.203538        -5.5386
  48   0.0000       0.009796         0.2666
  49   0.0000       0.011773         0.3204
  50   0.0000       0.029971         0.8156
  51   0.0000       0.044772         1.2183
  52   0.0000       0.057424         1.5626

MULLIKEN ATOMIC CHARGES
-----------------------
   0 C :    0.035581
   1 C :    0.013695
   2 H :    0.073159
   3 C :   -0.000773
   4 H :    0.062265
   5 C :    0.063475
   6 H :    0.074776
   7 C :    0.035983
   8 H :    0.051702
   9 C :    0.202204
  10 H :    0.083631
  11 O :   -0.304113
  12 O :   -0.405440
  13 O :   -0.412707
  14 O :   -0.411065
  15 O :   -0.397125
  16 O :   -0.441121
  17 H :    0.074790
  18 H :    0.074125
  19 H :    0.312975
  20 H :    0.305192
  21 H :    0.304436
  22 H :    0.302360
  23 H :    0.301993
Sum of atomic charges:    0.0000000

LOEWDIN ATOMIC CHARGES
----------------------
   0 C :   -0.138466
   1 C :   -0.079979
   2 H :    0.121884
   3 C :   -0.086391
   4 H :    0.101287
   5 C :   -0.075253
   6 H :    0.122703
   7 C :   -0.083836
   8 H :    0.101060
   9 C :    0.001228
  10 H :    0.113828
  11 O :   -0.139476
  12 O :   -0.300169
  13 O :   -0.317641
  14 O :   -0.304766
  15 O :   -0.315181
  16 O :   -0.345323
  17 H :    0.110426
  18 H :    0.098720
  19 H :    0.291830
  20 H :    0.282857
  21 H :    0.289552
  22 H :    0.286725
  23 H :    0.264381

  Mayer bond orders larger than 0.100000
B(  0-C ,  1-C ) :   1.0236 B(  0-C , 16-O ) :   1.1016 B(  0-C , 17-H ) :   0.9200
B(  0-C , 18-H ) :   0.9075 B(  1-C ,  2-H ) :   0.8841 B(  1-C ,  3-C ) :   0.9965
B(  1-C , 11-O ) :   1.0045 B(  3-C ,  4-H ) :   0.8619 B(  3-C ,  5-C ) :   1.0314
B(  3-C , 15-O ) :   1.0936 B(  5-C ,  6-H ) :   0.8626 B(  5-C ,  7-C ) :   1.0070
B(  5-C , 14-O ) :   1.0558 B(  7-C ,  8-H ) :   0.8712 B(  7-C ,  9-C ) :   0.9872
B(  7-C , 13-O ) :   1.1026 B(  9-C , 10-H ) :   0.8865 B(  9-C , 11-O ) :   1.0898
B(  9-C , 12-O ) :   1.0514 B( 12-O , 19-H ) :   0.8343 B( 12-O , 23-H ) :   0.1225
B( 13-O , 20-H ) :   0.8271 B( 14-O , 21-H ) :   0.8453 B( 15-O , 22-H ) :   0.8490
B( 16-O , 23-H ) :   0.7858

Dispersion correction           -0.025229188
FINAL SINGLE POINT ENERGY      -685.695206937328

DIPOLE MOMENT
-------------

Method             : SCF
Type of density    : Electron Density
Multiplicity       :   1
Irrep              :   0
Energy             :  -685.8281265380326204 Eh
Relativity type    :
Basis              : AO
                                X                 Y                 Z
Electronic contribution:      2.778140083       0.778413630       0.670857486
Nuclear contribution   :     -3.391950087      -1.206360229      -0.675339640
                        -----------------------------------------
Total Dipole Moment    :     -0.613810005      -0.427946599      -0.004482154
                        -----------------------------------------
Magnitude (a.u.)       :      0.748278760
Magnitude (Debye)      :      1.901973456

Rotational constants in cm-1:             0.037092             0.031862             0.021128
Rotational constants in MHz :          1111.996266           955.188827           633.387207

                             ****ORCA TERMINATED NORMALLY****
TOTAL RUN TIME: 0 days 0 hours 0 minutes 18 seconds 615 msec
