                         Program Version 6.0.1  -  RELEASE   -
|  1> ! r2scan-3c def2/J RI DEFGRID2 scfconv6 printgap
|  2> %output
|  3>     printlevel normal
|  4> end
|  5> * xyz 0 1
|  6> C -2.4907713776 -0.1921439999 -1.0243877734
|  7> S -1.8537754703 0.232292314 0.6285095906
|  8> C -0.1082338968 0.073490228 0.257864366
|  9> C 0.5927202589 1.1673551675 -0.2214931996
| 10> C 1.9361982102 1.0357785443 -0.5267055417
| 11> C 2.5725428227 -0.1815338046 -0.3489407976
| 12> C 1.8672977207 -1.2696166688 0.1378632582
| 13> C 0.523583635 -1.1444592436 0.4448286056
| 14> H -2.1152124351 0.5219101622 -1.7514856886
| 15> H -3.5724011056 -0.1347993711 -0.9644612284
| 16> H -2.1808785616 -1.2004853857 -1.2832240848
| 17> H 0.0861801093 2.1121740156 -0.3501316909
| 18> H 2.4867269391 1.8859607609 -0.9016472592
| 19> H 3.6212265437 -0.2814979899 -0.5870199326
| 20> H 2.363997103 -2.2179074903 0.2810425556
| 21> H -0.0366309631 -1.9832134507 0.8299962815
| 22> *
| 23>
| 24>                          ****END OF INPUT****

CARTESIAN COORDINATES (ANGSTROEM)
---------------------------------
  C     -2.490771   -0.192144   -1.024388
  S     -1.853775    0.232292    0.628510
  C     -0.108234    0.073490    0.257864
  C      0.592720    1.167355   -0.221493
  C      1.936198    1.035779   -0.526706
  C      2.572543   -0.181534   -0.348941
  C      1.867298   -1.269617    0.137863
  C      0.523584   -1.144459    0.444829
  H     -2.115212    0.521910   -1.751486
  H     -3.572401   -0.134799   -0.964461
  H     -2.180879   -1.200485   -1.283224
  H      0.086180    2.112174   -0.350132
  H      2.486727    1.885961   -0.901647
  H      3.621227   -0.281498   -0.587020
  H      2.363997   -2.217907    0.281043
  H     -0.036631   -1.983213    0.829996

 Total Charge           Charge          ....    0
 Multiplicity           Mult            ....    1
 Number of Electrons    NEL             ....   66
 Basis Dimension        Dim             ....  200

ORBITAL ENERGIES
----------------

  NO   OCC          E(Eh)            E(eV)
   0   2.0000     -88.552213     -2409.6282
   1   2.0000     -10.067353      -273.9466
   2   2.0000     -10.055893      -273.6348
   3   2.0000     -10.043103      -273.2867
   4   2.0000     -10.042911      -273.2815
   5   2.0000     -10.042596      -273.2729
   6   2.0000     -10.042396      -273.2675
   7   2.0000     -10.042275      -273.2642
   8   2.0000      -7.845992      -213.5003
   9   2.0000      -5.793631      -157.6527
  10   2.0000      -5.789860      -157.5501
  11   2.0000      -5.782398      -157.3470
  12   2.0000      -0.839907       -22.8550
  13   2.0000      -0.764054       -20.7910
  14   2.0000      -0.725590       -19.7443
  15   2.0000      -0.706169       -19.2158
  16   2.0000      -0.615091       -16.7375
  17   2.0000      -0.583985       -15.8910
  18   2.0000      -0.552495       -15.0342
  19   2.0000      -0.488001       -13.2792
  20   2.0000      -0.432735       -11.7753
  21   2.0000      -0.429140       -11.6775
  22   2.0000      -0.407351       -11.0846
  23   2.0000      -0.400542       -10.8993
  24   2.0000      -0.392573       -10.6825
  25   2.0000      -0.380651       -10.3581
  26   2.0000      -0.355602        -9.6764
  27   2.0000      -0.329477        -8.9655
  28   2.0000      -0.322487        -8.7753
  29   2.0000      -0.293368        -7.9830
  30   2.0000      -0.246182        -6.6990
  31   2.0000      -0.239711        -6.5229
  32   2.0000      -0.199237        -5.4215
  33   0.0000      -0.047242        -1.2855
  34   0.0000      -0.040043        -1.0896
  35   0.0000       0.023613         0.6425
  36   0.0000       0.052526         1.4293
  37   0.0000       0.084995         2.3128

MULLIKEN ATOMIC CHARGES
-----------------------
   0 C :   -0.410249
   1 S :   -0.156392
   2 C :    0.101298
   3 C :   -0.198840
   4 C :   -0.119437
   5 C :   -0.150275
   6 C :   -0.119468
   7 C :   -0.197733
   8 H :    0.161504
   9 H :    0.152323
  10 H :    0.161722
  11 H :    0.164262
  12 H :    0.148983
  13 H :    0.148806
  14 H :    0.149022
  15 H :    0.164473
Sum of atomic charges:   -0.0000000

LOEWDIN ATOMIC CHARGES
----------------------
   0 C :   -0.440292
   1 S :    0.081335
   2 C :   -0.183952
   3 C :   -0.156345
   4 C :   -0.160516
   5 C :   -0.160798
   6 C :   -0.160488
   7 C :   -0.156247
   8 H :    0.157260
   9 H :    0.163751
  10 H :    0.157275
  11 H :    0.176687
  12 H :    0.168724
  13 H :    0.168102
  14 H :    0.168727
  15 H :    0.176777

  Mayer bond orders larger than 0.100000
B(  0-C ,  1-S ) :   0.9857 B(  0-C ,  8-H ) :   0.9544 B(  0-C ,  9-H ) :   0.9485
B(  0-C , 10-H ) :   0.9544 B(  1-S ,  2-C ) :   0.8909 B(  2-C ,  3-C ) :   1.3928
B(  2-C ,  7-C ) :   1.3940 B(  3-C ,  4-C ) :   1.3963 B(  3-C , 11-H ) :   0.9504
B(  4-C ,  5-C ) :   1.4222 B(  4-C , 12-H ) :   0.9486 B(  5-C ,  6-C ) :   1.4228
B(  5-C , 13-H ) :   0.9462 B(  6-C ,  7-C ) :   1.3947 B(  6-C , 14-H ) :   0.9487
B(  7-C , 15-H ) :   0.9505

Dispersion correction           -0.005568011
FINAL SINGLE POINT ENERGY      -669.644491951180

DIPOLE MOMENT
-------------

Method             : SCF
Type of density    : Electron Density
Multiplicity       :   1
Irrep              :   0
Energy             :  -669.6464501444557982 Eh
Relativity type    :
Basis              : AO
                                X                 Y                 Z
Electronic contribution:     -0.326173437       1.043887565       3.829857293
Nuclear contribution   :      0.666297862      -1.224337349      -4.452861666
                        -----------------------------------------
Total Dipole Moment    :      0.340124425      -0.180449784      -0.623004373
                        -----------------------------------------
Magnitude (a.u.)       :      0.732380500
Magnitude (Debye)      :      1.861563291

Rotational constants in cm-1:             0.133982             0.037947             0.033907
Rotational constants in MHz :          4016.690909          1137.619087          1016.493266

                             ****ORCA TERMINATED NORMALLY****
TOTAL RUN TIME: 0 days 0 hours 0 minutes 19 seconds 741 msec
