                         Program Version 6.0.1  -  RELEASE   -
|  1> ! pbe def2-sv(p) def2/J RI DEFGRID1 loosescf d4 GCP(DFT/SV(P)) printgap
|  2> %output
|  3>     printlevel normal
|  4> end
|  5> * xyz 0 1
|  6> C -1.9007891014 -0.5897731834 -0.7903375452
|  7> C -1.2331522608 -0.0795396774 0.5026305332
|  8> H -1.9766087675 -0.0617100303 1.311427022
|  9> C -0.6555536368 1.3390654304 0.3632151539
| 10> H -1.4130855963 1.988543469 -0.0936378638
| 11> C 0.6237123979 1.3461839358 -0.502347497
| 12> H 1.1099651558 2.3262204718 -0.3377813974
| 13> C 1.6055516005 0.263243286 -0.013686003
| 14> H 2.3487730507 0.0939626554 -0.8030535666
| 15> C 0.9242353233 -1.0946505842 0.2483363632
| 16> H 1.593726343 -1.6658344445 0.9165378522
| 17> O -0.2546152883 -0.9858046676 0.9898613404
| 18> O 0.7649338473 -1.7650367575 -0.9600302949
| 19> O 2.2056696121 0.6521746271 1.2021212168
| 20> O 0.3804412933 1.1548999464 -1.8708039639
| 21> O -0.3812052463 1.8883626191 1.6243615383
| 22> O -2.1018600916 -1.9831471268 -0.7443698722
| 23> H -1.257134745 -0.4114039117 -1.6534368641
| 24> H -2.8532663091 -0.0591545116 -0.9297596622
| 25> H -0.0686725466 -2.2616728012 -0.9312624606
| 26> H 2.7634096312 1.4236268902 1.0491158877
| 27> H -0.1641507846 1.8785890113 -2.2008192062
| 28> H 0.2904490593 1.3293399765 2.045704791
| 29> H -2.5308744047 -2.2104122126 0.0893995112
| 30> *
| 31>
| 32>                          ****END OF INPUT****

CARTESIAN COORDINATES (ANGSTROEM)
---------------------------------
  C     -1.900789   -0.589773   -0.790338
  C     -1.233152   -0.079540    0.502631
  H     -1.976609   -0.061710    1.311427
  C     -0.655554    1.339065    0.363215
  H     -1.413086    1.988543   -0.093638
  C      0.623712    1.346184   -0.502347
  H      1.109965    2.326220   -0.337781
  C      1.605552    0.263243   -0.013686
  H      2.348773    0.093963   -0.803054
  C      0.924235   -1.094651    0.248336
  H      1.593726   -1.665834    0.916538
  O     -0.254615   -0.985805    0.989861
  O      0.764934   -1.765037   -0.960030
  O      2.205670    0.652175    1.202121
  O      0.380441    1.154900   -1.870804
  O     -0.381205    1.888363    1.624362
  O     -2.101860   -1.983147   -0.744370
  H     -1.257135   -0.411404   -1.653437
  H     -2.853266   -0.059155   -0.929760
  H     -0.068673   -2.261673   -0.931262
  H      2.763410    1.423627    1.049116
  H     -0.164151    1.878589   -2.200819
  H      0.290449    1.329340    2.045705
  H     -2.530874   -2.210412    0.089400

 Total Charge           Charge          ....    0
 Multiplicity           Mult            ....    1
 Number of Electrons    NEL             ....   96
 Basis Dimension        Dim             ....  192

ORBITAL ENERGIES
----------------

  NO   OCC          E(Eh)            E(eV)
   0   2.0000     -18.771305      -510.7932
   1   2.0000     -18.770913      -510.7825
   2   2.0000     -18.765737      -510.6417
   3   2.0000     -18.763982      -510.5939
   4   2.0000     -18.744279      -510.0578
   5   2.0000     -18.739931      -509.9394
   6   2.0000      -9.979950      -271.5682
   7   2.0000      -9.950710      -270.7726
   8   2.0000      -9.947404      -270.6826
   9   2.0000      -9.946086      -270.6468
  10   2.0000      -9.945749      -270.6376
  11   2.0000      -9.933413      -270.3019
  12   2.0000      -0.984125       -26.7794
  13   2.0000      -0.950487       -25.8641
  14   2.0000      -0.940639       -25.5961
  15   2.0000      -0.934485       -25.4286
  16   2.0000      -0.925836       -25.1933
  17   2.0000      -0.899376       -24.4733
  18   2.0000      -0.703400       -19.1405
  19   2.0000      -0.692533       -18.8448
  20   2.0000      -0.621373       -16.9084
  21   2.0000      -0.590666       -16.0728
  22   2.0000      -0.580675       -15.8010
  23   2.0000      -0.524884       -14.2828
  24   2.0000      -0.494999       -13.4696
  25   2.0000      -0.486021       -13.2253
  26   2.0000      -0.482422       -13.1274
  27   2.0000      -0.460918       -12.5422
  28   2.0000      -0.441580       -12.0160
  29   2.0000      -0.426580       -11.6078
  30   2.0000      -0.422331       -11.4922
  31   2.0000      -0.400842       -10.9075
  32   2.0000      -0.392868       -10.6905
  33   2.0000      -0.383201       -10.4274
  34   2.0000      -0.368156       -10.0180
  35   2.0000      -0.344327        -9.3696
  36   2.0000      -0.332490        -9.0475
  37   2.0000      -0.325013        -8.8441
  38   2.0000      -0.310590        -8.4516
  39   2.0000      -0.300720        -8.1830
  40   2.0000      -0.292647        -7.9633
  41   2.0000      -0.266175        -7.2430
  42   2.0000      -0.251222        -6.8361
  43   2.0000      -0.240530        -6.5451
  44   2.0000      -0.238997        -6.5034
  45   2.0000      -0.225473        -6.1354
  46   2.0000      -0.212420        -5.7802
  47   2.0000      -0.203330        -5.5329
  48   0.0000       0.008805         0.2396
  49   0.0000       0.012534         0.3411
  50   0.0000       0.023768         0.6468
  51   0.0000       0.055154         1.5008
  52   0.0000       0.071776         1.9531

MULLIKEN ATOMIC CHARGES
-----------------------
   0 C :   -0.009751
   1 C :   -0.002711
   2 H :    0.072302
   3 C :    0.060785
   4 H :    0.057186
   5 C :    0.028304
   6 H :    0.057886
   7 C :    0.017316
   8 H :    0.091918
   9 C :    0.215092
  10 H :    0.065618
  11 O :   -0.311699
  12 O :   -0.412803
  13 O :   -0.414420
  14 O :   -0.385891
  15 O :   -0.426440
  16 O :   -0.427901
  17 H :    0.121405
  18 H :    0.078839
  19 H :    0.307856
  20 H :    0.308322
  21 H :    0.304249
  22 H :    0.301054
  23 H :    0.303485
Sum of atomic charges:   -0.0000000

LOEWDIN ATOMIC CHARGES
----------------------
   0 C :   -0.163216
   1 C :   -0.079580
   2 H :    0.113635
   3 C :   -0.074969
   4 H :    0.109269
   5 C :   -0.081254
   6 H :    0.096014
   7 C :   -0.079730
   8 H :    0.118621
   9 C :    0.008446
  10 H :    0.098221
  11 O :   -0.138265
  12 O :   -0.320388
  13 O :   -0.305717
  14 O :   -0.299755
  15 O :   -0.317979
  16 O :   -0.321323
  17 H :    0.120539
  18 H :    0.101784
  19 H :    0.278062
  20 H :    0.290125
  21 H :    0.287764
  22 H :    0.273340
  23 H :    0.286357

  Mayer bond orders larger than 0.100000
B(  0-C ,  1-C ) :   1.0339 B(  0-C , 16-O ) :   1.0215 B(  0-C , 17-H ) :   0.8893
B(  0-C , 18-H ) :   0.9094 B(  1-C ,  2-H ) :   0.8925 B(  1-C ,  3-C ) :   1.0043
B(  1-C , 11-O ) :   1.0216 B(  3-C ,  4-H ) :   0.8941 B(  3-C ,  5-C ) :   0.9532
B(  3-C , 15-O ) :   1.0562 B(  5-C ,  6-H ) :   0.9033 B(  5-C ,  7-C ) :   0.9775
B(  5-C , 14-O ) :   1.0695 B(  7-C ,  8-H ) :   0.8874 B(  7-C ,  9-C ) :   0.9823
B(  7-C , 13-O ) :   1.0363 B(  9-C , 10-H ) :   0.9014 B(  9-C , 11-O ) :   1.0562
B(  9-C , 12-O ) :   1.1437 B( 12-O , 19-H ) :   0.7902 B( 13-O , 20-H ) :   0.8418
B( 14-O , 21-H ) :   0.8409 B( 15-O , 22-H ) :   0.8177 B( 16-O , 19-H ) :   0.1060
B( 16-O , 23-H ) :   0.8459

Dispersion correction           -0.026320093
FINAL SINGLE POINT ENERGY      -685.693190849195

DIPOLE MOMENT
-------------

Method             : SCF
Type of density    : Electron Density
Multiplicity       :   1
Irrep              :   0
Energy             :  -685.8268201594685252 Eh
Relativity type    :
Basis              : AO
                                X                 Y                 Z
Electronic contribution:      1.692909663      -1.377364140       1.393139187
Nuclear contribution   :     -2.014987126       2.208166285      -1.438926069
                        -----------------------------------------
Total Dipole Moment    :     -0.322077463       0.830802145      -0.045786883
                        -----------------------------------------
Magnitude (a.u.)       :      0.892223366
Magnitude (Debye)      :      2.267851568

Rotational constants in cm-1:             0.042287             0.028832             0.025954
Rotational constants in MHz :          1267.736957           864.376073           778.090284

                             ****ORCA TERMINATED NORMALLY****
TOTAL RUN TIME: 0 days 0 hours 0 minutes 8 seconds 723 msec
