                         Program Version 6.0.1  -  RELEASE   -
|  1> ! pbe def2-sv(p) def2/J RI DEFGRID1 loosescf d4 GCP(DFT/SV(P)) printgap
|  2> %output
|  3>     printlevel normal
|  4> end
|  5> * xyz 0 1
|  6> C -2.5621478226 -0.8975685758 0.231758292
|  7> C -1.149902691 -0.4413252105 0.625918575
|  8> H -1.0739437948 -0.3762240323 1.7213094002
|  9> C -0.845694038 0.9437422411 0.0377633027
| 10> H -1.0854790733 0.9280844722 -1.0394148177
| 11> C 0.6444993734 1.2906769019 0.2157972067
| 12> H 0.8450081458 1.4137342815 1.289170323
| 13> C 1.5069850722 0.1513347512 -0.3429153892
| 14> H 1.2932516535 0.0246324494 -1.4135125716
| 15> C 1.1017626938 -1.1502970308 0.3910473883
| 16> H 1.2620420841 -1.0268745676 1.4762013834
| 17> O -0.2564749018 -1.4203754309 0.127076791
| 18> O 1.8571359621 -2.2382324452 0.0208057329
| 19> O 2.879123893 0.4108364582 -0.2729910374
| 20> O 0.9348579067 2.5425924586 -0.3571993611
| 21> O -1.6458694912 1.886459973 0.7009134518
| 22> O -2.6575668996 -1.1371685297 -1.1443291371
| 23> H -3.2688725034 -0.102133709 0.4704092416
| 24> H -2.8142508857 -1.8006343769 0.8030875555
| 25> H 1.7228093519 -2.4169721705 -0.9182422222
| 26> H 3.152405544 0.4733245258 0.6495757
| 27> H 1.1223070333 2.429312359 -1.2962083971
| 28> H -1.2810261532 2.7604534085 0.5055032834
| 29> H -1.9680289254 -1.7743010083 -1.3689861765
| 30> *
| 31>
| 32>                          ****END OF INPUT****

CARTESIAN COORDINATES (ANGSTROEM)
---------------------------------
  C     -2.562148   -0.897569    0.231758
  C     -1.149903   -0.441325    0.625919
  H     -1.073944   -0.376224    1.721309
  C     -0.845694    0.943742    0.037763
  H     -1.085479    0.928084   -1.039415
  C      0.644499    1.290677    0.215797
  H      0.845008    1.413734    1.289170
  C      1.506985    0.151335   -0.342915
  H      1.293252    0.024632   -1.413513
  C      1.101763   -1.150297    0.391047
  H      1.262042   -1.026875    1.476201
  O     -0.256475   -1.420375    0.127077
  O      1.857136   -2.238232    0.020806
  O      2.879124    0.410836   -0.272991
  O      0.934858    2.542592   -0.357199
  O     -1.645869    1.886460    0.700913
  O     -2.657567   -1.137169   -1.144329
  H     -3.268873   -0.102134    0.470409
  H     -2.814251   -1.800634    0.803088
  H      1.722809   -2.416972   -0.918242
  H      3.152406    0.473325    0.649576
  H      1.122307    2.429312   -1.296208
  H     -1.281026    2.760453    0.505503
  H     -1.968029   -1.774301   -1.368986

 Total Charge           Charge          ....    0
 Multiplicity           Mult            ....    1
 Number of Electrons    NEL             ....   96
 Basis Dimension        Dim             ....  192

ORBITAL ENERGIES
----------------

  NO   OCC          E(Eh)            E(eV)
   0   2.0000     -18.784830      -511.1612
   1   2.0000     -18.769585      -510.7464
   2   2.0000     -18.765531      -510.6360
   3   2.0000     -18.762468      -510.5527
   4   2.0000     -18.753190      -510.3002
   5   2.0000     -18.748329      -510.1680
   6   2.0000      -9.998885      -272.0835
   7   2.0000      -9.953649      -270.8526
   8   2.0000      -9.950286      -270.7611
   9   2.0000      -9.948708      -270.7181
  10   2.0000      -9.942204      -270.5411
  11   2.0000      -9.930261      -270.2161
  12   2.0000      -0.995741       -27.0955
  13   2.0000      -0.955582       -26.0027
  14   2.0000      -0.944640       -25.7050
  15   2.0000      -0.931832       -25.3564
  16   2.0000      -0.923203       -25.1216
  17   2.0000      -0.918409       -24.9912
  18   2.0000      -0.708608       -19.2822
  19   2.0000      -0.697008       -18.9666
  20   2.0000      -0.619484       -16.8570
  21   2.0000      -0.593736       -16.1564
  22   2.0000      -0.577665       -15.7191
  23   2.0000      -0.548302       -14.9201
  24   2.0000      -0.508989       -13.8503
  25   2.0000      -0.496465       -13.5095
  26   2.0000      -0.464471       -12.6389
  27   2.0000      -0.462008       -12.5719
  28   2.0000      -0.454106       -12.3568
  29   2.0000      -0.443129       -12.0582
  30   2.0000      -0.432242       -11.7619
  31   2.0000      -0.419132       -11.4052
  32   2.0000      -0.377859       -10.2821
  33   2.0000      -0.375706       -10.2235
  34   2.0000      -0.370024       -10.0689
  35   2.0000      -0.356011        -9.6875
  36   2.0000      -0.332642        -9.0516
  37   2.0000      -0.320668        -8.7258
  38   2.0000      -0.310836        -8.4583
  39   2.0000      -0.298644        -8.1265
  40   2.0000      -0.294463        -8.0128
  41   2.0000      -0.280157        -7.6235
  42   2.0000      -0.260133        -7.0786
  43   2.0000      -0.257335        -7.0024
  44   2.0000      -0.243970        -6.6387
  45   2.0000      -0.222777        -6.0621
  46   2.0000      -0.216491        -5.8910
  47   2.0000      -0.209403        -5.6981
  48   0.0000       0.011037         0.3003
  49   0.0000       0.016319         0.4441
  50   0.0000       0.022989         0.6256
  51   0.0000       0.041600         1.1320
  52   0.0000       0.053922         1.4673

MULLIKEN ATOMIC CHARGES
-----------------------
   0 C :    0.093850
   1 C :   -0.011498
   2 H :    0.059778
   3 C :    0.067485
   4 H :    0.040096
   5 C :    0.045410
   6 H :    0.050144
   7 C :    0.026599
   8 H :    0.043867
   9 C :    0.171528
  10 H :    0.045653
  11 O :   -0.315615
  12 O :   -0.356510
  13 O :   -0.392124
  14 O :   -0.407402
  15 O :   -0.415214
  16 O :   -0.436740
  17 H :    0.100626
  18 H :    0.080067
  19 H :    0.303238
  20 H :    0.301135
  21 H :    0.305108
  22 H :    0.305824
  23 H :    0.294697
Sum of atomic charges:    0.0000000

LOEWDIN ATOMIC CHARGES
----------------------
   0 C :   -0.122091
   1 C :   -0.070820
   2 H :    0.108728
   3 C :   -0.079984
   4 H :    0.098741
   5 C :   -0.092125
   6 H :    0.109405
   7 C :   -0.107103
   8 H :    0.108448
   9 C :   -0.006601
  10 H :    0.095228
  11 O :   -0.156735
  12 O :   -0.277851
  13 O :   -0.303417
  14 O :   -0.311215
  15 O :   -0.318782
  16 O :   -0.329684
  17 H :    0.125403
  18 H :    0.100529
  19 H :    0.289749
  20 H :    0.289010
  21 H :    0.289402
  22 H :    0.285517
  23 H :    0.276249

  Mayer bond orders larger than 0.100000
B(  0-C ,  1-C ) :   1.0460 B(  0-C , 16-O ) :   1.0616 B(  0-C , 17-H ) :   0.9147
B(  0-C , 18-H ) :   0.9153 B(  1-C ,  2-H ) :   0.8703 B(  1-C ,  3-C ) :   1.0002
B(  1-C , 11-O ) :   0.9851 B(  3-C ,  4-H ) :   0.8575 B(  3-C ,  5-C ) :   0.9968
B(  3-C , 15-O ) :   1.0691 B(  5-C ,  6-H ) :   0.8670 B(  5-C ,  7-C ) :   0.9955
B(  5-C , 14-O ) :   1.0640 B(  7-C ,  8-H ) :   0.8522 B(  7-C ,  9-C ) :   0.9655
B(  7-C , 13-O ) :   1.0783 B(  9-C , 10-H ) :   0.8792 B(  9-C , 11-O ) :   0.9948
B(  9-C , 12-O ) :   1.1752 B( 12-O , 19-H ) :   0.8444 B( 13-O , 20-H ) :   0.8497
B( 14-O , 21-H ) :   0.8469 B( 15-O , 22-H ) :   0.8313 B( 16-O , 23-H ) :   0.8409

Dispersion correction           -0.024025688
FINAL SINGLE POINT ENERGY      -685.697229517068

DIPOLE MOMENT
-------------

Method             : SCF
Type of density    : Electron Density
Multiplicity       :   1
Irrep              :   0
Energy             :  -685.8276630253390067 Eh
Relativity type    :
Basis              : AO
                                X                 Y                 Z
Electronic contribution:      2.483438129      -0.466697832      -0.926869491
Nuclear contribution   :     -1.947857547       0.500136806       0.810836746
                        -----------------------------------------
Total Dipole Moment    :      0.535580582       0.033438974      -0.116032744
                        -----------------------------------------
Magnitude (a.u.)       :      0.549024883
Magnitude (Debye)      :      1.395510350

Rotational constants in cm-1:             0.038304             0.027469             0.017927
Rotational constants in MHz :          1148.315268           823.486776           537.435043

                             ****ORCA TERMINATED NORMALLY****
TOTAL RUN TIME: 0 days 0 hours 0 minutes 10 seconds 790 msec
