                         Program Version 6.0.1  -  RELEASE   -
|  1> ! pbe def2-sv(p) def2/J RI DEFGRID1 loosescf d4 GCP(DFT/SV(P)) printgap
|  2> %output
|  3>     printlevel normal
|  4> end
|  5> * xyz 0 1
|  6> C -2.2454511904 -0.4206107333 -2.2142e-06
|  7> C -1.1840213295 0.6742756784 -2.7151e-06
|  8> Br 0.6421001614 -0.0445533834 -2.636e-06
|  9> H -2.8796925429 -0.3393152419 -0.8795810235
| 10> H -1.798713667 -1.4117724227 -0.0039495253
| 11> H -2.8749168764 -0.3441528147 0.8834498523
| 12> H -1.240983889 1.3019639051 0.8872564657
| 13> H -1.2413878913 1.3024777775 -0.886908053
| 14> *
| 15>
| 16>                          ****END OF INPUT****

CARTESIAN COORDINATES (ANGSTROEM)
---------------------------------
  C     -2.245451   -0.420611   -0.000002
  C     -1.184021    0.674276   -0.000003
  Br     0.642100   -0.044553   -0.000003
  H     -2.879693   -0.339315   -0.879581
  H     -1.798714   -1.411772   -0.003950
  H     -2.874917   -0.344153    0.883450
  H     -1.240984    1.301964    0.887256
  H     -1.241388    1.302478   -0.886908

 Total Charge           Charge          ....    0
 Multiplicity           Mult            ....    1
 Number of Electrons    NEL             ....   52
 Basis Dimension        Dim             ....   70

ORBITAL ENERGIES
----------------

  NO   OCC          E(Eh)            E(eV)
   0   2.0000    -480.918726    -13086.4638
   1   2.0000     -61.761078     -1680.6044
   2   2.0000     -55.691638     -1515.4465
   3   2.0000     -55.688571     -1515.3631
   4   2.0000     -55.688555     -1515.3626
   5   2.0000      -9.942396      -270.5463
   6   2.0000      -9.892504      -269.1887
   7   2.0000      -8.386277      -228.2022
   8   2.0000      -6.268351      -170.5705
   9   2.0000      -6.253885      -170.1769
  10   2.0000      -6.253634      -170.1700
  11   2.0000      -2.469449       -67.1971
  12   2.0000      -2.465914       -67.1009
  13   2.0000      -2.465700       -67.0951
  14   2.0000      -2.454892       -66.8010
  15   2.0000      -2.454882       -66.8007
  16   2.0000      -0.740206       -20.1420
  17   2.0000      -0.656876       -17.8745
  18   2.0000      -0.553248       -15.0546
  19   2.0000      -0.424712       -11.5570
  20   2.0000      -0.397968       -10.8292
  21   2.0000      -0.361264        -9.8305
  22   2.0000      -0.331031        -9.0078
  23   2.0000      -0.315142        -8.5754
  24   2.0000      -0.233155        -6.3445
  25   2.0000      -0.230743        -6.2788
  26   0.0000      -0.029016        -0.7896
  27   0.0000       0.038457         1.0465
  28   0.0000       0.062981         1.7138
  29   0.0000       0.080718         2.1965
  30   0.0000       0.131676         3.5831

MULLIKEN ATOMIC CHARGES
-----------------------
   0 C :   -0.271686
   1 C :   -0.255518
   2 Br:   -0.134472
   3 H :    0.116171
   4 H :    0.132527
   5 H :    0.116209
   6 H :    0.148395
   7 H :    0.148375
Sum of atomic charges:    0.0000000

LOEWDIN ATOMIC CHARGES
----------------------
   0 C :   -0.363950
   1 C :   -0.286661
   2 Br:    0.001717
   3 H :    0.128956
   4 H :    0.131126
   5 H :    0.128943
   6 H :    0.129942
   7 H :    0.129927

  Mayer bond orders larger than 0.100000
B(  0-C ,  1-C ) :   1.1031 B(  0-C ,  3-H ) :   0.9542 B(  0-C ,  4-H ) :   0.9550
B(  0-C ,  5-H ) :   0.9543 B(  1-C ,  2-Br) :   1.0444 B(  1-C ,  6-H ) :   0.9386
B(  1-C ,  7-H ) :   0.9387

Dispersion correction           -0.004478024
FINAL SINGLE POINT ENERGY     -2652.455743317428

DIPOLE MOMENT
-------------

Method             : SCF
Type of density    : Electron Density
Multiplicity       :   1
Irrep              :   0
Energy             : -2652.4878511974748108 Eh
Relativity type    :
Basis              : AO
                                X                 Y                 Z
Electronic contribution:     14.646786866      -0.688390872      -0.000290858
Nuclear contribution   :    -15.377305670       0.891408582       0.000275642
                        -----------------------------------------
Total Dipole Moment    :     -0.730518804       0.203017710      -0.000015216
                        -----------------------------------------
Magnitude (a.u.)       :      0.758204401
Magnitude (Debye)      :      1.927202430

Rotational constants in cm-1:             1.018234             0.123449             0.114830
Rotational constants in MHz :         30525.901741          3700.908568          3442.516543

                             ****ORCA TERMINATED NORMALLY****
TOTAL RUN TIME: 0 days 0 hours 0 minutes 2 seconds 875 msec
