                         Program Version 6.0.1  -  RELEASE   -
|  1> ! pbe def2-sv(p) def2/J RI DEFGRID1 loosescf d4 GCP(DFT/SV(P)) printgap
|  2> %output
|  3>     printlevel normal
|  4> end
|  5> * xyz 0 1
|  6> C -2.82340444 1.0187614321 3.36919e-05
|  7> O -2.2157971174 -0.2487787251 -2.86012e-05
|  8> C -0.8554783232 -0.3235306197 -1.33684e-05
|  9> C -0.3165697449 -1.6100532521 -2.6992e-06
| 10> C 1.0518765374 -1.7851735699 1.46174e-05
| 11> C 1.9065422276 -0.6977670697 1.41731e-05
| 12> C 1.3732912358 0.5840822256 -1.8862e-06
| 13> C -0.0047162591 0.7746756532 -9.2664e-06
| 14> O 2.2328484481 1.6397246222 -6.3021e-06
| 15> H -2.5585934902 1.5932574898 -0.8940608169
| 16> H -2.5586656996 1.5931239743 0.8942363842
| 17> H -3.896106544 0.8319112175 -2.66631e-05
| 18> H -0.9924728566 -2.4493526656 -8.4634e-06
| 19> H 1.4614513057 -2.7837445209 2.38687e-05
| 20> H 2.9771291613 -0.8183330874 2.48487e-05
| 21> H -0.3918990163 1.7842362418 -1.15277e-05
| 22> H 1.7375549795 2.4675655796 -4.37908e-05
| 23> *
| 24>
| 25>                          ****END OF INPUT****

CARTESIAN COORDINATES (ANGSTROEM)
---------------------------------
  C     -2.823404    1.018761    0.000034
  O     -2.215797   -0.248779   -0.000029
  C     -0.855478   -0.323531   -0.000013
  C     -0.316570   -1.610053   -0.000003
  C      1.051877   -1.785174    0.000015
  C      1.906542   -0.697767    0.000014
  C      1.373291    0.584082   -0.000002
  C     -0.004716    0.774676   -0.000009
  O      2.232848    1.639725   -0.000006
  H     -2.558593    1.593257   -0.894061
  H     -2.558666    1.593124    0.894236
  H     -3.896107    0.831911   -0.000027
  H     -0.992473   -2.449353   -0.000008
  H      1.461451   -2.783745    0.000024
  H      2.977129   -0.818333    0.000025
  H     -0.391899    1.784236   -0.000012
  H      1.737555    2.467566   -0.000044

 Total Charge           Charge          ....    0
 Multiplicity           Mult            ....    1
 Number of Electrons    NEL             ....   66
 Basis Dimension        Dim             ....  142

ORBITAL ENERGIES
----------------

  NO   OCC          E(Eh)            E(eV)
   0   2.0000     -18.787055      -511.2218
   1   2.0000     -18.780778      -511.0510
   2   2.0000      -9.951428      -270.7921
   3   2.0000      -9.950363      -270.7632
   4   2.0000      -9.942760      -270.5562
   5   2.0000      -9.890057      -269.1221
   6   2.0000      -9.888921      -269.0912
   7   2.0000      -9.877014      -268.7672
   8   2.0000      -9.876547      -268.7545
   9   2.0000      -0.970939       -26.4206
  10   2.0000      -0.962977       -26.2039
  11   2.0000      -0.767192       -20.8764
  12   2.0000      -0.681897       -18.5554
  13   2.0000      -0.666120       -18.1261
  14   2.0000      -0.627619       -17.0784
  15   2.0000      -0.559675       -15.2295
  16   2.0000      -0.530423       -14.4335
  17   2.0000      -0.501010       -13.6332
  18   2.0000      -0.470200       -12.7948
  19   2.0000      -0.433678       -11.8010
  20   2.0000      -0.422824       -11.5056
  21   2.0000      -0.422217       -11.4891
  22   2.0000      -0.387482       -10.5439
  23   2.0000      -0.377010       -10.2590
  24   2.0000      -0.362543        -9.8653
  25   2.0000      -0.337886        -9.1943
  26   2.0000      -0.325740        -8.8638
  27   2.0000      -0.316557        -8.6140
  28   2.0000      -0.304528        -8.2866
  29   2.0000      -0.284256        -7.7350
  30   2.0000      -0.264426        -7.1954
  31   2.0000      -0.209422        -5.6987
  32   2.0000      -0.182157        -4.9567
  33   0.0000      -0.022332        -0.6077
  34   0.0000      -0.010967        -0.2984
  35   0.0000       0.019575         0.5327
  36   0.0000       0.046194         1.2570
  37   0.0000       0.059052         1.6069

MULLIKEN ATOMIC CHARGES
-----------------------
   0 C :   -0.116202
   1 O :   -0.262216
   2 C :    0.263216
   3 C :   -0.113754
   4 C :   -0.058079
   5 C :   -0.124138
   6 C :    0.249020
   7 C :   -0.306545
   8 O :   -0.333294
   9 H :    0.107679
  10 H :    0.107678
  11 H :    0.126704
  12 H :    0.038937
  13 H :    0.055322
  14 H :    0.039596
  15 H :    0.012622
  16 H :    0.313454
Sum of atomic charges:    0.0000000

LOEWDIN ATOMIC CHARGES
----------------------
   0 C :   -0.204942
   1 O :   -0.085765
   2 C :    0.037630
   3 C :   -0.169428
   4 C :   -0.108221
   5 C :   -0.173804
   6 C :    0.030710
   7 C :   -0.228149
   8 O :   -0.234667
   9 H :    0.107411
  10 H :    0.107412
  11 H :    0.122790
  12 H :    0.128372
  13 H :    0.125842
  14 H :    0.129071
  15 H :    0.120484
  16 H :    0.295254

  Mayer bond orders larger than 0.100000
B(  0-C ,  1-O ) :   0.9978 B(  0-C ,  9-H ) :   0.9402 B(  0-C , 10-H ) :   0.9402
B(  0-C , 11-H ) :   0.9583 B(  1-O ,  2-C ) :   1.1346 B(  2-C ,  3-C ) :   1.3579
B(  2-C ,  7-C ) :   1.2875 B(  3-C ,  4-C ) :   1.3665 B(  3-C , 12-H ) :   0.9655
B(  4-C ,  5-C ) :   1.3414 B(  4-C , 13-H ) :   0.9644 B(  5-C ,  6-C ) :   1.3836
B(  5-C , 14-H ) :   0.9668 B(  6-C ,  7-C ) :   1.2701 B(  6-C ,  8-O ) :   1.1807
B(  7-C , 15-H ) :   0.9433 B(  8-O , 16-H ) :   0.8441

Dispersion correction           -0.016545715
FINAL SINGLE POINT ENERGY      -421.092846829037

DIPOLE MOMENT
-------------

Method             : SCF
Type of density    : Electron Density
Multiplicity       :   1
Irrep              :   0
Energy             :  -421.1517562920575983 Eh
Relativity type    :
Basis              : AO
                                X                 Y                 Z
Electronic contribution:      3.385958060      -1.208421040      -0.000124017
Nuclear contribution   :     -3.960329370       2.102089873       0.000125047
                        -----------------------------------------
Total Dipole Moment    :     -0.574371311       0.893668833       0.000001030
                        -----------------------------------------
Magnitude (a.u.)       :      1.062330638
Magnitude (Debye)      :      2.700229892

Rotational constants in cm-1:             0.096003             0.043330             0.030026
Rotational constants in MHz :          2878.112308          1298.991850           900.171702

                             ****ORCA TERMINATED NORMALLY****
TOTAL RUN TIME: 0 days 0 hours 0 minutes 10 seconds 366 msec
