                         Program Version 6.0.1  -  RELEASE   -
|  1> ! r2scan-3c def2/J RI DEFGRID2 scfconv6 printgap
|  2> %output
|  3>     printlevel normal
|  4> end
|  5> * xyz 0 1
|  6> C -1.9725102995 -1.0610084298 -0.8102916349
|  7> C -1.6004245078 -0.2182582946 0.4080126649
|  8> C -2.0416755521 1.2292023004 0.1988003294
|  9> C -0.1432794504 -0.3831686754 0.8846911081
| 10> C 1.0902435475 0.0084359672 0.041700269
| 11> C 1.2153713936 -0.8086573023 -1.2457891803
| 12> C 1.1317365513 1.4992980291 -0.298234268
| 13> C 2.3132886921 -0.3081959853 0.9177732527
| 14> H -1.5924694742 -0.6224831556 -1.7280262011
| 15> H -1.5821354777 -2.0713492937 -0.7181922839
| 16> H -3.0560578072 -1.121162317 -0.8971146901
| 17> H -2.1912399425 -0.6064199474 1.2497455364
| 18> H -1.7011335413 1.8613446427 1.0150162425
| 19> H -1.6607229538 1.6309692692 -0.7350218998
| 20> H -3.1285780072 1.2787376051 0.1607787985
| 21> H -0.0671911853 0.1730556291 1.8241634152
| 22> H -0.023510484 -1.4414208649 1.1364198933
| 23> H 2.2017627015 -0.6599614104 -1.6818204326
| 24> H 0.4795712059 -0.5057336282 -1.9833622758
| 25> H 1.0896163433 -1.8698210843 -1.0446909947
| 26> H 2.1161781826 1.7625788832 -0.6811934285
| 27> H 0.9381598111 2.103399152 0.5847251669
| 28> H 0.4025911541 1.753953384 -1.060448779
| 29> H 2.2869825192 0.2672104329 1.840735854
| 30> H 3.2333124522 -0.0630839533 0.3916077303
| 31> H 2.3412572513 -1.365105968 1.1747646884
| 32> *
| 33>
| 34>                          ****END OF INPUT****

CARTESIAN COORDINATES (ANGSTROEM)
---------------------------------
  C     -1.972510   -1.061008   -0.810292
  C     -1.600425   -0.218258    0.408013
  C     -2.041676    1.229202    0.198800
  C     -0.143279   -0.383169    0.884691
  C      1.090244    0.008436    0.041700
  C      1.215371   -0.808657   -1.245789
  C      1.131737    1.499298   -0.298234
  C      2.313289   -0.308196    0.917773
  H     -1.592469   -0.622483   -1.728026
  H     -1.582135   -2.071349   -0.718192
  H     -3.056058   -1.121162   -0.897115
  H     -2.191240   -0.606420    1.249746
  H     -1.701134    1.861345    1.015016
  H     -1.660723    1.630969   -0.735022
  H     -3.128578    1.278738    0.160779
  H     -0.067191    0.173056    1.824163
  H     -0.023510   -1.441421    1.136420
  H      2.201763   -0.659961   -1.681820
  H      0.479571   -0.505734   -1.983362
  H      1.089616   -1.869821   -1.044691
  H      2.116178    1.762579   -0.681193
  H      0.938160    2.103399    0.584725
  H      0.402591    1.753953   -1.060449
  H      2.286983    0.267210    1.840736
  H      3.233312   -0.063084    0.391608
  H      2.341257   -1.365106    1.174765

 Total Charge           Charge          ....    0
 Multiplicity           Mult            ....    1
 Number of Electrons    NEL             ....   66
 Basis Dimension        Dim             ....  242

ORBITAL ENERGIES
----------------

  NO   OCC          E(Eh)            E(eV)
   0   2.0000     -10.039685      -273.1937
   1   2.0000     -10.031749      -272.9778
   2   2.0000     -10.018653      -272.6214
   3   2.0000     -10.011681      -272.4317
   4   2.0000     -10.011464      -272.4258
   5   2.0000     -10.011195      -272.4185
   6   2.0000     -10.010589      -272.4020
   7   2.0000     -10.010434      -272.3978
   8   2.0000      -0.793873       -21.6024
   9   2.0000      -0.751002       -20.4358
  10   2.0000      -0.654165       -17.8007
  11   2.0000      -0.653497       -17.7826
  12   2.0000      -0.640848       -17.4384
  13   2.0000      -0.640042       -17.4164
  14   2.0000      -0.536619       -14.6022
  15   2.0000      -0.486639       -13.2421
  16   2.0000      -0.434915       -11.8346
  17   2.0000      -0.424237       -11.5441
  18   2.0000      -0.412775       -11.2322
  19   2.0000      -0.394193       -10.7265
  20   2.0000      -0.389133       -10.5888
  21   2.0000      -0.383185       -10.4270
  22   2.0000      -0.363268        -9.8850
  23   2.0000      -0.348388        -9.4801
  24   2.0000      -0.340239        -9.2584
  25   2.0000      -0.329308        -8.9609
  26   2.0000      -0.321799        -8.7566
  27   2.0000      -0.321247        -8.7416
  28   2.0000      -0.302842        -8.2408
  29   2.0000      -0.294563        -8.0155
  30   2.0000      -0.283919        -7.7258
  31   2.0000      -0.275266        -7.4904
  32   2.0000      -0.260834        -7.0976
  33   0.0000       0.067682         1.8417
  34   0.0000       0.107357         2.9213
  35   0.0000       0.113073         3.0769
  36   0.0000       0.121054         3.2941
  37   0.0000       0.123367         3.3570

MULLIKEN ATOMIC CHARGES
-----------------------
   0 C :   -0.505013
   1 C :    0.003109
   2 C :   -0.502123
   3 C :   -0.330736
   4 C :    0.160985
   5 C :   -0.515027
   6 C :   -0.517477
   7 C :   -0.483765
   8 H :    0.144636
   9 H :    0.148056
  10 H :    0.145455
  11 H :    0.141751
  12 H :    0.147731
  13 H :    0.144341
  14 H :    0.145541
  15 H :    0.150094
  16 H :    0.150552
  17 H :    0.149068
  18 H :    0.148838
  19 H :    0.157979
  20 H :    0.149201
  21 H :    0.157736
  22 H :    0.149138
  23 H :    0.152915
  24 H :    0.154314
  25 H :    0.152704
Sum of atomic charges:    0.0000000

LOEWDIN ATOMIC CHARGES
----------------------
   0 C :   -0.416273
   1 C :   -0.239097
   2 C :   -0.416556
   3 C :   -0.294285
   4 C :   -0.205594
   5 C :   -0.405160
   6 C :   -0.404796
   7 C :   -0.411437
   8 H :    0.149478
   9 H :    0.153740
  10 H :    0.152448
  11 H :    0.156597
  12 H :    0.153482
  13 H :    0.149869
  14 H :    0.152371
  15 H :    0.163132
  16 H :    0.163067
  17 H :    0.155950
  18 H :    0.153674
  19 H :    0.157029
  20 H :    0.156019
  21 H :    0.157273
  22 H :    0.153335
  23 H :    0.155913
  24 H :    0.153745
  25 H :    0.156078

  Mayer bond orders larger than 0.100000
B(  0-C ,  1-C ) :   0.8965 B(  0-C ,  8-H ) :   0.9830 B(  0-C ,  9-H ) :   0.9769
B(  0-C , 10-H ) :   0.9668 B(  1-C ,  2-C ) :   0.9020 B(  1-C ,  3-C ) :   0.9415
B(  1-C , 11-H ) :   0.9655 B(  2-C , 12-H ) :   0.9785 B(  2-C , 13-H ) :   0.9811
B(  2-C , 14-H ) :   0.9670 B(  3-C ,  4-C ) :   0.8882 B(  3-C , 15-H ) :   0.9765
B(  3-C , 16-H ) :   0.9761 B(  4-C ,  5-C ) :   0.9146 B(  4-C ,  6-C ) :   0.9107
B(  4-C ,  7-C ) :   0.9316 B(  5-C , 17-H ) :   0.9703 B(  5-C , 18-H ) :   0.9705
B(  5-C , 19-H ) :   0.9795 B(  6-C , 20-H ) :   0.9698 B(  6-C , 21-H ) :   0.9777
B(  6-C , 22-H ) :   0.9729 B(  7-C , 23-H ) :   0.9753 B(  7-C , 24-H ) :   0.9786
B(  7-C , 25-H ) :   0.9752

Dispersion correction           -0.008228617
FINAL SINGLE POINT ENERGY      -315.581542405482

DIPOLE MOMENT
-------------

Method             : SCF
Type of density    : Electron Density
Multiplicity       :   1
Irrep              :   0
Energy             :  -315.5864053632777768 Eh
Relativity type    :
Basis              : AO
                                X                 Y                 Z
Electronic contribution:     -0.119139145      -0.496336836       1.129752250
Nuclear contribution   :      0.081050361       0.473497096      -1.080681201
                        -----------------------------------------
Total Dipole Moment    :     -0.038088783      -0.022839741       0.049071049
                        -----------------------------------------
Magnitude (a.u.)       :      0.066184417
Magnitude (Debye)      :      0.168227419

Rotational constants in cm-1:             0.094130             0.044647             0.040320
Rotational constants in MHz :          2821.932419          1338.479142          1208.748287

                             ****ORCA TERMINATED NORMALLY****
TOTAL RUN TIME: 0 days 0 hours 0 minutes 27 seconds 517 msec
