                         Program Version 6.0.1  -  RELEASE   -
|  1> ! pbe def2-sv(p) def2/J RI DEFGRID1 loosescf d4 GCP(DFT/SV(P)) printgap
|  2> %output
|  3>     printlevel normal
|  4> end
|  5> * xyz 0 1
|  6> C -3.1762299836 -0.3262744378 -0.000248463
|  7> O -2.0884316542 0.5653064343 0.0001774966
|  8> C -0.826430914 0.050088708 0.0001061297
|  9> C -0.5148601384 -1.3037646003 3.5221e-05
| 10> C 0.8149395612 -1.696380657 -6.3786e-05
| 11> C 1.8370828586 -0.7716083677 -8.8327e-05
| 12> C 1.5258692002 0.5863583088 1.10274e-05
| 13> C 0.2020236044 0.9912236335 0.0001106696
| 14> O 2.548057345 1.4830765028 -7.2165e-06
| 15> H -3.1775378396 -0.9588967816 -0.8937826796
| 16> H -4.0686580707 0.2977774568 -0.0004719628
| 17> H -3.178112775 -0.9590691026 0.8931648572
| 18> H -1.2874751104 -2.0552601185 6.6345e-05
| 19> H 1.0511356559 -2.7499600977 -0.0001209013
| 20> H 2.871909913 -1.0714436038 -0.000177925
| 21> H -0.0602498386 2.0396248261 0.0001858055
| 22> H 2.1927207019 2.3801016323 7.23403e-05
| 23> *
| 24>
| 25>                          ****END OF INPUT****

CARTESIAN COORDINATES (ANGSTROEM)
---------------------------------
  C     -3.176230   -0.326274   -0.000248
  O     -2.088432    0.565306    0.000177
  C     -0.826431    0.050089    0.000106
  C     -0.514860   -1.303765    0.000035
  C      0.814940   -1.696381   -0.000064
  C      1.837083   -0.771608   -0.000088
  C      1.525869    0.586358    0.000011
  C      0.202024    0.991224    0.000111
  O      2.548057    1.483077   -0.000007
  H     -3.177538   -0.958897   -0.893783
  H     -4.068658    0.297777   -0.000472
  H     -3.178113   -0.959069    0.893165
  H     -1.287475   -2.055260    0.000066
  H      1.051136   -2.749960   -0.000121
  H      2.871910   -1.071444   -0.000178
  H     -0.060250    2.039625    0.000186
  H      2.192721    2.380102    0.000072

 Total Charge           Charge          ....    0
 Multiplicity           Mult            ....    1
 Number of Electrons    NEL             ....   66
 Basis Dimension        Dim             ....  142

ORBITAL ENERGIES
----------------

  NO   OCC          E(Eh)            E(eV)
   0   2.0000     -18.785228      -511.1721
   1   2.0000     -18.779431      -511.0143
   2   2.0000      -9.950043      -270.7544
   3   2.0000      -9.949534      -270.7406
   4   2.0000      -9.939856      -270.4772
   5   2.0000      -9.891867      -269.1714
   6   2.0000      -9.882301      -268.9111
   7   2.0000      -9.881779      -268.8969
   8   2.0000      -9.877958      -268.7929
   9   2.0000      -0.969011       -26.3681
  10   2.0000      -0.961828       -26.1727
  11   2.0000      -0.767116       -20.8743
  12   2.0000      -0.683894       -18.6097
  13   2.0000      -0.661556       -18.0018
  14   2.0000      -0.624954       -17.0059
  15   2.0000      -0.564682       -15.3658
  16   2.0000      -0.528142       -14.3715
  17   2.0000      -0.499905       -13.6031
  18   2.0000      -0.462185       -12.5767
  19   2.0000      -0.434296       -11.8178
  20   2.0000      -0.424563       -11.5530
  21   2.0000      -0.420154       -11.4330
  22   2.0000      -0.383401       -10.4329
  23   2.0000      -0.379137       -10.3169
  24   2.0000      -0.361828        -9.8459
  25   2.0000      -0.337719        -9.1898
  26   2.0000      -0.327358        -8.9079
  27   2.0000      -0.314305        -8.5527
  28   2.0000      -0.305009        -8.2997
  29   2.0000      -0.281773        -7.6674
  30   2.0000      -0.266896        -7.2626
  31   2.0000      -0.201406        -5.4805
  32   2.0000      -0.186854        -5.0846
  33   0.0000      -0.025739        -0.7004
  34   0.0000      -0.006932        -0.1886
  35   0.0000       0.027526         0.7490
  36   0.0000       0.045295         1.2325
  37   0.0000       0.060307         1.6410

MULLIKEN ATOMIC CHARGES
-----------------------
   0 C :   -0.116796
   1 O :   -0.266942
   2 C :    0.265087
   3 C :   -0.193162
   4 C :   -0.057048
   5 C :   -0.117104
   6 C :    0.247918
   7 C :   -0.236263
   8 O :   -0.334293
   9 H :    0.110068
  10 H :    0.123711
  11 H :    0.110067
  12 H :    0.034810
  13 H :    0.053600
  14 H :    0.040313
  15 H :    0.020564
  16 H :    0.315470
Sum of atomic charges:   -0.0000000

LOEWDIN ATOMIC CHARGES
----------------------
   0 C :   -0.204155
   1 O :   -0.089748
   2 C :    0.037828
   3 C :   -0.200896
   4 C :   -0.106971
   5 C :   -0.170307
   6 C :    0.028130
   7 C :   -0.200309
   8 O :   -0.233991
   9 H :    0.108721
  10 H :    0.121151
  11 H :    0.108718
  12 H :    0.124828
  13 H :    0.124986
  14 H :    0.129223
  15 H :    0.125686
  16 H :    0.297105

  Mayer bond orders larger than 0.100000
B(  0-C ,  1-O ) :   0.9936 B(  0-C ,  9-H ) :   0.9416 B(  0-C , 10-H ) :   0.9589
B(  0-C , 11-H ) :   0.9416 B(  1-O ,  2-C ) :   1.1359 B(  2-C ,  3-C ) :   1.3110
B(  2-C ,  7-C ) :   1.3294 B(  3-C ,  4-C ) :   1.3311 B(  3-C , 12-H ) :   0.9650
B(  4-C ,  5-C ) :   1.3858 B(  4-C , 13-H ) :   0.9610 B(  5-C ,  6-C ) :   1.3435
B(  5-C , 14-H ) :   0.9685 B(  6-C ,  7-C ) :   1.3048 B(  6-C ,  8-O ) :   1.1822
B(  7-C , 15-H ) :   0.9573 B(  8-O , 16-H ) :   0.8449

Dispersion correction           -0.016523000
FINAL SINGLE POINT ENERGY      -421.093538455316

DIPOLE MOMENT
-------------

Method             : SCF
Type of density    : Electron Density
Multiplicity       :   1
Irrep              :   0
Energy             :  -421.1524163155635847 Eh
Relativity type    :
Basis              : AO
                                X                 Y                 Z
Electronic contribution:      4.634354709       2.964044519       0.000862550
Nuclear contribution   :     -5.299733612      -2.856524289      -0.000995804
                        -----------------------------------------
Total Dipole Moment    :     -0.665378902       0.107520229      -0.000133254
                        -----------------------------------------
Magnitude (a.u.)       :      0.674010164
Magnitude (Debye)      :      1.713197687

Rotational constants in cm-1:             0.121691             0.037846             0.029028
Rotational constants in MHz :          3648.214910          1134.598807           870.241334

                             ****ORCA TERMINATED NORMALLY****
TOTAL RUN TIME: 0 days 0 hours 0 minutes 10 seconds 840 msec
