                         Program Version 6.0.1  -  RELEASE   -
|  1> ! pbe def2-sv(p) def2/J RI DEFGRID1 loosescf d4 GCP(DFT/SV(P)) printgap
|  2> %output
|  3>     printlevel normal
|  4> end
|  5> * xyz 0 1
|  6> C -2.3004189827 -0.979382801 -0.1961445738
|  7> C -1.2181784451 -0.1349844686 0.5421068713
|  8> H -1.6608710891 0.300727081 1.448481628
|  9> C -0.6539780123 1.004172239 -0.3214659688
| 10> H -0.5877219058 0.6979441807 -1.370921694
| 11> C 0.7601211153 1.3407386633 0.1755966279
| 12> H 0.729867563 1.5113918329 1.2668328089
| 13> C 1.677699581 0.1396750022 -0.1001041684
| 14> H 1.9611472246 0.1578257864 -1.1626715515
| 15> C 0.895408594 -1.1645844147 0.1480327557
| 16> H 1.5533335523 -1.8682228555 0.681677881
| 17> O -0.182458148 -0.9732927095 1.0327156853
| 18> O 0.4852151388 -1.6606700576 -1.0818845734
| 19> O 2.8117107972 0.1499798491 0.7219558339
| 20> O 1.26562597 2.4855269848 -0.4641430207
| 21> O -1.4745232205 2.1457945322 -0.3206593867
| 22> O -2.0555948825 -2.3587059789 -0.080454599
| 23> H -2.2941000317 -0.76192965 -1.2658079569
| 24> H -3.2919294166 -0.7315524159 0.2042240342
| 25> H -0.2362869768 -2.2989598042 -0.9359584609
| 26> H 3.2596158239 0.9946669912 0.590056339
| 27> H 0.5107833978 2.9978595264 -0.7870316854
| 28> H -1.5912875351 2.4535460823 0.5875117563
| 29> H -1.8426923768 -2.5485654932 0.8432385369
| 30> *
| 31>
| 32>                          ****END OF INPUT****

CARTESIAN COORDINATES (ANGSTROEM)
---------------------------------
  C     -2.300419   -0.979383   -0.196145
  C     -1.218178   -0.134984    0.542107
  H     -1.660871    0.300727    1.448482
  C     -0.653978    1.004172   -0.321466
  H     -0.587722    0.697944   -1.370922
  C      0.760121    1.340739    0.175597
  H      0.729868    1.511392    1.266833
  C      1.677700    0.139675   -0.100104
  H      1.961147    0.157826   -1.162672
  C      0.895409   -1.164584    0.148033
  H      1.553334   -1.868223    0.681678
  O     -0.182458   -0.973293    1.032716
  O      0.485215   -1.660670   -1.081885
  O      2.811711    0.149980    0.721956
  O      1.265626    2.485527   -0.464143
  O     -1.474523    2.145795   -0.320659
  O     -2.055595   -2.358706   -0.080455
  H     -2.294100   -0.761930   -1.265808
  H     -3.291929   -0.731552    0.204224
  H     -0.236287   -2.298960   -0.935958
  H      3.259616    0.994667    0.590056
  H      0.510783    2.997860   -0.787032
  H     -1.591288    2.453546    0.587512
  H     -1.842692   -2.548565    0.843239

 Total Charge           Charge          ....    0
 Multiplicity           Mult            ....    1
 Number of Electrons    NEL             ....   96
 Basis Dimension        Dim             ....  192

ORBITAL ENERGIES
----------------

  NO   OCC          E(Eh)            E(eV)
   0   2.0000     -18.779514      -511.0165
   1   2.0000     -18.777942      -510.9738
   2   2.0000     -18.772445      -510.8242
   3   2.0000     -18.753850      -510.3182
   4   2.0000     -18.749807      -510.2082
   5   2.0000     -18.747503      -510.1455
   6   2.0000      -9.983801      -271.6730
   7   2.0000      -9.958391      -270.9816
   8   2.0000      -9.953408      -270.8460
   9   2.0000      -9.944663      -270.6080
  10   2.0000      -9.940875      -270.5050
  11   2.0000      -9.935459      -270.3576
  12   2.0000      -0.992232       -27.0000
  13   2.0000      -0.960678       -26.1414
  14   2.0000      -0.944053       -25.6890
  15   2.0000      -0.932907       -25.3857
  16   2.0000      -0.916984       -24.9524
  17   2.0000      -0.910398       -24.7732
  18   2.0000      -0.711291       -19.3552
  19   2.0000      -0.693603       -18.8739
  20   2.0000      -0.627258       -17.0686
  21   2.0000      -0.592566       -16.1245
  22   2.0000      -0.574112       -15.6224
  23   2.0000      -0.523705       -14.2507
  24   2.0000      -0.505415       -13.7530
  25   2.0000      -0.501231       -13.6392
  26   2.0000      -0.484375       -13.1805
  27   2.0000      -0.457061       -12.4372
  28   2.0000      -0.443730       -12.0745
  29   2.0000      -0.432708       -11.7746
  30   2.0000      -0.415201       -11.2982
  31   2.0000      -0.404588       -11.0094
  32   2.0000      -0.397570       -10.8184
  33   2.0000      -0.385704       -10.4955
  34   2.0000      -0.367545       -10.0014
  35   2.0000      -0.358572        -9.7572
  36   2.0000      -0.347911        -9.4671
  37   2.0000      -0.318568        -8.6687
  38   2.0000      -0.309056        -8.4099
  39   2.0000      -0.302029        -8.2186
  40   2.0000      -0.296127        -8.0580
  41   2.0000      -0.268665        -7.3108
  42   2.0000      -0.256351        -6.9757
  43   2.0000      -0.251513        -6.8440
  44   2.0000      -0.238052        -6.4777
  45   2.0000      -0.233370        -6.3503
  46   2.0000      -0.213903        -5.8206
  47   2.0000      -0.210294        -5.7224
  48   0.0000       0.005151         0.1402
  49   0.0000       0.013460         0.3663
  50   0.0000       0.040709         1.1077
  51   0.0000       0.049558         1.3485
  52   0.0000       0.061977         1.6865

MULLIKEN ATOMIC CHARGES
-----------------------
   0 C :    0.057651
   1 C :    0.041549
   2 H :    0.056429
   3 C :   -0.016437
   4 H :    0.089038
   5 C :    0.008309
   6 H :    0.043238
   7 C :    0.122846
   8 H :    0.072478
   9 C :    0.155628
  10 H :    0.071549
  11 O :   -0.318863
  12 O :   -0.415354
  13 O :   -0.411262
  14 O :   -0.418474
  15 O :   -0.411475
  16 O :   -0.432816
  17 H :    0.098953
  18 H :    0.085680
  19 H :    0.304705
  20 H :    0.309168
  21 H :    0.299638
  22 H :    0.301177
  23 H :    0.306646
Sum of atomic charges:    0.0000000

LOEWDIN ATOMIC CHARGES
----------------------
   0 C :   -0.135615
   1 C :   -0.078685
   2 H :    0.110045
   3 C :   -0.089332
   4 H :    0.123123
   5 C :   -0.086127
   6 H :    0.098379
   7 C :   -0.074582
   8 H :    0.113119
   9 C :    0.007568
  10 H :    0.102786
  11 O :   -0.143862
  12 O :   -0.315783
  13 O :   -0.315289
  14 O :   -0.329627
  15 O :   -0.304689
  16 O :   -0.316668
  17 H :    0.118081
  18 H :    0.104425
  19 H :    0.274441
  20 H :    0.291323
  21 H :    0.278869
  22 H :    0.285260
  23 H :    0.282841

  Mayer bond orders larger than 0.100000
B(  0-C ,  1-C ) :   1.0186 B(  0-C , 16-O ) :   1.0477 B(  0-C , 17-H ) :   0.9261
B(  0-C , 18-H ) :   0.9203 B(  1-C ,  2-H ) :   0.8839 B(  1-C ,  3-C ) :   0.9832
B(  1-C , 11-O ) :   1.0379 B(  3-C ,  4-H ) :   0.8660 B(  3-C ,  5-C ) :   1.0471
B(  3-C , 15-O ) :   1.0099 B(  5-C ,  6-H ) :   0.8509 B(  5-C ,  7-C ) :   1.0318
B(  5-C , 14-O ) :   1.1079 B(  7-C ,  8-H ) :   0.8777 B(  7-C ,  9-C ) :   0.9812
B(  7-C , 13-O ) :   1.0915 B(  9-C , 10-H ) :   0.8891 B(  9-C , 11-O ) :   1.0318
B(  9-C , 12-O ) :   1.1124 B( 12-O , 19-H ) :   0.7845 B( 13-O , 20-H ) :   0.8470
B( 14-O , 21-H ) :   0.8221 B( 15-O , 22-H ) :   0.8453 B( 16-O , 19-H ) :   0.1184
B( 16-O , 23-H ) :   0.8306

Dispersion correction           -0.025119844
FINAL SINGLE POINT ENERGY      -685.691551675385

DIPOLE MOMENT
-------------

Method             : SCF
Type of density    : Electron Density
Multiplicity       :   1
Irrep              :   0
Energy             :  -685.8255248184564152 Eh
Relativity type    :
Basis              : AO
                                X                 Y                 Z
Electronic contribution:      2.391753825      -0.339875977       0.593391052
Nuclear contribution   :     -3.261754759       0.845660535       0.090620077
                        -----------------------------------------
Total Dipole Moment    :     -0.870000935       0.505784558       0.684011129
                        -----------------------------------------
Magnitude (a.u.)       :      1.216795328
Magnitude (Debye)      :      3.092847931

Rotational constants in cm-1:             0.043231             0.028108             0.019598
Rotational constants in MHz :          1296.033021           842.659114           587.537333

                             ****ORCA TERMINATED NORMALLY****
TOTAL RUN TIME: 0 days 0 hours 0 minutes 7 seconds 281 msec
