                         Program Version 6.0.1  -  RELEASE   -
|  1> ! pbe def2-sv(p) def2/J RI DEFGRID1 loosescf d4 GCP(DFT/SV(P)) printgap
|  2> %output
|  3>     printlevel normal
|  4> end
|  5> * xyz 0 1
|  6> C -2.6235196541 0.9914815735 -0.503044849
|  7> C -1.7470394537 -0.13918129 -0.0158556259
|  8> O -2.194808787 -1.054582009 0.6274460247
|  9> C -0.2726860437 -0.0120250264 -0.3611622715
| 10> C 0.4791601898 -1.3288612874 -0.1222005757
| 11> C 1.9390135878 -1.0956528599 0.2752448376
| 12> C 2.4916379527 0.1238511848 -0.453815132
| 13> C 1.7805266053 1.3961151242 0.0238890005
| 14> C 0.3487159891 1.1054478393 0.4885285335
| 15> H -2.1683128504 1.5441288974 -1.3187653368
| 16> H -3.5875535566 0.5942509085 -0.8119722499
| 17> H -2.8040059115 1.6701673818 0.3296534319
| 18> H -0.1991273447 0.2829813329 -1.4128458256
| 19> H -0.035748097 -1.8864897321 0.6624185997
| 20> H 0.4355766539 -1.9299384093 -1.0325420391
| 21> H 2.0204764222 -0.9349534547 1.3514595752
| 22> H 2.5286260352 -1.9806257085 0.0311776072
| 23> H 3.5657390427 0.2142471942 -0.2844674193
| 24> H 2.3401274535 -0.0109862284 -1.5267995291
| 25> H 2.3328072593 1.8423744573 0.8528357908
| 26> H 1.7628632207 2.1267624764 -0.7872584541
| 27> H 0.3462057549 0.7846484723 1.5313128753
| 28> H -0.2478043263 2.0163259248 0.4211363995
| 29> *
| 30>
| 31>                          ****END OF INPUT****

CARTESIAN COORDINATES (ANGSTROEM)
---------------------------------
  C     -2.623520    0.991482   -0.503045
  C     -1.747039   -0.139181   -0.015856
  O     -2.194809   -1.054582    0.627446
  C     -0.272686   -0.012025   -0.361162
  C      0.479160   -1.328861   -0.122201
  C      1.939014   -1.095653    0.275245
  C      2.491638    0.123851   -0.453815
  C      1.780527    1.396115    0.023889
  C      0.348716    1.105448    0.488529
  H     -2.168313    1.544129   -1.318765
  H     -3.587554    0.594251   -0.811972
  H     -2.804006    1.670167    0.329653
  H     -0.199127    0.282981   -1.412846
  H     -0.035748   -1.886490    0.662419
  H      0.435577   -1.929938   -1.032542
  H      2.020476   -0.934953    1.351460
  H      2.528626   -1.980626    0.031178
  H      3.565739    0.214247   -0.284467
  H      2.340127   -0.010986   -1.526800
  H      2.332807    1.842374    0.852836
  H      1.762863    2.126762   -0.787258
  H      0.346206    0.784648    1.531313
  H     -0.247804    2.016326    0.421136

 Total Charge           Charge          ....    0
 Multiplicity           Mult            ....    1
 Number of Electrons    NEL             ....   70
 Basis Dimension        Dim             ....  154

ORBITAL ENERGIES
----------------

  NO   OCC          E(Eh)            E(eV)
   0   2.0000     -18.736757      -509.8531
   1   2.0000      -9.970927      -271.3227
   2   2.0000      -9.898909      -269.3630
   3   2.0000      -9.895775      -269.2777
   4   2.0000      -9.888145      -269.0701
   5   2.0000      -9.885969      -269.0109
   6   2.0000      -9.883372      -268.9402
   7   2.0000      -9.881041      -268.8768
   8   2.0000      -9.876904      -268.7642
   9   2.0000      -0.939651       -25.5692
  10   2.0000      -0.761848       -20.7309
  11   2.0000      -0.691620       -18.8199
  12   2.0000      -0.666259       -18.1298
  13   2.0000      -0.652955       -17.7678
  14   2.0000      -0.566215       -15.4075
  15   2.0000      -0.547227       -14.8908
  16   2.0000      -0.488828       -13.3017
  17   2.0000      -0.462132       -12.5752
  18   2.0000      -0.445305       -12.1174
  19   2.0000      -0.427350       -11.6288
  20   2.0000      -0.408478       -11.1152
  21   2.0000      -0.387356       -10.5405
  22   2.0000      -0.380197       -10.3457
  23   2.0000      -0.378076       -10.2880
  24   2.0000      -0.356762        -9.7080
  25   2.0000      -0.340271        -9.2592
  26   2.0000      -0.333144        -9.0653
  27   2.0000      -0.329026        -8.9532
  28   2.0000      -0.321386        -8.7454
  29   2.0000      -0.311163        -8.4672
  30   2.0000      -0.307458        -8.3664
  31   2.0000      -0.270109        -7.3500
  32   2.0000      -0.264596        -7.2000
  33   2.0000      -0.263664        -7.1746
  34   2.0000      -0.195206        -5.3118
  35   0.0000      -0.047245        -1.2856
  36   0.0000       0.021828         0.5940
  37   0.0000       0.043399         1.1810
  38   0.0000       0.057121         1.5543
  39   0.0000       0.070410         1.9160

MULLIKEN ATOMIC CHARGES
-----------------------
   0 C :   -0.251349
   1 C :    0.030923
   2 O :   -0.156166
   3 C :   -0.219449
   4 C :   -0.107398
   5 C :   -0.151069
   6 C :   -0.158712
   7 C :   -0.135204
   8 C :   -0.141037
   9 H :    0.108675
  10 H :    0.125021
  11 H :    0.135940
  12 H :    0.077585
  13 H :    0.098153
  14 H :    0.079217
  15 H :    0.076876
  16 H :    0.085358
  17 H :    0.086406
  18 H :    0.076290
  19 H :    0.084952
  20 H :    0.080950
  21 H :    0.085321
  22 H :    0.088719
Sum of atomic charges:   -0.0000000

LOEWDIN ATOMIC CHARGES
----------------------
   0 C :   -0.365085
   1 C :    0.049410
   2 O :   -0.118940
   3 C :   -0.172472
   4 C :   -0.222159
   5 C :   -0.227914
   6 C :   -0.231025
   7 C :   -0.226644
   8 C :   -0.211537
   9 H :    0.126046
  10 H :    0.141884
  11 H :    0.148711
  12 H :    0.124881
  13 H :    0.125205
  14 H :    0.118364
  15 H :    0.114772
  16 H :    0.119006
  17 H :    0.118021
  18 H :    0.113625
  19 H :    0.119112
  20 H :    0.116341
  21 H :    0.122434
  22 H :    0.117966

  Mayer bond orders larger than 0.100000
B(  0-C ,  1-C ) :   1.0672 B(  0-C ,  9-H ) :   0.9368 B(  0-C , 10-H ) :   0.9282
B(  0-C , 11-H ) :   0.9198 B(  1-C ,  2-O ) :   2.1926 B(  1-C ,  3-C ) :   0.9265
B(  3-C ,  4-C ) :   1.1023 B(  3-C ,  8-C ) :   1.1288 B(  3-C , 12-H ) :   0.8636
B(  4-C ,  5-C ) :   1.1540 B(  4-C , 13-H ) :   0.8926 B(  4-C , 14-H ) :   0.9160
B(  5-C ,  6-C ) :   1.1807 B(  5-C , 15-H ) :   0.9067 B(  5-C , 16-H ) :   0.9195
B(  6-C ,  7-C ) :   1.1380 B(  6-C , 17-H ) :   0.9223 B(  6-C , 18-H ) :   0.9121
B(  7-C ,  8-C ) :   1.1512 B(  7-C , 19-H ) :   0.9181 B(  7-C , 20-H ) :   0.9204
B(  8-C , 21-H ) :   0.8952 B(  8-C , 22-H ) :   0.9175

Dispersion correction           -0.021873907
FINAL SINGLE POINT ENERGY      -387.600635409181

DIPOLE MOMENT
-------------

Method             : SCF
Type of density    : Electron Density
Multiplicity       :   1
Irrep              :   0
Energy             :  -387.6784852418518312 Eh
Relativity type    :
Basis              : AO
                                X                 Y                 Z
Electronic contribution:     -5.467947985      -3.276540630       1.436228997
Nuclear contribution   :      5.868390774       4.049332881      -1.862013337
                        -----------------------------------------
Total Dipole Moment    :      0.400442789       0.772792251      -0.425784340
                        -----------------------------------------
Magnitude (a.u.)       :      0.968945094
Magnitude (Debye)      :      2.462862702

Rotational constants in cm-1:             0.101724             0.037220             0.030163
Rotational constants in MHz :          3049.607977          1115.815214           904.251651

                             ****ORCA TERMINATED NORMALLY****
TOTAL RUN TIME: 0 days 0 hours 0 minutes 10 seconds 944 msec
