                         Program Version 6.0.1  -  RELEASE   -
|  1> ! pbe def2-sv(p) def2/J RI DEFGRID1 loosescf d4 GCP(DFT/SV(P)) printgap
|  2> %output
|  3>     printlevel normal
|  4> end
|  5> * xyz 0 1
|  6> C 1.6680096126 0.8910280318 0.1828025626
|  7> C 1.2247166908 -0.4398994962 -0.4113146259
|  8> C -0.0368861659 -0.9756642672 0.2795961057
|  9> C -1.1607275682 -0.1017403476 0.0591727312
| 10> N -2.0450664766 0.5980093406 -0.1278603345
| 11> H 1.9007666664 0.7815783187 1.2403931237
| 12> H 2.555929808 1.2564334085 -0.3272237782
| 13> H 0.88037998 1.6344416418 0.0794383777
| 14> H 1.025061972 -0.3171677786 -1.4781049526
| 15> H 2.0215963584 -1.1785664419 -0.3003577272
| 16> H 0.129686346 -1.0584833724 1.3577077718
| 17> H -0.293721212 -1.9654780063 -0.1089028799
| 18> *
| 19>
| 20>                          ****END OF INPUT****

CARTESIAN COORDINATES (ANGSTROEM)
---------------------------------
  C      1.668010    0.891028    0.182803
  C      1.224717   -0.439899   -0.411315
  C     -0.036886   -0.975664    0.279596
  C     -1.160728   -0.101740    0.059173
  N     -2.045066    0.598009   -0.127860
  H      1.900767    0.781578    1.240393
  H      2.555930    1.256433   -0.327224
  H      0.880380    1.634442    0.079438
  H      1.025062   -0.317168   -1.478105
  H      2.021596   -1.178566   -0.300358
  H      0.129686   -1.058483    1.357708
  H     -0.293721   -1.965478   -0.108903

 Total Charge           Charge          ....    0
 Multiplicity           Mult            ....    1
 Number of Electrons    NEL             ....   38
 Basis Dimension        Dim             ....   84

ORBITAL ENERGIES
----------------

  NO   OCC          E(Eh)            E(eV)
   0   2.0000     -13.975915      -380.3040
   1   2.0000      -9.937187      -270.4046
   2   2.0000      -9.924704      -270.0649
   3   2.0000      -9.914143      -269.7776
   4   2.0000      -9.888859      -269.0895
   5   2.0000      -0.815032       -22.1781
   6   2.0000      -0.744613       -20.2619
   7   2.0000      -0.656442       -17.8627
   8   2.0000      -0.558612       -15.2006
   9   2.0000      -0.470624       -12.8063
  10   2.0000      -0.437944       -11.9171
  11   2.0000      -0.408299       -11.1104
  12   2.0000      -0.385637       -10.4937
  13   2.0000      -0.336153        -9.1472
  14   2.0000      -0.331669        -9.0252
  15   2.0000      -0.317502        -8.6397
  16   2.0000      -0.293673        -7.9913
  17   2.0000      -0.286931        -7.8078
  18   2.0000      -0.286402        -7.7934
  19   0.0000      -0.002133        -0.0580
  20   0.0000       0.007380         0.2008
  21   0.0000       0.038293         1.0420
  22   0.0000       0.067033         1.8241
  23   0.0000       0.071495         1.9455

MULLIKEN ATOMIC CHARGES
-----------------------
   0 C :   -0.296805
   1 C :   -0.203075
   2 C :   -0.120375
   3 C :   -0.265940
   4 N :    0.056083
   5 H :    0.102966
   6 H :    0.115192
   7 H :    0.133512
   8 H :    0.114232
   9 H :    0.104878
  10 H :    0.128132
  11 H :    0.131201
Sum of atomic charges:   -0.0000000

LOEWDIN ATOMIC CHARGES
----------------------
   0 C :   -0.343608
   1 C :   -0.220561
   2 C :   -0.241797
   3 C :   -0.057850
   4 N :   -0.067882
   5 H :    0.120134
   6 H :    0.125647
   7 H :    0.129361
   8 H :    0.127483
   9 H :    0.123304
  10 H :    0.151801
  11 H :    0.153968

  Mayer bond orders larger than 0.100000
B(  0-C ,  1-C ) :   1.1494 B(  0-C ,  5-H ) :   0.9535 B(  0-C ,  6-H ) :   0.9509
B(  0-C ,  7-H ) :   0.9468 B(  1-C ,  2-C ) :   1.1032 B(  1-C ,  8-H ) :   0.9269
B(  1-C ,  9-H ) :   0.9250 B(  2-C ,  3-C ) :   1.1823 B(  2-C , 10-H ) :   0.8853
B(  2-C , 11-H ) :   0.8780 B(  3-C ,  4-N ) :   3.0505

Dispersion correction           -0.007688708
FINAL SINGLE POINT ENERGY      -210.883117644167

DIPOLE MOMENT
-------------

Method             : SCF
Type of density    : Electron Density
Multiplicity       :   1
Irrep              :   0
Energy             :  -210.9204470403411165 Eh
Relativity type    :
Basis              : AO
                                X                 Y                 Z
Electronic contribution:     -6.491262602       0.012888460      -0.261476354
Nuclear contribution   :      7.700247315      -0.791578654       0.433623874
                        -----------------------------------------
Total Dipole Moment    :      1.208984713      -0.778690194       0.172147520
                        -----------------------------------------
Magnitude (a.u.)       :      1.448322210
Magnitude (Debye)      :      3.681342497

Rotational constants in cm-1:             0.341776             0.110923             0.092444
Rotational constants in MHz :         10246.192108          3325.390298          2771.390088

                             ****ORCA TERMINATED NORMALLY****
TOTAL RUN TIME: 0 days 0 hours 0 minutes 5 seconds 205 msec
