                         Program Version 6.0.1  -  RELEASE   -
|  1> ! pbe def2-sv(p) def2/J RI DEFGRID1 loosescf d4 GCP(DFT/SV(P)) printgap
|  2> %output
|  3>     printlevel normal
|  4> end
|  5> * xyz 0 1
|  6> C -1.7987880582 -1.0629836476 -0.6754729229
|  7> C -1.0367646058 -0.4805395072 0.5264768649
|  8> H -1.702361543 -0.5581485845 1.3934394178
|  9> C -0.7085119276 1.0135176938 0.3363729636
| 10> H -1.5487326625 1.4649353983 -0.2010650613
| 11> C 0.5897197492 1.2456737876 -0.4732547826
| 12> H 0.8675181768 2.2976800176 -0.3317262804
| 13> C 1.7174119672 0.3657506967 0.0910082727
| 14> H 2.5813081785 0.4198288723 -0.5895840995
| 15> C 1.254704754 -1.1030004808 0.1491126361
| 16> H 2.006408452 -1.6970503065 0.7012818631
| 17> O 0.0886238454 -1.2814860988 0.8848672117
| 18> O 1.1513979264 -1.5733876143 -1.1724615592
| 19> O 2.0510614683 0.8335076309 1.3748363335
| 20> O 0.4400286747 1.0526231404 -1.852770042
| 21> O -0.6339327657 1.6776521584 1.5689361938
| 22> O -3.1026697226 -0.535390829 -0.6364779389
| 23> H -1.8192500098 -2.1594887401 -0.5729968828
| 24> H -1.304145421 -0.8016036745 -1.6185819636
| 25> H 0.8388098452 -2.4859580552 -1.1547786742
| 26> H 2.7375362296 0.2755022714 1.7578961666
| 27> H 0.5918681403 0.117139889 -2.0487469346
| 28> H 0.2046354278 1.4365678166 1.9887496972
| 29> H -3.5782224115 -0.8066518576 -1.4284572262
| 30> *
| 31>
| 32>                          ****END OF INPUT****

CARTESIAN COORDINATES (ANGSTROEM)
---------------------------------
  C     -1.798788   -1.062984   -0.675473
  C     -1.036765   -0.480540    0.526477
  H     -1.702362   -0.558149    1.393439
  C     -0.708512    1.013518    0.336373
  H     -1.548733    1.464935   -0.201065
  C      0.589720    1.245674   -0.473255
  H      0.867518    2.297680   -0.331726
  C      1.717412    0.365751    0.091008
  H      2.581308    0.419829   -0.589584
  C      1.254705   -1.103000    0.149113
  H      2.006408   -1.697050    0.701282
  O      0.088624   -1.281486    0.884867
  O      1.151398   -1.573388   -1.172462
  O      2.051061    0.833508    1.374836
  O      0.440029    1.052623   -1.852770
  O     -0.633933    1.677652    1.568936
  O     -3.102670   -0.535391   -0.636478
  H     -1.819250   -2.159489   -0.572997
  H     -1.304145   -0.801604   -1.618582
  H      0.838810   -2.485958   -1.154779
  H      2.737536    0.275502    1.757896
  H      0.591868    0.117140   -2.048747
  H      0.204635    1.436568    1.988750
  H     -3.578222   -0.806652   -1.428457

 Total Charge           Charge          ....    0
 Multiplicity           Mult            ....    1
 Number of Electrons    NEL             ....   96
 Basis Dimension        Dim             ....  192

ORBITAL ENERGIES
----------------

  NO   OCC          E(Eh)            E(eV)
   0   2.0000     -18.792814      -511.3785
   1   2.0000     -18.781506      -511.0708
   2   2.0000     -18.777300      -510.9563
   3   2.0000     -18.750928      -510.2387
   4   2.0000     -18.743100      -510.0257
   5   2.0000     -18.726052      -509.5618
   6   2.0000     -10.003477      -272.2085
   7   2.0000      -9.955869      -270.9130
   8   2.0000      -9.938597      -270.4430
   9   2.0000      -9.937659      -270.4175
  10   2.0000      -9.933593      -270.3068
  11   2.0000      -9.926296      -270.1082
  12   2.0000      -0.999844       -27.2072
  13   2.0000      -0.956908       -26.0388
  14   2.0000      -0.934251       -25.4223
  15   2.0000      -0.926517       -25.2118
  16   2.0000      -0.924269       -25.1506
  17   2.0000      -0.905630       -24.6435
  18   2.0000      -0.701890       -19.0994
  19   2.0000      -0.693606       -18.8740
  20   2.0000      -0.621629       -16.9154
  21   2.0000      -0.593161       -16.1407
  22   2.0000      -0.573454       -15.6045
  23   2.0000      -0.532125       -14.4799
  24   2.0000      -0.506643       -13.7864
  25   2.0000      -0.483687       -13.1618
  26   2.0000      -0.478639       -13.0244
  27   2.0000      -0.466572       -12.6961
  28   2.0000      -0.442883       -12.0515
  29   2.0000      -0.431368       -11.7381
  30   2.0000      -0.419090       -11.4040
  31   2.0000      -0.402572       -10.9545
  32   2.0000      -0.386150       -10.5077
  33   2.0000      -0.381171       -10.3722
  34   2.0000      -0.371649       -10.1131
  35   2.0000      -0.345395        -9.3987
  36   2.0000      -0.343915        -9.3584
  37   2.0000      -0.322760        -8.7827
  38   2.0000      -0.305109        -8.3024
  39   2.0000      -0.295608        -8.0439
  40   2.0000      -0.287528        -7.8240
  41   2.0000      -0.270197        -7.3524
  42   2.0000      -0.253901        -6.9090
  43   2.0000      -0.248073        -6.7504
  44   2.0000      -0.240193        -6.5360
  45   2.0000      -0.221273        -6.0212
  46   2.0000      -0.219824        -5.9817
  47   2.0000      -0.190895        -5.1945
  48   0.0000       0.001729         0.0470
  49   0.0000       0.006357         0.1730
  50   0.0000       0.024125         0.6565
  51   0.0000       0.058803         1.6001
  52   0.0000       0.072619         1.9761

MULLIKEN ATOMIC CHARGES
-----------------------
   0 C :    0.006071
   1 C :    0.047292
   2 H :    0.087784
   3 C :    0.077209
   4 H :    0.085693
   5 C :    0.041232
   6 H :    0.086973
   7 C :    0.000490
   8 H :    0.086701
   9 C :    0.168605
  10 H :    0.057496
  11 O :   -0.300244
  12 O :   -0.411566
  13 O :   -0.413176
  14 O :   -0.417575
  15 O :   -0.429260
  16 O :   -0.426198
  17 H :    0.059533
  18 H :    0.055397
  19 H :    0.313782
  20 H :    0.308704
  21 H :    0.313433
  22 H :    0.298310
  23 H :    0.303313
Sum of atomic charges:   -0.0000000

LOEWDIN ATOMIC CHARGES
----------------------
   0 C :   -0.145203
   1 C :   -0.064759
   2 H :    0.127114
   3 C :   -0.071771
   4 H :    0.124546
   5 C :   -0.067020
   6 H :    0.120217
   7 C :   -0.088129
   8 H :    0.110851
   9 C :   -0.013372
  10 H :    0.092334
  11 O :   -0.133314
  12 O :   -0.311339
  13 O :   -0.301117
  14 O :   -0.315636
  15 O :   -0.320256
  16 O :   -0.334634
  17 H :    0.088849
  18 H :    0.090921
  19 H :    0.291840
  20 H :    0.291184
  21 H :    0.269197
  22 H :    0.270244
  23 H :    0.289254

  Mayer bond orders larger than 0.100000
B(  0-C ,  1-C ) :   1.0485 B(  0-C , 16-O ) :   1.0813 B(  0-C , 17-H ) :   0.9050
B(  0-C , 18-H ) :   0.8974 B(  1-C ,  2-H ) :   0.8901 B(  1-C ,  3-C ) :   0.9953
B(  1-C , 11-O ) :   0.9699 B(  3-C ,  4-H ) :   0.8836 B(  3-C ,  5-C ) :   0.9641
B(  3-C , 15-O ) :   1.0483 B(  5-C ,  6-H ) :   0.9004 B(  5-C ,  7-C ) :   1.0065
B(  5-C , 14-O ) :   1.0818 B(  7-C ,  8-H ) :   0.8957 B(  7-C ,  9-C ) :   0.9743
B(  7-C , 13-O ) :   1.0224 B(  9-C , 10-H ) :   0.9041 B(  9-C , 11-O ) :   1.1101
B(  9-C , 12-O ) :   1.0702 B( 12-O , 19-H ) :   0.8286 B( 13-O , 20-H ) :   0.8390
B( 14-O , 21-H ) :   0.8000 B( 15-O , 22-H ) :   0.8211 B( 16-O , 23-H ) :   0.8497

Dispersion correction           -0.025907343
FINAL SINGLE POINT ENERGY      -685.695193248731

DIPOLE MOMENT
-------------

Method             : SCF
Type of density    : Electron Density
Multiplicity       :   1
Irrep              :   0
Energy             :  -685.8284571266741523 Eh
Relativity type    :
Basis              : AO
                                X                 Y                 Z
Electronic contribution:      1.029295222       0.620077744       1.574650433
Nuclear contribution   :     -0.117003228      -2.340271882      -1.971971678
                        -----------------------------------------
Total Dipole Moment    :      0.912291995      -1.720194139      -0.397321245
                        -----------------------------------------
Magnitude (a.u.)       :      1.987261616
Magnitude (Debye)      :      5.051217600

Rotational constants in cm-1:             0.040889             0.028479             0.024611
Rotational constants in MHz :          1225.815995           853.791129           737.829940

                             ****ORCA TERMINATED NORMALLY****
TOTAL RUN TIME: 0 days 0 hours 0 minutes 8 seconds 840 msec
