                         Program Version 6.0.1  -  RELEASE   -
|  1> ! pbe def2-sv(p) def2/J RI DEFGRID1 loosescf d4 GCP(DFT/SV(P)) printgap
|  2> %output
|  3>     printlevel normal
|  4> end
|  5> * xyz 0 1
|  6> C -2.2592827707 -1.0086545377 0.3739134611
|  7> C -0.9545047194 -0.3473430448 0.8596149464
|  8> H -1.0737775451 -0.0553919131 1.9105962137
|  9> C -0.7053584195 0.9299903737 0.045384669
| 10> H -1.1269713642 0.7804201891 -0.9619515969
| 11> C 0.7784522796 1.3249123847 -0.1518015077
| 12> H 1.000802431 2.173643522 0.5120108787
| 13> C 1.783802772 0.1958530887 0.1805038052
| 14> H 2.6777782024 0.3211657056 -0.4423003714
| 15> C 1.114108757 -1.1508891778 -0.1191491427
| 16> H 1.7956639507 -1.9847696246 0.0906450128
| 17> O 0.0787020264 -1.331059161 0.8153383126
| 18> O 0.7093003093 -1.2797556338 -1.4414616551
| 19> O 2.2091589115 0.2452969653 1.5116429126
| 20> O 0.8896458973 1.7019226749 -1.5136411134
| 21> O -1.4140766144 1.9466585379 0.7142263052
| 22> O -2.2064744231 -1.3275192273 -0.9883070567
| 23> H -3.0892790842 -0.3126722128 0.5064297017
| 24> H -2.4333960187 -1.9060294415 0.9823923596
| 25> H 0.4628850525 -0.4176405193 -1.8099538267
| 26> H 1.5453724385 -0.2006912966 2.0562476
| 27> H 1.7601576266 2.082900748 -1.6751878893
| 28> H -1.4620139269 2.7202165099 0.1413170471
| 29> H -1.3905704499 -1.8265557435 -1.151471945
| 30> *
| 31>
| 32>                          ****END OF INPUT****

CARTESIAN COORDINATES (ANGSTROEM)
---------------------------------
  C     -2.259283   -1.008655    0.373913
  C     -0.954505   -0.347343    0.859615
  H     -1.073778   -0.055392    1.910596
  C     -0.705358    0.929990    0.045385
  H     -1.126971    0.780420   -0.961952
  C      0.778452    1.324912   -0.151802
  H      1.000802    2.173644    0.512011
  C      1.783803    0.195853    0.180504
  H      2.677778    0.321166   -0.442300
  C      1.114109   -1.150889   -0.119149
  H      1.795664   -1.984770    0.090645
  O      0.078702   -1.331059    0.815338
  O      0.709300   -1.279756   -1.441462
  O      2.209159    0.245297    1.511643
  O      0.889646    1.701923   -1.513641
  O     -1.414077    1.946659    0.714226
  O     -2.206474   -1.327519   -0.988307
  H     -3.089279   -0.312672    0.506430
  H     -2.433396   -1.906029    0.982392
  H      0.462885   -0.417641   -1.809954
  H      1.545372   -0.200691    2.056248
  H      1.760158    2.082901   -1.675188
  H     -1.462014    2.720217    0.141317
  H     -1.390570   -1.826556   -1.151472

 Total Charge           Charge          ....    0
 Multiplicity           Mult            ....    1
 Number of Electrons    NEL             ....   96
 Basis Dimension        Dim             ....  192

ORBITAL ENERGIES
----------------

  NO   OCC          E(Eh)            E(eV)
   0   2.0000     -18.781890      -511.0812
   1   2.0000     -18.780866      -511.0534
   2   2.0000     -18.775363      -510.9036
   3   2.0000     -18.762115      -510.5431
   4   2.0000     -18.759399      -510.4692
   5   2.0000     -18.741977      -509.9951
   6   2.0000      -9.995390      -271.9884
   7   2.0000      -9.953472      -270.8477
   8   2.0000      -9.952959      -270.8338
   9   2.0000      -9.952419      -270.8191
  10   2.0000      -9.950367      -270.7632
  11   2.0000      -9.927982      -270.1541
  12   2.0000      -0.995990       -27.1023
  13   2.0000      -0.957681       -26.0598
  14   2.0000      -0.940565       -25.5941
  15   2.0000      -0.939850       -25.5746
  16   2.0000      -0.926042       -25.1989
  17   2.0000      -0.915547       -24.9133
  18   2.0000      -0.711892       -19.3716
  19   2.0000      -0.695131       -18.9155
  20   2.0000      -0.626117       -17.0375
  21   2.0000      -0.603101       -16.4112
  22   2.0000      -0.574290       -15.6272
  23   2.0000      -0.530123       -14.4254
  24   2.0000      -0.514471       -13.9995
  25   2.0000      -0.501591       -13.6490
  26   2.0000      -0.483305       -13.1514
  27   2.0000      -0.463005       -12.5990
  28   2.0000      -0.450986       -12.2719
  29   2.0000      -0.442466       -12.0401
  30   2.0000      -0.430997       -11.7280
  31   2.0000      -0.403208       -10.9718
  32   2.0000      -0.387088       -10.5332
  33   2.0000      -0.382594       -10.4109
  34   2.0000      -0.360899        -9.8206
  35   2.0000      -0.356743        -9.7075
  36   2.0000      -0.341355        -9.2887
  37   2.0000      -0.325053        -8.8451
  38   2.0000      -0.315547        -8.5865
  39   2.0000      -0.296805        -8.0765
  40   2.0000      -0.293296        -7.9810
  41   2.0000      -0.283212        -7.7066
  42   2.0000      -0.264940        -7.2094
  43   2.0000      -0.262518        -7.1435
  44   2.0000      -0.247228        -6.7274
  45   2.0000      -0.230698        -6.2776
  46   2.0000      -0.214584        -5.8391
  47   2.0000      -0.210141        -5.7182
  48   0.0000       0.005579         0.1518
  49   0.0000       0.024604         0.6695
  50   0.0000       0.029899         0.8136
  51   0.0000       0.054341         1.4787
  52   0.0000       0.055800         1.5184

MULLIKEN ATOMIC CHARGES
-----------------------
   0 C :    0.083066
   1 C :   -0.000829
   2 H :    0.078471
   3 C :    0.020985
   4 H :    0.082532
   5 C :    0.017261
   6 H :    0.069966
   7 C :    0.038622
   8 H :    0.067872
   9 C :    0.158072
  10 H :    0.084096
  11 O :   -0.318666
  12 O :   -0.399479
  13 O :   -0.410982
  14 O :   -0.416671
  15 O :   -0.413228
  16 O :   -0.444327
  17 H :    0.089183
  18 H :    0.081788
  19 H :    0.310913
  20 H :    0.308187
  21 H :    0.308687
  22 H :    0.306849
  23 H :    0.297631
Sum of atomic charges:    0.0000000

LOEWDIN ATOMIC CHARGES
----------------------
   0 C :   -0.124248
   1 C :   -0.078561
   2 H :    0.117538
   3 C :   -0.079581
   4 H :    0.111604
   5 C :   -0.089648
   6 H :    0.110769
   7 C :   -0.097044
   8 H :    0.112585
   9 C :   -0.013314
  10 H :    0.113375
  11 O :   -0.147515
  12 O :   -0.293106
  13 O :   -0.307664
  14 O :   -0.318461
  15 O :   -0.313262
  16 O :   -0.335432
  17 H :    0.118086
  18 H :    0.102403
  19 H :    0.276543
  20 H :    0.283531
  21 H :    0.289615
  22 H :    0.291191
  23 H :    0.270597

  Mayer bond orders larger than 0.100000
B(  0-C ,  1-C ) :   1.0504 B(  0-C , 16-O ) :   1.0846 B(  0-C , 17-H ) :   0.9169
B(  0-C , 18-H ) :   0.9095 B(  1-C ,  2-H ) :   0.8798 B(  1-C ,  3-C ) :   1.0042
B(  1-C , 11-O ) :   0.9506 B(  3-C ,  4-H ) :   0.8712 B(  3-C ,  5-C ) :   1.0044
B(  3-C , 15-O ) :   1.0606 B(  5-C ,  6-H ) :   0.8666 B(  5-C ,  7-C ) :   0.9497
B(  5-C , 14-O ) :   1.0272 B(  7-C ,  8-H ) :   0.8923 B(  7-C ,  9-C ) :   1.0233
B(  7-C , 13-O ) :   1.0694 B(  9-C , 10-H ) :   0.9054 B(  9-C , 11-O ) :   1.0325
B(  9-C , 12-O ) :   1.1029 B( 12-O , 19-H ) :   0.7997 B( 13-O , 20-H ) :   0.8299
B( 14-O , 21-H ) :   0.8419 B( 15-O , 22-H ) :   0.8474 B( 16-O , 23-H ) :   0.8075

Dispersion correction           -0.025751911
FINAL SINGLE POINT ENERGY      -685.693520452457

DIPOLE MOMENT
-------------

Method             : SCF
Type of density    : Electron Density
Multiplicity       :   1
Irrep              :   0
Energy             :  -685.8281394064792948 Eh
Relativity type    :
Basis              : AO
                                X                 Y                 Z
Electronic contribution:      1.822937004      -0.411573345      -0.226058592
Nuclear contribution   :     -1.246963447       1.288946229       0.135590589
                        -----------------------------------------
Total Dipole Moment    :      0.575973558       0.877372883      -0.090468003
                        -----------------------------------------
Magnitude (a.u.)       :      1.053429245
Magnitude (Debye)      :      2.677604349

Rotational constants in cm-1:             0.039170             0.029220             0.025213
Rotational constants in MHz :          1174.292128           876.000841           755.855801

                             ****ORCA TERMINATED NORMALLY****
TOTAL RUN TIME: 0 days 0 hours 0 minutes 7 seconds 900 msec
