                         Program Version 6.0.1  -  RELEASE   -
|  1> ! pbe def2-sv(p) def2/J RI DEFGRID1 loosescf d4 GCP(DFT/SV(P)) printgap
|  2> %output
|  3>     printlevel normal
|  4> end
|  5> * xyz 0 1
|  6> C -0.2012106562 -2.3173013561 -0.1285172549
|  7> C 0.4969555597 -1.0018362572 -0.0478527387
|  8> C 1.8891934611 -0.9646555911 -0.0455598483
|  9> C 2.5901025253 0.2244828093 0.0218895165
| 10> C 1.9111811495 1.4328201911 0.0797889197
| 11> C 0.5332941244 1.4309815722 0.0694175799
| 12> C -0.1697227717 0.2288428996 0.0119640941
| 13> N -1.6063650138 0.3267842251 0.0140813846
| 14> O -2.0903239972 1.4039664995 -0.2707975641
| 15> O -2.2595545653 -0.6539171676 0.303631432
| 16> H -0.7017877244 -2.5371637086 0.8134708801
| 17> H -0.9719013005 -2.3100725956 -0.8969893706
| 18> H 0.5111187868 -3.10994607 -0.3436995047
| 19> H 2.4308460243 -1.8975023308 -0.0973078496
| 20> H 3.6695182026 0.2102928662 0.0274401608
| 21> H 2.4522896395 2.3642928314 0.1322609715
| 22> H -0.0279926675 2.3521440753 0.1111372755
| 23> *
| 24>
| 25>                          ****END OF INPUT****

CARTESIAN COORDINATES (ANGSTROEM)
---------------------------------
  C     -0.201211   -2.317301   -0.128517
  C      0.496956   -1.001836   -0.047853
  C      1.889193   -0.964656   -0.045560
  C      2.590103    0.224483    0.021890
  C      1.911181    1.432820    0.079789
  C      0.533294    1.430982    0.069418
  C     -0.169723    0.228843    0.011964
  N     -1.606365    0.326784    0.014081
  O     -2.090324    1.403966   -0.270798
  O     -2.259555   -0.653917    0.303631
  H     -0.701788   -2.537164    0.813471
  H     -0.971901   -2.310073   -0.896989
  H      0.511119   -3.109946   -0.343700
  H      2.430846   -1.897502   -0.097308
  H      3.669518    0.210293    0.027440
  H      2.452290    2.364293    0.132261
  H     -0.027993    2.352144    0.111137

 Total Charge           Charge          ....    0
 Multiplicity           Mult            ....    1
 Number of Electrons    NEL             ....   72
 Basis Dimension        Dim             ....  154

ORBITAL ENERGIES
----------------

  NO   OCC          E(Eh)            E(eV)
   0   2.0000     -18.776612      -510.9376
   1   2.0000     -18.774114      -510.8696
   2   2.0000     -14.210186      -386.6788
   3   2.0000      -9.952237      -270.8141
   4   2.0000      -9.936223      -270.3784
   5   2.0000      -9.918257      -269.8895
   6   2.0000      -9.918069      -269.8844
   7   2.0000      -9.914484      -269.7868
   8   2.0000      -9.914135      -269.7773
   9   2.0000      -9.893404      -269.2132
  10   2.0000      -1.134184       -30.8627
  11   2.0000      -0.963207       -26.2102
  12   2.0000      -0.814057       -22.1516
  13   2.0000      -0.736310       -20.0360
  14   2.0000      -0.717734       -19.5305
  15   2.0000      -0.650291       -17.6953
  16   2.0000      -0.616778       -16.7834
  17   2.0000      -0.560339       -15.2476
  18   2.0000      -0.529021       -14.3954
  19   2.0000      -0.492732       -13.4079
  20   2.0000      -0.488277       -13.2867
  21   2.0000      -0.455987       -12.4080
  22   2.0000      -0.450981       -12.2718
  23   2.0000      -0.430551       -11.7159
  24   2.0000      -0.408455       -11.1146
  25   2.0000      -0.389999       -10.6124
  26   2.0000      -0.387322       -10.5396
  27   2.0000      -0.359065        -9.7707
  28   2.0000      -0.342872        -9.3300
  29   2.0000      -0.335533        -9.1303
  30   2.0000      -0.325049        -8.8450
  31   2.0000      -0.271033        -7.3752
  32   2.0000      -0.260018        -7.0754
  33   2.0000      -0.254100        -6.9144
  34   2.0000      -0.245909        -6.6915
  35   2.0000      -0.230377        -6.2689
  36   0.0000      -0.111878        -3.0444
  37   0.0000      -0.055732        -1.5165
  38   0.0000      -0.035261        -0.9595
  39   0.0000       0.033041         0.8991
  40   0.0000       0.057426         1.5626

MULLIKEN ATOMIC CHARGES
-----------------------
   0 C :   -0.177748
   1 C :   -0.027160
   2 C :   -0.153080
   3 C :   -0.006059
   4 C :   -0.046056
   5 C :   -0.112693
   6 C :    0.149387
   7 N :    0.200342
   8 O :   -0.215225
   9 O :   -0.216365
  10 H :    0.131397
  11 H :    0.120552
  12 H :    0.097495
  13 H :    0.051084
  14 H :    0.065076
  15 H :    0.066754
  16 H :    0.072299
Sum of atomic charges:   -0.0000000

LOEWDIN ATOMIC CHARGES
----------------------
   0 C :   -0.325997
   1 C :   -0.021653
   2 C :   -0.116957
   3 C :   -0.098674
   4 C :   -0.120944
   5 C :   -0.102213
   6 C :   -0.039991
   7 N :    0.249812
   8 O :   -0.185025
   9 O :   -0.175087
  10 H :    0.144262
  11 H :    0.137332
  12 H :    0.121709
  13 H :    0.129061
  14 H :    0.130525
  15 H :    0.131361
  16 H :    0.142480

  Mayer bond orders larger than 0.100000
B(  0-C ,  1-C ) :   1.1597 B(  0-C , 10-H ) :   0.9130 B(  0-C , 11-H ) :   0.9180
B(  0-C , 12-H ) :   0.9213 B(  1-C ,  2-C ) :   1.3775 B(  1-C ,  6-C ) :   1.3700
B(  2-C ,  3-C ) :   1.3663 B(  2-C , 13-H ) :   0.9571 B(  3-C ,  4-C ) :   1.3387
B(  3-C , 14-H ) :   0.9648 B(  4-C ,  5-C ) :   1.3436 B(  4-C , 15-H ) :   0.9667
B(  5-C ,  6-C ) :   1.3697 B(  5-C , 16-H ) :   0.9475 B(  6-C ,  7-N ) :   0.8816
B(  7-N ,  8-O ) :   1.5394 B(  7-N ,  9-O ) :   1.5081 B(  8-O ,  9-O ) :   0.2932

Dispersion correction           -0.018566371
FINAL SINGLE POINT ENERGY      -475.103988910884

DIPOLE MOMENT
-------------

Method             : SCF
Type of density    : Electron Density
Multiplicity       :   1
Irrep              :   0
Energy             :  -475.1552536588390581 Eh
Relativity type    :
Basis              : AO
                                X                 Y                 Z
Electronic contribution:     -5.323825660       4.336508711       0.246794297
Nuclear contribution   :      6.833666759      -4.610365458      -0.237438789
                        -----------------------------------------
Total Dipole Moment    :      1.509841099      -0.273856747       0.009355508
                        -----------------------------------------
Magnitude (a.u.)       :      1.534504867
Magnitude (Debye)      :      3.900401402

Rotational constants in cm-1:             0.076879             0.042759             0.027902
Rotational constants in MHz :          2304.786714          1281.871327           836.495363

                             ****ORCA TERMINATED NORMALLY****
TOTAL RUN TIME: 0 days 0 hours 0 minutes 10 seconds 355 msec
