                         Program Version 6.0.1  -  RELEASE   -
|  1> ! r2scan-3c def2/J RI DEFGRID2 scfconv6 printgap
|  2> %output
|  3>     printlevel normal
|  4> end
|  5> * xyz 0 1
|  6> C 2.8634188494 -0.7326800717 -0.1142027858
|  7> C 1.9748713367 0.4894487344 0.0875496045
|  8> C 0.4972455729 0.2123825623 0.0458962627
|  9> C -0.0597009774 -1.0460168659 0.2359996628
| 10> C -1.4374720762 -1.1940248467 0.1937257908
| 11> C -2.2172739259 -0.0730072764 -0.0355991462
| 12> N -1.7042812327 1.1326348359 -0.217293593
| 13> C -0.3927273728 1.2627430547 -0.1779531196
| 14> H 2.6015524613 -1.2493355214 -1.0351761404
| 15> H 2.7716288922 -1.427973575 0.7168377651
| 16> H 3.9043361007 -0.4239096906 -0.1788101673
| 17> H 2.2045859393 1.2328781488 -0.6805831527
| 18> H 2.2095359971 0.9477648294 1.0541264864
| 19> H 0.5659119227 -1.9074984718 0.4146134702
| 20> H -1.8928846955 -2.1622161493 0.3365992976
| 21> H -3.2967586953 -0.1346268353 -0.0776512846
| 22> H -0.021864578 2.2687538135 -0.3356677933
| 23> *
| 24>
| 25>                          ****END OF INPUT****

CARTESIAN COORDINATES (ANGSTROEM)
---------------------------------
  C      2.863419   -0.732680   -0.114203
  C      1.974871    0.489449    0.087550
  C      0.497246    0.212383    0.045896
  C     -0.059701   -1.046017    0.236000
  C     -1.437472   -1.194025    0.193726
  C     -2.217274   -0.073007   -0.035599
  N     -1.704281    1.132635   -0.217294
  C     -0.392727    1.262743   -0.177953
  H      2.601552   -1.249336   -1.035176
  H      2.771629   -1.427974    0.716838
  H      3.904336   -0.423910   -0.178810
  H      2.204586    1.232878   -0.680583
  H      2.209536    0.947765    1.054126
  H      0.565912   -1.907498    0.414613
  H     -1.892885   -2.162216    0.336599
  H     -3.296759   -0.134627   -0.077651
  H     -0.021865    2.268754   -0.335668

 Total Charge           Charge          ....    0
 Multiplicity           Mult            ....    1
 Number of Electrons    NEL             ....   58
 Basis Dimension        Dim             ....  202

ORBITAL ENERGIES
----------------

  NO   OCC          E(Eh)            E(eV)
   0   2.0000     -14.150765      -385.0619
   1   2.0000     -10.060899      -273.7710
   2   2.0000     -10.060803      -273.7684
   3   2.0000     -10.050541      -273.4891
   4   2.0000     -10.048646      -273.4375
   5   2.0000     -10.044557      -273.3263
   6   2.0000     -10.041997      -273.2566
   7   2.0000     -10.030450      -272.9424
   8   2.0000      -0.912809       -24.8388
   9   2.0000      -0.792034       -21.5524
  10   2.0000      -0.750121       -20.4118
  11   2.0000      -0.708831       -19.2883
  12   2.0000      -0.623728       -16.9725
  13   2.0000      -0.597742       -16.2654
  14   2.0000      -0.559263       -15.2183
  15   2.0000      -0.491569       -13.3763
  16   2.0000      -0.459283       -12.4977
  17   2.0000      -0.432940       -11.7809
  18   2.0000      -0.428538       -11.6611
  19   2.0000      -0.400355       -10.8942
  20   2.0000      -0.373741       -10.1700
  21   2.0000      -0.372196       -10.1280
  22   2.0000      -0.353791        -9.6271
  23   2.0000      -0.345225        -9.3941
  24   2.0000      -0.330752        -9.0002
  25   2.0000      -0.317678        -8.6444
  26   2.0000      -0.267508        -7.2793
  27   2.0000      -0.236081        -6.4241
  28   2.0000      -0.218947        -5.9578
  29   0.0000      -0.050068        -1.3624
  30   0.0000      -0.037592        -1.0229
  31   0.0000       0.081803         2.2260
  32   0.0000       0.097227         2.6457
  33   0.0000       0.100988         2.7480

MULLIKEN ATOMIC CHARGES
-----------------------
   0 C :   -0.483755
   1 C :   -0.315992
   2 C :    0.211044
   3 C :   -0.186447
   4 C :   -0.113871
   5 C :   -0.105307
   6 N :   -0.171214
   7 C :   -0.175602
   8 H :    0.165024
   9 H :    0.143330
  10 H :    0.152859
  11 H :    0.153906
  12 H :    0.166619
  13 H :    0.147261
  14 H :    0.147249
  15 H :    0.132409
  16 H :    0.132488
Sum of atomic charges:   -0.0000000

LOEWDIN ATOMIC CHARGES
----------------------
   0 C :   -0.416964
   1 C :   -0.285809
   2 C :   -0.073335
   3 C :   -0.127568
   4 C :   -0.143833
   5 C :    0.071471
   6 N :   -0.614202
   7 C :    0.082773
   8 H :    0.156102
   9 H :    0.150660
  10 H :    0.154718
  11 H :    0.165930
  12 H :    0.169249
  13 H :    0.172212
  14 H :    0.169167
  15 H :    0.183486
  16 H :    0.185943

  Mayer bond orders larger than 0.100000
B(  0-C ,  1-C ) :   0.8637 B(  0-C ,  8-H ) :   0.9919 B(  0-C ,  9-H ) :   0.9643
B(  0-C , 10-H ) :   0.9703 B(  1-C ,  2-C ) :   0.8441 B(  1-C , 11-H ) :   1.0006
B(  1-C , 12-H ) :   0.9609 B(  2-C ,  3-C ) :   1.3964 B(  2-C ,  7-C ) :   1.2775
B(  3-C ,  4-C ) :   1.4182 B(  3-C , 13-H ) :   0.9452 B(  4-C ,  5-C ) :   1.3633
B(  4-C , 14-H ) :   0.9426 B(  5-C ,  6-N ) :   1.4537 B(  5-C , 15-H ) :   0.9837
B(  6-N ,  7-C ) :   1.5170 B(  7-C , 16-H ) :   1.0022

Dispersion correction           -0.005235661
FINAL SINGLE POINT ENERGY      -326.814813844352

DIPOLE MOMENT
-------------

Method             : SCF
Type of density    : Electron Density
Multiplicity       :   1
Irrep              :   0
Energy             :  -326.8174252287524268 Eh
Relativity type    :
Basis              : AO
                                X                 Y                 Z
Electronic contribution:     -7.719787949       2.054532058      -0.049883370
Nuclear contribution   :      8.477368628      -2.673352436       0.199847289
                        -----------------------------------------
Total Dipole Moment    :      0.757580679      -0.618820377       0.149963919
                        -----------------------------------------
Magnitude (a.u.)       :      0.989624334
Magnitude (Debye)      :      2.515425152

Rotational constants in cm-1:             0.166872             0.050156             0.039378
Rotational constants in MHz :          5002.691831          1503.653545          1180.515469

                             ****ORCA TERMINATED NORMALLY****
TOTAL RUN TIME: 0 days 0 hours 0 minutes 23 seconds 689 msec
