                         Program Version 6.0.1  -  RELEASE   -
|  1> ! pbe def2-sv(p) def2/J RI DEFGRID1 loosescf d4 GCP(DFT/SV(P)) printgap
|  2> %output
|  3>     printlevel normal
|  4> end
|  5> * xyz 0 1
|  6> C -2.7414483356 -0.8247575437 0.0155390314
|  7> O -1.8550747359 0.2714212254 -0.0124435499
|  8> C -0.5020122067 0.1155503795 -0.0055225587
|  9> C 0.2158381086 1.3151717625 -0.0074462793
| 10> C 1.5938847514 1.3117411413 -0.0024253936
| 11> C 2.2896784822 0.1124707244 0.0048375807
| 12> C 1.5851710004 -1.0756714894 0.0056401403
| 13> C 0.1994736012 -1.0844266131 9.61006e-05
| 14> H -3.3685299874 -0.7352859846 0.9066144695
| 15> H -2.2396895966 -1.7896715761 0.0347193987
| 16> H -3.3765935567 -0.7741307417 -0.8726625264
| 17> H -0.3413999216 2.2388617147 -0.0131039736
| 18> H 2.1295596801 2.2495011206 -0.0041434312
| 19> H 3.3688724995 0.1064990328 0.0090071228
| 20> H 2.1138603711 -2.0178816876 0.0099473596
| 21> H -0.3061097778 -2.0381736072 -0.0005818416
| 22> *
| 23>
| 24>                          ****END OF INPUT****

CARTESIAN COORDINATES (ANGSTROEM)
---------------------------------
  C     -2.741448   -0.824758    0.015539
  O     -1.855075    0.271421   -0.012444
  C     -0.502012    0.115550   -0.005523
  C      0.215838    1.315172   -0.007446
  C      1.593885    1.311741   -0.002425
  C      2.289678    0.112471    0.004838
  C      1.585171   -1.075671    0.005640
  C      0.199474   -1.084427    0.000096
  H     -3.368530   -0.735286    0.906614
  H     -2.239690   -1.789672    0.034719
  H     -3.376594   -0.774131   -0.872663
  H     -0.341400    2.238862   -0.013104
  H      2.129560    2.249501   -0.004143
  H      3.368872    0.106499    0.009007
  H      2.113860   -2.017882    0.009947
  H     -0.306110   -2.038174   -0.000582

 Total Charge           Charge          ....    0
 Multiplicity           Mult            ....    1
 Number of Electrons    NEL             ....   58
 Basis Dimension        Dim             ....  128

ORBITAL ENERGIES
----------------

  NO   OCC          E(Eh)            E(eV)
   0   2.0000     -18.782346      -511.0936
   1   2.0000      -9.950134      -270.7569
   2   2.0000      -9.941808      -270.5303
   3   2.0000      -9.890424      -269.1321
   4   2.0000      -9.888493      -269.0796
   5   2.0000      -9.888413      -269.0774
   6   2.0000      -9.881994      -268.9027
   7   2.0000      -9.881197      -268.8810
   8   2.0000      -0.965414       -26.2703
   9   2.0000      -0.769453       -20.9379
  10   2.0000      -0.683556       -18.6005
  11   2.0000      -0.667684       -18.1686
  12   2.0000      -0.622559       -16.9407
  13   2.0000      -0.543145       -14.7797
  14   2.0000      -0.527439       -14.3523
  15   2.0000      -0.488221       -13.2852
  16   2.0000      -0.433698       -11.8015
  17   2.0000      -0.426245       -11.5987
  18   2.0000      -0.418125       -11.3778
  19   2.0000      -0.395745       -10.7688
  20   2.0000      -0.374350       -10.1866
  21   2.0000      -0.365475        -9.9451
  22   2.0000      -0.340166        -9.2564
  23   2.0000      -0.317009        -8.6263
  24   2.0000      -0.311186        -8.4678
  25   2.0000      -0.279616        -7.6087
  26   2.0000      -0.275662        -7.5011
  27   2.0000      -0.225887        -6.1467
  28   2.0000      -0.188108        -5.1187
  29   0.0000      -0.030209        -0.8220
  30   0.0000      -0.015415        -0.4195
  31   0.0000       0.038911         1.0588
  32   0.0000       0.056897         1.5482
  33   0.0000       0.076015         2.0685

MULLIKEN ATOMIC CHARGES
-----------------------
   0 C :   -0.114327
   1 O :   -0.271278
   2 C :    0.272821
   3 C :   -0.116670
   4 C :   -0.053533
   5 C :   -0.049480
   6 C :   -0.060182
   7 C :   -0.194632
   8 H :    0.117296
   9 H :    0.116166
  10 H :    0.117594
  11 H :    0.043839
  12 H :    0.052755
  13 H :    0.046645
  14 H :    0.049759
  15 H :    0.043227
Sum of atomic charges:    0.0000000

LOEWDIN ATOMIC CHARGES
----------------------
   0 C :   -0.198604
   1 O :   -0.092323
   2 C :    0.034968
   3 C :   -0.145352
   4 C :   -0.116793
   5 C :   -0.150407
   6 C :   -0.115668
   7 C :   -0.178284
   8 H :    0.116297
   9 H :    0.110660
  10 H :    0.116395
  11 H :    0.128205
  12 H :    0.123708
  13 H :    0.121254
  14 H :    0.122623
  15 H :    0.123319

  Mayer bond orders larger than 0.100000
B(  0-C ,  1-O ) :   0.9808 B(  0-C ,  8-H ) :   0.9573 B(  0-C ,  9-H ) :   0.9342
B(  0-C , 10-H ) :   0.9576 B(  1-O ,  2-C ) :   1.1177 B(  2-C ,  3-C ) :   1.3508
B(  2-C ,  7-C ) :   1.3054 B(  3-C ,  4-C ) :   1.3968 B(  3-C , 11-H ) :   0.9623
B(  4-C ,  5-C ) :   1.3491 B(  4-C , 12-H ) :   0.9652 B(  5-C ,  6-C ) :   1.3973
B(  5-C , 13-H ) :   0.9677 B(  6-C ,  7-C ) :   1.3793 B(  6-C , 14-H ) :   0.9590
B(  7-C , 15-H ) :   0.9540

Dispersion correction           -0.015061549
FINAL SINGLE POINT ENERGY      -346.007288077205

DIPOLE MOMENT
-------------

Method             : SCF
Type of density    : Electron Density
Multiplicity       :   1
Irrep              :   0
Energy             :  -346.0571180210727675 Eh
Relativity type    :
Basis              : AO
                                X                 Y                 Z
Electronic contribution:      1.546545072       2.105595594      -0.053627856
Nuclear contribution   :     -1.922617585      -2.585590346       0.065296640
                        -----------------------------------------
Total Dipole Moment    :     -0.376072513      -0.479994752       0.011668785
                        -----------------------------------------
Magnitude (a.u.)       :      0.609886594
Magnitude (Debye)      :      1.550208525

Rotational constants in cm-1:             0.172815             0.051179             0.039784
Rotational constants in MHz :          5180.867618          1534.299187          1192.688149

                             ****ORCA TERMINATED NORMALLY****
TOTAL RUN TIME: 0 days 0 hours 0 minutes 17 seconds 981 msec
