                         Program Version 6.0.1  -  RELEASE   -
|  1> ! pbe def2-sv(p) def2/J RI DEFGRID1 loosescf d4 GCP(DFT/SV(P)) printgap
|  2> %output
|  3>     printlevel normal
|  4> end
|  5> * xyz 0 1
|  6> C -1.8116292421 -1.0435689708 -0.6822603077
|  7> C -1.0532493984 -0.4511221169 0.5253556468
|  8> H -1.7208440405 -0.5331916856 1.3929510072
|  9> C -0.6928564394 1.03585312 0.3570058035
| 10> H -1.5215060471 1.5564475588 -0.1362771745
| 11> C 0.5848344738 1.2476402018 -0.4941225196
| 12> H 0.858802518 2.3081404534 -0.3906518489
| 13> C 1.7197810677 0.3721732943 0.0612119446
| 14> H 2.5631532808 0.3901754925 -0.6460718286
| 15> C 1.2434183075 -1.0865751995 0.1675684218
| 16> H 1.9926992358 -1.6540605512 0.7406638929
| 17> O 0.0730240393 -1.2426963175 0.9006324499
| 18> O 1.1348395783 -1.5825006229 -1.1446312989
| 19> O 2.1295080295 0.7667441132 1.3484924954
| 20> O 0.3880192301 1.0217955708 -1.8629864688
| 21> O -0.5441726225 1.6559215692 1.6082941058
| 22> O -3.1642214707 -0.6697155071 -0.6857795414
| 23> H -1.8098284339 -2.1327424627 -0.5847709071
| 24> H -1.3321762007 -0.7667786321 -1.6285133334
| 25> H 0.8389911506 -2.49986038 -1.1068777019
| 26> H 2.4601325981 1.6722246241 1.3077429348
| 27> H 0.5786887696 0.0901689976 -2.0485944122
| 28> H 0.1700067178 1.1996732942 2.0792986389
| 29> H -3.2323182399 0.2840472512 -0.8051118678
| 30> *
| 31>
| 32>                          ****END OF INPUT****

CARTESIAN COORDINATES (ANGSTROEM)
---------------------------------
  C     -1.811629   -1.043569   -0.682260
  C     -1.053249   -0.451122    0.525356
  H     -1.720844   -0.533192    1.392951
  C     -0.692856    1.035853    0.357006
  H     -1.521506    1.556448   -0.136277
  C      0.584834    1.247640   -0.494123
  H      0.858803    2.308140   -0.390652
  C      1.719781    0.372173    0.061212
  H      2.563153    0.390175   -0.646072
  C      1.243418   -1.086575    0.167568
  H      1.992699   -1.654061    0.740664
  O      0.073024   -1.242696    0.900632
  O      1.134840   -1.582501   -1.144631
  O      2.129508    0.766744    1.348492
  O      0.388019    1.021796   -1.862986
  O     -0.544173    1.655922    1.608294
  O     -3.164221   -0.669716   -0.685780
  H     -1.809828   -2.132742   -0.584771
  H     -1.332176   -0.766779   -1.628513
  H      0.838991   -2.499860   -1.106878
  H      2.460133    1.672225    1.307743
  H      0.578689    0.090169   -2.048594
  H      0.170007    1.199673    2.079299
  H     -3.232318    0.284047   -0.805112

 Total Charge           Charge          ....    0
 Multiplicity           Mult            ....    1
 Number of Electrons    NEL             ....   96
 Basis Dimension        Dim             ....  192

ORBITAL ENERGIES
----------------

  NO   OCC          E(Eh)            E(eV)
   0   2.0000     -18.792799      -511.3781
   1   2.0000     -18.782419      -511.0956
   2   2.0000     -18.779362      -511.0124
   3   2.0000     -18.751733      -510.2606
   4   2.0000     -18.749319      -510.1949
   5   2.0000     -18.742681      -510.0143
   6   2.0000     -10.002754      -272.1888
   7   2.0000      -9.959483      -271.0113
   8   2.0000      -9.947797      -270.6933
   9   2.0000      -9.943762      -270.5835
  10   2.0000      -9.942805      -270.5575
  11   2.0000      -9.932131      -270.2670
  12   2.0000      -1.001268       -27.2459
  13   2.0000      -0.959039       -26.0968
  14   2.0000      -0.937115       -25.5002
  15   2.0000      -0.933586       -25.4042
  16   2.0000      -0.925593       -25.1867
  17   2.0000      -0.917948       -24.9786
  18   2.0000      -0.705145       -19.1880
  19   2.0000      -0.698344       -19.0029
  20   2.0000      -0.627965       -17.0878
  21   2.0000      -0.591733       -16.1019
  22   2.0000      -0.584147       -15.8955
  23   2.0000      -0.542374       -14.7587
  24   2.0000      -0.509341       -13.8599
  25   2.0000      -0.498730       -13.5711
  26   2.0000      -0.476395       -12.9634
  27   2.0000      -0.467640       -12.7251
  28   2.0000      -0.444737       -12.1019
  29   2.0000      -0.435969       -11.8633
  30   2.0000      -0.416191       -11.3251
  31   2.0000      -0.405308       -11.0290
  32   2.0000      -0.398568       -10.8456
  33   2.0000      -0.378039       -10.2870
  34   2.0000      -0.371018       -10.0959
  35   2.0000      -0.356506        -9.7010
  36   2.0000      -0.341385        -9.2896
  37   2.0000      -0.339999        -9.2518
  38   2.0000      -0.323060        -8.7909
  39   2.0000      -0.290277        -7.8988
  40   2.0000      -0.287789        -7.8311
  41   2.0000      -0.271956        -7.4003
  42   2.0000      -0.264059        -7.1854
  43   2.0000      -0.257109        -6.9963
  44   2.0000      -0.250437        -6.8147
  45   2.0000      -0.237395        -6.4598
  46   2.0000      -0.211285        -5.7493
  47   2.0000      -0.200104        -5.4451
  48   0.0000       0.000265         0.0072
  49   0.0000       0.013970         0.3801
  50   0.0000       0.023270         0.6332
  51   0.0000       0.050648         1.3782
  52   0.0000       0.061838         1.6827

MULLIKEN ATOMIC CHARGES
-----------------------
   0 C :    0.029864
   1 C :    0.017729
   2 H :    0.086100
   3 C :    0.073394
   4 H :    0.055989
   5 C :    0.042435
   6 H :    0.067897
   7 C :   -0.026728
   8 H :    0.091951
   9 C :    0.197400
  10 H :    0.081256
  11 O :   -0.301698
  12 O :   -0.414369
  13 O :   -0.409407
  14 O :   -0.417278
  15 O :   -0.431561
  16 O :   -0.429589
  17 H :    0.075028
  18 H :    0.064033
  19 H :    0.317253
  20 H :    0.313808
  21 H :    0.317913
  22 H :    0.296511
  23 H :    0.302068
Sum of atomic charges:   -0.0000000

LOEWDIN ATOMIC CHARGES
----------------------
   0 C :   -0.145868
   1 C :   -0.078504
   2 H :    0.123740
   3 C :   -0.073147
   4 H :    0.109445
   5 C :   -0.078975
   6 H :    0.109082
   7 C :   -0.091419
   8 H :    0.112873
   9 C :   -0.000222
  10 H :    0.107049
  11 O :   -0.131712
  12 O :   -0.310532
  13 O :   -0.301480
  14 O :   -0.317000
  15 O :   -0.321318
  16 O :   -0.327864
  17 H :    0.109377
  18 H :    0.093869
  19 H :    0.294216
  20 H :    0.293596
  21 H :    0.272459
  22 H :    0.270130
  23 H :    0.282206

  Mayer bond orders larger than 0.100000
B(  0-C ,  1-C ) :   1.0313 B(  0-C , 16-O ) :   1.0656 B(  0-C , 17-H ) :   0.9103
B(  0-C , 18-H ) :   0.9037 B(  1-C ,  2-H ) :   0.8921 B(  1-C ,  3-C ) :   0.9949
B(  1-C , 11-O ) :   0.9639 B(  3-C ,  4-H ) :   0.8847 B(  3-C ,  5-C ) :   0.9383
B(  3-C , 15-O ) :   1.0398 B(  5-C ,  6-H ) :   0.9020 B(  5-C ,  7-C ) :   0.9974
B(  5-C , 14-O ) :   1.0842 B(  7-C ,  8-H ) :   0.8964 B(  7-C ,  9-C ) :   0.9934
B(  7-C , 13-O ) :   1.0484 B(  9-C , 10-H ) :   0.9028 B(  9-C , 11-O ) :   1.1019
B(  9-C , 12-O ) :   1.0697 B( 12-O , 19-H ) :   0.8291 B( 13-O , 20-H ) :   0.8381
B( 14-O , 21-H ) :   0.7946 B( 15-O , 22-H ) :   0.8183 B( 16-O , 23-H ) :   0.8479

Dispersion correction           -0.026018616
FINAL SINGLE POINT ENERGY      -685.696785831287

DIPOLE MOMENT
-------------

Method             : SCF
Type of density    : Electron Density
Multiplicity       :   1
Irrep              :   0
Energy             :  -685.8303508968041342 Eh
Relativity type    :
Basis              : AO
                                X                 Y                 Z
Electronic contribution:      1.167644157      -0.156163972       1.533102216
Nuclear contribution   :     -0.144412806      -0.081201163      -1.710868192
                        -----------------------------------------
Total Dipole Moment    :      1.023231351      -0.237365135      -0.177765976
                        -----------------------------------------
Magnitude (a.u.)       :      1.065338138
Magnitude (Debye)      :      2.707874348

Rotational constants in cm-1:             0.041464             0.028085             0.024457
Rotational constants in MHz :          1243.054811           841.971407           733.189793

                             ****ORCA TERMINATED NORMALLY****
TOTAL RUN TIME: 0 days 0 hours 0 minutes 8 seconds 820 msec
