                         Program Version 6.0.1  -  RELEASE   -
|  1> ! pbe def2-sv(p) def2/J RI DEFGRID1 loosescf d4 GCP(DFT/SV(P)) printgap
|  2> %output
|  3>     printlevel normal
|  4> end
|  5> * xyz 0 1
|  6> C -2.0713484117 -1.3918439884 -0.0713442425
|  7> C -0.9781467291 -0.5356633973 0.5975056674
|  8> H -1.3762225064 -0.1763685799 1.5587028087
|  9> C -0.6182298629 0.6726767676 -0.277390508
| 10> H -0.5196354195 0.3715201508 -1.3262129321
| 11> C 0.7221762009 1.2597467766 0.1861242323
| 12> H 0.6517747503 1.4848056737 1.2690682142
| 13> C 1.8374186516 0.2186509675 -0.0269101613
| 14> H 2.269260132 0.3712197924 -1.0195767242
| 15> C 1.2475102401 -1.2117870632 0.0326013536
| 16> H 2.009659102 -1.8772325514 0.4670921501
| 17> O 0.167542489 -1.3090564714 0.9289641124
| 18> O 0.9049172551 -1.608730537 -1.2579408449
| 19> O 2.8923805905 0.3613740962 0.8780244442
| 20> O 1.019557201 2.4344444395 -0.5159704158
| 21> O -1.6313596107 1.6548864889 -0.2679374418
| 22> O -3.2997288945 -0.7192690221 -0.1092896967
| 23> H -2.2289653662 -2.2972874805 0.5195976076
| 24> H -1.7439061992 -1.6764563822 -1.0816162408
| 25> H 0.6447337783 -2.5381798186 -1.248995758
| 26> H 2.554159776 0.2813554159 1.778537941
| 27> H 0.1836538801 2.8369407871 -0.7921796407
| 28> H -1.782008179 1.9489527544 0.6401777451
| 29> H -3.1697036192 0.1313453281 -0.5519664932
| 30> *
| 31>
| 32>                          ****END OF INPUT****

CARTESIAN COORDINATES (ANGSTROEM)
---------------------------------
  C     -2.071348   -1.391844   -0.071344
  C     -0.978147   -0.535663    0.597506
  H     -1.376223   -0.176369    1.558703
  C     -0.618230    0.672677   -0.277391
  H     -0.519635    0.371520   -1.326213
  C      0.722176    1.259747    0.186124
  H      0.651775    1.484806    1.269068
  C      1.837419    0.218651   -0.026910
  H      2.269260    0.371220   -1.019577
  C      1.247510   -1.211787    0.032601
  H      2.009659   -1.877233    0.467092
  O      0.167542   -1.309056    0.928964
  O      0.904917   -1.608731   -1.257941
  O      2.892381    0.361374    0.878024
  O      1.019557    2.434444   -0.515970
  O     -1.631360    1.654886   -0.267937
  O     -3.299729   -0.719269   -0.109290
  H     -2.228965   -2.297287    0.519598
  H     -1.743906   -1.676456   -1.081616
  H      0.644734   -2.538180   -1.248996
  H      2.554160    0.281355    1.778538
  H      0.183654    2.836941   -0.792180
  H     -1.782008    1.948953    0.640178
  H     -3.169704    0.131345   -0.551966

 Total Charge           Charge          ....    0
 Multiplicity           Mult            ....    1
 Number of Electrons    NEL             ....   96
 Basis Dimension        Dim             ....  192

ORBITAL ENERGIES
----------------

  NO   OCC          E(Eh)            E(eV)
   0   2.0000     -18.791139      -511.3329
   1   2.0000     -18.781155      -511.0612
   2   2.0000     -18.775515      -510.9077
   3   2.0000     -18.753325      -510.3039
   4   2.0000     -18.749994      -510.2133
   5   2.0000     -18.746267      -510.1119
   6   2.0000      -9.991539      -271.8836
   7   2.0000      -9.957378      -270.9540
   8   2.0000      -9.953804      -270.8568
   9   2.0000      -9.950300      -270.7614
  10   2.0000      -9.944010      -270.5903
  11   2.0000      -9.933318      -270.2993
  12   2.0000      -0.994021       -27.0487
  13   2.0000      -0.970253       -26.4019
  14   2.0000      -0.939132       -25.5551
  15   2.0000      -0.928360       -25.2620
  16   2.0000      -0.922842       -25.1118
  17   2.0000      -0.920999       -25.0617
  18   2.0000      -0.713461       -19.4143
  19   2.0000      -0.696459       -18.9516
  20   2.0000      -0.621510       -16.9121
  21   2.0000      -0.602314       -16.3898
  22   2.0000      -0.572298       -15.5730
  23   2.0000      -0.542708       -14.7678
  24   2.0000      -0.512417       -13.9436
  25   2.0000      -0.497195       -13.5294
  26   2.0000      -0.490641       -13.3510
  27   2.0000      -0.457682       -12.4542
  28   2.0000      -0.452036       -12.3005
  29   2.0000      -0.443403       -12.0656
  30   2.0000      -0.415048       -11.2940
  31   2.0000      -0.401392       -10.9224
  32   2.0000      -0.388763       -10.5788
  33   2.0000      -0.381313       -10.3761
  34   2.0000      -0.372261       -10.1297
  35   2.0000      -0.362263        -9.8577
  36   2.0000      -0.352969        -9.6048
  37   2.0000      -0.319222        -8.6865
  38   2.0000      -0.306866        -8.3502
  39   2.0000      -0.305576        -8.3151
  40   2.0000      -0.287833        -7.8323
  41   2.0000      -0.283013        -7.7012
  42   2.0000      -0.270779        -7.3683
  43   2.0000      -0.249201        -6.7811
  44   2.0000      -0.244157        -6.6438
  45   2.0000      -0.230454        -6.2710
  46   2.0000      -0.217251        -5.9117
  47   2.0000      -0.206159        -5.6099
  48   0.0000       0.002036         0.0554
  49   0.0000       0.018055         0.4913
  50   0.0000       0.020249         0.5510
  51   0.0000       0.046499         1.2653
  52   0.0000       0.059541         1.6202

MULLIKEN ATOMIC CHARGES
-----------------------
   0 C :    0.077211
   1 C :    0.045020
   2 H :    0.058384
   3 C :   -0.041419
   4 H :    0.095206
   5 C :    0.061756
   6 H :    0.022547
   7 C :    0.128377
   8 H :    0.088178
   9 C :    0.105879
  10 H :    0.072055
  11 O :   -0.313165
  12 O :   -0.386643
  13 O :   -0.410160
  14 O :   -0.401116
  15 O :   -0.416069
  16 O :   -0.442337
  17 H :    0.088269
  18 H :    0.061788
  19 H :    0.308247
  20 H :    0.295792
  21 H :    0.298160
  22 H :    0.306784
  23 H :    0.297256
Sum of atomic charges:    0.0000000

LOEWDIN ATOMIC CHARGES
----------------------
   0 C :   -0.131276
   1 C :   -0.078511
   2 H :    0.109580
   3 C :   -0.098866
   4 H :    0.126711
   5 C :   -0.073283
   6 H :    0.091365
   7 C :   -0.071845
   8 H :    0.132402
   9 C :   -0.015215
  10 H :    0.101197
  11 O :   -0.147725
  12 O :   -0.303646
  13 O :   -0.302317
  14 O :   -0.315039
  15 O :   -0.299101
  16 O :   -0.337184
  17 H :    0.112978
  18 H :    0.093189
  19 H :    0.287617
  20 H :    0.281446
  21 H :    0.277767
  22 H :    0.287824
  23 H :    0.271933

  Mayer bond orders larger than 0.100000
B(  0-C ,  1-C ) :   1.0456 B(  0-C , 16-O ) :   1.0819 B(  0-C , 17-H ) :   0.9203
B(  0-C , 18-H ) :   0.9052 B(  1-C ,  2-H ) :   0.8771 B(  1-C ,  3-C ) :   0.9656
B(  1-C , 11-O ) :   0.9723 B(  3-C ,  4-H ) :   0.8652 B(  3-C ,  5-C ) :   1.0565
B(  3-C , 15-O ) :   0.9781 B(  5-C ,  6-H ) :   0.8452 B(  5-C ,  7-C ) :   1.0057
B(  5-C , 14-O ) :   1.1245 B(  7-C ,  8-H ) :   0.8616 B(  7-C ,  9-C ) :   0.9928
B(  7-C , 13-O ) :   1.0487 B(  9-C , 10-H ) :   0.8989 B(  9-C , 11-O ) :   1.0594
B(  9-C , 12-O ) :   1.0945 B( 12-O , 19-H ) :   0.8320 B( 13-O , 20-H ) :   0.8496
B( 14-O , 21-H ) :   0.8263 B( 15-O , 22-H ) :   0.8373 B( 16-O , 23-H ) :   0.8252

Dispersion correction           -0.024798228
FINAL SINGLE POINT ENERGY      -685.691667820667

DIPOLE MOMENT
-------------

Method             : SCF
Type of density    : Electron Density
Multiplicity       :   1
Irrep              :   0
Energy             :  -685.8239658498744120 Eh
Relativity type    :
Basis              : AO
                                X                 Y                 Z
Electronic contribution:      1.959510777       0.860389321       0.245176645
Nuclear contribution   :     -2.351390252      -1.056883080       0.194383467
                        -----------------------------------------
Total Dipole Moment    :     -0.391879475      -0.196493758       0.439560112
                        -----------------------------------------
Magnitude (a.u.)       :      0.620799817
Magnitude (Debye)      :      1.577947732

Rotational constants in cm-1:             0.044189             0.026129             0.019228
Rotational constants in MHz :          1324.747505           783.331676           576.441920

                             ****ORCA TERMINATED NORMALLY****
TOTAL RUN TIME: 0 days 0 hours 0 minutes 10 seconds 996 msec
