                         Program Version 6.0.0  -   RELEASE  -
|  1> ! r2SCAN-3c DEF2-TZVP FREQ
|  2> * xyzfile 0 1 censo.xyz
|  3>
|  4>                          ****END OF INPUT****

CARTESIAN COORDINATES (ANGSTROEM)
---------------------------------
  C      2.085814    0.052753   -0.086480
  C      0.761080    0.711348    0.288363
  C     -0.456308    0.038882   -0.339921
  H     -0.343531    0.047206   -1.435349
  C     -1.750395    0.729400    0.040776
  O     -0.580551   -1.339263    0.098588
  H      2.148157   -0.976655    0.283959
  H      2.929597    0.601326    0.343371
  H      2.219593    0.030885   -1.174093
  H      0.767623    1.758907   -0.037715
  H      0.633125    0.715889    1.378937
  H     -1.733498    1.771022   -0.292376
  H     -2.609021    0.234031   -0.422265
  H     -1.884371    0.717437    1.128202
  H      0.187286   -1.822434   -0.232442

 Total Charge           Charge          ....    0
 Multiplicity           Mult            ....    1
 Number of Electrons    NEL             ....   42
 Basis Dimension        Dim             ....  215

ORBITAL ENERGIES
----------------

  NO   OCC          E(Eh)            E(eV)
   0   2.0000     -18.943976      -515.4918
   1   2.0000     -10.080753      -274.3112
   2   2.0000     -10.029497      -272.9165
   3   2.0000     -10.028670      -272.8940
   4   2.0000     -10.018588      -272.6196
   5   2.0000      -0.973071       -26.4786
   6   2.0000      -0.754698       -20.5364
   7   2.0000      -0.698469       -19.0063
   8   2.0000      -0.602728       -16.4011
   9   2.0000      -0.543771       -14.7968
  10   2.0000      -0.481196       -13.0940
  11   2.0000      -0.429102       -11.6765
  12   2.0000      -0.401481       -10.9249
  13   2.0000      -0.396549       -10.7906
  14   2.0000      -0.354517        -9.6469
  15   2.0000      -0.350026        -9.5247
  16   2.0000      -0.327012        -8.8985
  17   2.0000      -0.324302        -8.8247
  18   2.0000      -0.313046        -8.5184
  19   2.0000      -0.290846        -7.9143
  20   2.0000      -0.235706        -6.4139
  21   0.0000       0.029882         0.8131
  22   0.0000       0.064411         1.7527
  23   0.0000       0.080187         2.1820
  24   0.0000       0.083914         2.2834
  25   0.0000       0.097691         2.6583

MULLIKEN ATOMIC CHARGES
-----------------------
   0 C :   -0.359176
   1 C :   -0.130102
   2 C :    0.112947
   3 H :    0.053705
   4 C :   -0.296145
   5 O :   -0.466594
   6 H :    0.096497
   7 H :    0.112734
   8 H :    0.106084
   9 H :    0.074027
  10 H :    0.087202
  11 H :    0.096573
  12 H :    0.112745
  13 H :    0.104096
  14 H :    0.295406
Sum of atomic charges:   -0.0000000

LOEWDIN ATOMIC CHARGES
----------------------
   0 C :   -0.317489
   1 C :   -0.282009
   2 C :   -0.369407
   3 H :    0.128479
   4 C :   -0.284672
   5 O :   -0.037570
   6 H :    0.113130
   7 H :    0.121363
   8 H :    0.118183
   9 H :    0.137805
  10 H :    0.137310
  11 H :    0.122964
  12 H :    0.123508
  13 H :    0.124126
  14 H :    0.164280

  Mayer bond orders larger than 0.100000
B(  0-C ,  1-C ) :   0.9599 B(  0-C ,  6-H ) :   0.9770 B(  0-C ,  7-H ) :   0.9770
B(  0-C ,  8-H ) :   0.9741 B(  1-C ,  2-C ) :   0.9603 B(  1-C ,  9-H ) :   0.9528
B(  1-C , 10-H ) :   0.9606 B(  2-C ,  3-H ) :   0.9652 B(  2-C ,  4-C ) :   0.9691
B(  2-C ,  5-O ) :   0.9671 B(  4-C , 11-H ) :   0.9717 B(  4-C , 12-H ) :   0.9731
B(  4-C , 13-H ) :   0.9724 B(  5-O , 14-H ) :   0.9030

Dispersion correction           -0.003144401
FINAL SINGLE POINT ENERGY      -233.620015270322

DIPOLE MOMENT
-------------

Method             : SCF
Type of density    : Electron Density
Multiplicity       :   1
Irrep              :   0
Energy             :  -233.6249923403661342 Eh
Relativity type    :
Basis              : AO
                                X                 Y                 Z
Electronic contribution:     -1.580129373      -2.549791555       0.116172788
Nuclear contribution   :      2.070134211       2.857290691      -0.422997449
                        -----------------------------------------
Total Dipole Moment    :      0.490004838       0.307499136      -0.306824661
                        -----------------------------------------
Magnitude (a.u.)       :      0.654829621
Magnitude (Debye)      :      1.664444621

VIBRATIONAL FREQUENCIES
-----------------------

Scaling factor for frequencies =  1.000000000  (already applied!)

     0:       0.00 cm**-1
     1:       0.00 cm**-1
     2:       0.00 cm**-1
     3:       0.00 cm**-1
     4:       0.00 cm**-1
     5:       0.00 cm**-1
     6:     121.07 cm**-1
     7:     241.23 cm**-1
     8:     250.00 cm**-1
     9:     267.15 cm**-1
    10:     351.16 cm**-1
    11:     387.31 cm**-1
    12:     469.08 cm**-1
    13:     494.32 cm**-1
    14:     767.79 cm**-1
    15:     825.32 cm**-1
    16:     897.93 cm**-1
    17:     976.88 cm**-1
    18:    1005.37 cm**-1
    19:    1020.56 cm**-1
    20:    1086.33 cm**-1
    21:    1136.68 cm**-1
    22:    1183.67 cm**-1
    23:    1271.06 cm**-1
    24:    1294.46 cm**-1
    25:    1323.70 cm**-1
    26:    1367.98 cm**-1
    27:    1393.73 cm**-1
    28:    1400.42 cm**-1
    29:    1420.09 cm**-1
    30:    1463.64 cm**-1
    31:    1479.23 cm**-1
    32:    1491.76 cm**-1
    33:    1492.25 cm**-1
    34:    1506.10 cm**-1
    35:    2965.37 cm**-1
    36:    2999.27 cm**-1
    37:    3001.63 cm**-1
    38:    3011.70 cm**-1
    39:    3043.30 cm**-1
    40:    3074.72 cm**-1
    41:    3083.26 cm**-1
    42:    3090.78 cm**-1
    43:    3099.59 cm**-1
    44:    3773.24 cm**-1

IR SPECTRUM
-----------

 Mode   freq       eps      Int      T**2         TX        TY        TZ
       cm**-1   L/(mol*cm) km/mol    a.u.
----------------------------------------------------------------------------
  6:    121.07   0.000119    0.60  0.000307  ( 0.012956 -0.004548  0.010870)
  7:    241.23   0.000071    0.36  0.000091  ( 0.005275  0.004674  0.006465)
  8:    250.00   0.000815    4.12  0.001017  (-0.015181 -0.015701 -0.023235)
  9:    267.15   0.000849    4.29  0.000992  (-0.021204 -0.003008 -0.023090)
 10:    351.16   0.018167   91.81  0.016145  ( 0.073685  0.034105  0.097736)
 11:    387.31   0.003641   18.40  0.002933  ( 0.019579  0.036625  0.034768)
 12:    469.08   0.001379    6.97  0.000917  (-0.021499 -0.008241 -0.019672)
 13:    494.32   0.001680    8.49  0.001061  ( 0.001102  0.032533  0.000990)
 14:    767.79   0.000548    2.77  0.000223  ( 0.000777  0.013666  0.005932)
 15:    825.32   0.000932    4.71  0.000352  (-0.003831  0.013832 -0.012093)
 16:    897.93   0.007917   40.01  0.002751  ( 0.010128  0.051287 -0.004295)
 17:    976.88   0.001620    8.18  0.000517  (-0.006729  0.016015 -0.014683)
 18:   1005.37   0.003918   19.80  0.001216  ( 0.010023  0.033232 -0.003346)
 19:   1020.56   0.003740   18.90  0.001144  (-0.001715  0.032796 -0.008075)
 20:   1086.33   0.001348    6.81  0.000387  ( 0.005991 -0.017910  0.005537)
 21:   1136.68   0.002521   12.74  0.000692  (-0.004259  0.023863 -0.010225)
 22:   1183.67   0.002450   12.38  0.000646  ( 0.012629  0.021876  0.002815)
 23:   1271.06   0.008992   45.44  0.002208  ( 0.015949  0.043211 -0.009279)
 24:   1294.46   0.000986    4.98  0.000238  ( 0.001861 -0.014509  0.004875)
 25:   1323.70   0.001631    8.24  0.000385  ( 0.012935  0.014242 -0.003801)
 26:   1367.98   0.000637    3.22  0.000145  ( 0.000600  0.011393  0.003885)
 27:   1393.73   0.001338    6.76  0.000300  (-0.004098 -0.016706 -0.001923)
 28:   1400.42   0.001642    8.30  0.000366  (-0.015788  0.008593  0.006543)
 29:   1420.09   0.003525   17.81  0.000775  ( 0.026758  0.005809 -0.004988)
 30:   1463.64   0.000301    1.52  0.000064  (-0.002433 -0.007220 -0.002457)
 31:   1479.23   0.001341    6.78  0.000283  ( 0.005208  0.005717  0.014934)
 32:   1491.76   0.001239    6.26  0.000259  ( 0.008289  0.013344 -0.003526)
 33:   1492.25   0.001071    5.41  0.000224  (-0.003622 -0.011144  0.009313)
 34:   1506.10   0.001632    8.25  0.000338  (-0.005643  0.004671 -0.016866)
 35:   2965.37   0.008622   43.57  0.000907  ( 0.003189  0.004880 -0.029553)
 36:   2999.27   0.001804    9.12  0.000188  (-0.013456 -0.001504 -0.002103)
 37:   3001.63   0.008424   42.57  0.000876  (-0.014736  0.020275  0.015736)
 38:   3011.70   0.005802   29.32  0.000601  ( 0.018248 -0.012837 -0.010169)
 39:   3043.30   0.001278    6.46  0.000131  ( 0.001095  0.006542 -0.009331)
 40:   3074.72   0.008941   45.19  0.000907  (-0.002758 -0.019119  0.023116)
 41:   3083.26   0.005451   27.55  0.000552  (-0.012976 -0.014258 -0.013418)
 42:   3090.78   0.007522   38.01  0.000759  ( 0.006654 -0.006022  0.026056)
 43:   3099.59   0.005427   27.43  0.000546  (-0.012539 -0.019675  0.001438)
 44:   3773.24   0.002464   12.45  0.000204  ( 0.008383 -0.011101 -0.003208)

--------------------------
THERMOCHEMISTRY AT 298.15K
--------------------------

Temperature         ...   298.15 K
Pressure            ...     1.00 atm
Total Mass          ...    74.12 AMU
Quasi RRHO          ...     True
Cut-Off Frequency   ...     1.00 cm^-1

Throughout the following assumptions are being made:
  (1) The electronic state is orbitally nondegenerate
  (2) There are no thermally accessible electronically excited states
  (3) Hindered rotations indicated by low frequency modes are not
      treated as such but are treated as vibrations and this may
      cause some error
  (4) All equations used are the standard statistical mechanics
      equations for an ideal gas
  (5) All vibrations are strictly harmonic

freq.     121.07  E(vib)   ...       0.44
freq.     241.23  E(vib)   ...       0.31
freq.     250.00  E(vib)   ...       0.31
freq.     267.15  E(vib)   ...       0.29
freq.     351.16  E(vib)   ...       0.23
freq.     387.31  E(vib)   ...       0.20
freq.     469.08  E(vib)   ...       0.16
freq.     494.32  E(vib)   ...       0.14
freq.     767.79  E(vib)   ...       0.06
freq.     825.32  E(vib)   ...       0.04
freq.     897.93  E(vib)   ...       0.03
freq.     976.88  E(vib)   ...       0.03
freq.    1005.37  E(vib)   ...       0.02
freq.    1020.56  E(vib)   ...       0.02
freq.    1086.33  E(vib)   ...       0.02
freq.    1136.68  E(vib)   ...       0.01
freq.    1183.67  E(vib)   ...       0.01
freq.    1271.06  E(vib)   ...       0.01
freq.    1294.46  E(vib)   ...       0.01
freq.    1323.70  E(vib)   ...       0.01
freq.    1367.98  E(vib)   ...       0.01
freq.    1393.73  E(vib)   ...       0.00
freq.    1400.42  E(vib)   ...       0.00
freq.    1420.09  E(vib)   ...       0.00
freq.    1463.64  E(vib)   ...       0.00
freq.    1479.23  E(vib)   ...       0.00
freq.    1491.76  E(vib)   ...       0.00
freq.    1492.25  E(vib)   ...       0.00
freq.    1506.10  E(vib)   ...       0.00
freq.    2965.37  E(vib)   ...       0.00
freq.    2999.27  E(vib)   ...       0.00
freq.    3001.63  E(vib)   ...       0.00
freq.    3011.70  E(vib)   ...       0.00
freq.    3043.30  E(vib)   ...       0.00
freq.    3074.72  E(vib)   ...       0.00
freq.    3083.26  E(vib)   ...       0.00
freq.    3090.78  E(vib)   ...       0.00
freq.    3099.59  E(vib)   ...       0.00
freq.    3773.24  E(vib)   ...       0.00

------------
INNER ENERGY
------------

The inner energy is: U= E(el) + E(ZPE) + E(vib) + E(rot) + E(trans)
    E(el)   - is the total energy from the electronic structure calculation
              = E(kin-el) + E(nuc-el) + E(el-el) + E(nuc-nuc)
    E(ZPE)  - the the zero temperature vibrational energy from the frequency calculation
    E(vib)  - the the finite temperature correction to E(ZPE) due to population
              of excited vibrational states
    E(rot)  - is the rotational thermal energy
    E(trans)- is the translational thermal energy

Summary of contributions to the inner energy U:
Electronic energy                ...   -233.62001527 Eh
Zero point energy                ...      0.13561740 Eh      85.10 kcal/mol
Thermal vibrational correction   ...      0.00378261 Eh       2.37 kcal/mol
Thermal rotational correction    ...      0.00141627 Eh       0.89 kcal/mol
Thermal translational correction ...      0.00141627 Eh       0.89 kcal/mol
-----------------------------------------------------------------------
Total thermal energy                   -233.47778272 Eh

Summary of corrections to the electronic energy:
(perhaps to be used in another calculation)
Total thermal correction                  0.00661516 Eh       4.15 kcal/mol
Non-thermal (ZPE) correction              0.13561740 Eh      85.10 kcal/mol
-----------------------------------------------------------------------
Total correction                          0.14223255 Eh      89.25 kcal/mol

--------
ENTHALPY
--------

The enthalpy is H = U + kB*T
                kB is Boltzmann's constant
Total thermal energy              ...   -233.47778272 Eh
Thermal Enthalpy correction       ...      0.00094421 Eh       0.59 kcal/mol
-----------------------------------------------------------------------
Total Enthalpy                    ...   -233.47683851 Eh

Note: Only C1 symmetry has been detected, increase convergence thresholds
      if your molecule has a higher symmetry. Symmetry factor of 1.0 is
      used for the rotational entropy correction.

Note: Rotational entropy computed according to Herzberg
Infrared and Raman Spectra, Chapter V,1, Van Nostrand Reinhold, 1945
Point Group:  C1, Symmetry Number:   1
Rotational constants in cm-1:     0.267184     0.115024     0.088662

Vibrational entropy computed according to the QRRHO of S. Grimme
Chem.Eur.J. 2012 18 9955 using a reference frequency of 100.0 cm-1

-------
ENTROPY
-------

The entropy contributions are T*S = T*(S(el)+S(vib)+S(rot)+S(trans))
     S(el)   - electronic entropy
     S(vib)  - vibrational entropy
     S(rot)  - rotational entropy
     S(trans)- translational entropy
The entropies will be listed as multiplied by the temperature to get
units of energy

Electronic entropy                ...      0.00000000 Eh      0.00 kcal/mol
Vibrational entropy               ...      0.00614076 Eh      3.85 kcal/mol
Rotational entropy                ...      0.01229867 Eh      7.72 kcal/mol
Translational entropy             ...      0.01844715 Eh     11.58 kcal/mol
-----------------------------------------------------------------------
Final entropy term                ...      0.03688658 Eh     23.15 kcal/mol

In case the symmetry of your molecule has not been determined correctly
or in case you have a reason to use a different symmetry number we print
out the resulting rotational entropy values for sn=1,12:

 non-linear molecules -----------------------------------
|  sn= 1 | S(rot)=       0.01229867 Eh      7.72 kcal/mol|
|  sn= 2 | S(rot)=       0.01164422 Eh      7.31 kcal/mol|
|  sn= 3 | S(rot)=       0.01126138 Eh      7.07 kcal/mol|
|  sn= 4 | S(rot)=       0.01098976 Eh      6.90 kcal/mol|
|  sn= 5 | S(rot)=       0.01077907 Eh      6.76 kcal/mol|
|  sn= 6 | S(rot)=       0.01060693 Eh      6.66 kcal/mol|
|  sn= 7 | S(rot)=       0.01046138 Eh      6.56 kcal/mol|
|  sn= 8 | S(rot)=       0.01033530 Eh      6.49 kcal/mol|
|  sn= 9 | S(rot)=       0.01022410 Eh      6.42 kcal/mol|
|  sn=10 | S(rot)=       0.01012462 Eh      6.35 kcal/mol|
|  sn=11 | S(rot)=       0.01003463 Eh      6.30 kcal/mol|
|  sn=12 | S(rot)=       0.00995247 Eh      6.25 kcal/mol|
 linear molecules ---------------------------------------
|  Dinfh | S(rot)=       0.00761349 Eh      4.78 kcal/mol|
|  Cinfv | S(rot)=       0.00826794 Eh      5.19 kcal/mol|
 --------------------------------------------------------

-------------------
GIBBS FREE ENERGY
-------------------

                             ****ORCA TERMINATED NORMALLY****
TOTAL RUN TIME: 0 days 0 hours 6 minutes 8 seconds 168 msec
