                         Program Version 6.0.0  -   RELEASE  -
|  1> ! r2SCAN-3c DEF2-TZVP FREQ
|  2> * xyzfile 0 1 vacuum_censo.xyz
|  3>
|  4>                          ****END OF INPUT****

CARTESIAN COORDINATES (ANGSTROEM)
---------------------------------
  C      2.085396    0.055022   -0.080078
  C      0.759930    0.723514    0.278618
  C     -0.457152    0.033312   -0.338965
  H     -0.350002    0.047088   -1.438351
  C     -1.755855    0.719923    0.042799
  O     -0.577887   -1.326928    0.108459
  H      2.932175    0.613218    0.329322
  H      2.219680   -0.002392   -1.166561
  H      2.148284   -0.959829    0.327884
  H      0.770994    1.766420   -0.063307
  H      0.630344    0.742638    1.368069
  H     -2.607199    0.204682   -0.409042
  H     -1.881523    0.703846    1.130116
  H     -1.754576    1.760442   -0.294286
  H      0.187797   -1.816127   -0.210545

 Total Charge           Charge          ....    0
 Multiplicity           Mult            ....    1
 Number of Electrons    NEL             ....   42
 Basis Dimension        Dim             ....  215

ORBITAL ENERGIES
----------------

  NO   OCC          E(Eh)            E(eV)
   0   2.0000     -18.945081      -515.5219
   1   2.0000     -10.080471      -274.3035
   2   2.0000     -10.029157      -272.9072
   3   2.0000     -10.028386      -272.8863
   4   2.0000     -10.017552      -272.5914
   5   2.0000      -0.978362       -26.6226
   6   2.0000      -0.753504       -20.5039
   7   2.0000      -0.698054       -18.9950
   8   2.0000      -0.602269       -16.3886
   9   2.0000      -0.544405       -14.8140
  10   2.0000      -0.483522       -13.1573
  11   2.0000      -0.429585       -11.6896
  12   2.0000      -0.400736       -10.9046
  13   2.0000      -0.396296       -10.7838
  14   2.0000      -0.355072        -9.6620
  15   2.0000      -0.350073        -9.5260
  16   2.0000      -0.327139        -8.9019
  17   2.0000      -0.324319        -8.8252
  18   2.0000      -0.313023        -8.5178
  19   2.0000      -0.290045        -7.8925
  20   2.0000      -0.236149        -6.4259
  21   0.0000       0.030411         0.8275
  22   0.0000       0.064970         1.7679
  23   0.0000       0.080622         2.1938
  24   0.0000       0.084252         2.2926
  25   0.0000       0.098773         2.6877

MULLIKEN ATOMIC CHARGES
-----------------------
   0 C :   -0.362383
   1 C :   -0.130361
   2 C :    0.116831
   3 H :    0.050841
   4 C :   -0.295700
   5 O :   -0.464318
   6 H :    0.112796
   7 H :    0.106491
   8 H :    0.097454
   9 H :    0.074919
  10 H :    0.086193
  11 H :    0.111993
  12 H :    0.103026
  13 H :    0.096201
  14 H :    0.296018
Sum of atomic charges:    0.0000000

LOEWDIN ATOMIC CHARGES
----------------------
   0 C :   -0.318350
   1 C :   -0.281201
   2 C :   -0.379250
   3 H :    0.127966
   4 C :   -0.284582
   5 O :   -0.023963
   6 H :    0.120989
   7 H :    0.118014
   8 H :    0.113280
   9 H :    0.137221
  10 H :    0.136768
  11 H :    0.123128
  12 H :    0.123562
  13 H :    0.122149
  14 H :    0.164269

  Mayer bond orders larger than 0.100000
B(  0-C ,  1-C ) :   0.9583 B(  0-C ,  6-H ) :   0.9771 B(  0-C ,  7-H ) :   0.9740
B(  0-C ,  8-H ) :   0.9772 B(  1-C ,  2-C ) :   0.9592 B(  1-C ,  9-H ) :   0.9536
B(  1-C , 10-H ) :   0.9609 B(  2-C ,  3-H ) :   0.9640 B(  2-C ,  4-C ) :   0.9687
B(  2-C ,  5-O ) :   0.9720 B(  4-C , 11-H ) :   0.9735 B(  4-C , 12-H ) :   0.9727
B(  4-C , 13-H ) :   0.9716 B(  5-O , 14-H ) :   0.9024

Dispersion correction           -0.003144897
FINAL SINGLE POINT ENERGY      -233.620258181985

DIPOLE MOMENT
-------------

Method             : SCF
Type of density    : Electron Density
Multiplicity       :   1
Irrep              :   0
Energy             :  -233.6252373632068213 Eh
Relativity type    :
Basis              : AO
                                X                 Y                 Z
Electronic contribution:     -1.571722799      -2.541620219       0.116131639
Nuclear contribution   :      2.061369862       2.819104608      -0.415517000
                        -----------------------------------------
Total Dipole Moment    :      0.489647063       0.277484388      -0.299385361
                        -----------------------------------------
Magnitude (a.u.)       :      0.637482099
Magnitude (Debye)      :      1.620350725

VIBRATIONAL FREQUENCIES
-----------------------

Scaling factor for frequencies =  1.000000000  (already applied!)

     0:       0.00 cm**-1
     1:       0.00 cm**-1
     2:       0.00 cm**-1
     3:       0.00 cm**-1
     4:       0.00 cm**-1
     5:       0.00 cm**-1
     6:     118.77 cm**-1
     7:     234.78 cm**-1
     8:     241.51 cm**-1
     9:     260.78 cm**-1
    10:     310.27 cm**-1
    11:     384.53 cm**-1
    12:     468.93 cm**-1
    13:     493.91 cm**-1
    14:     771.16 cm**-1
    15:     824.68 cm**-1
    16:     914.09 cm**-1
    17:     977.53 cm**-1
    18:    1004.09 cm**-1
    19:    1017.54 cm**-1
    20:    1083.18 cm**-1
    21:    1145.20 cm**-1
    22:    1182.08 cm**-1
    23:    1269.24 cm**-1
    24:    1294.32 cm**-1
    25:    1323.46 cm**-1
    26:    1373.95 cm**-1
    27:    1391.46 cm**-1
    28:    1399.59 cm**-1
    29:    1418.78 cm**-1
    30:    1463.69 cm**-1
    31:    1477.95 cm**-1
    32:    1491.40 cm**-1
    33:    1491.92 cm**-1
    34:    1506.29 cm**-1
    35:    2933.62 cm**-1
    36:    3000.29 cm**-1
    37:    3002.94 cm**-1
    38:    3017.25 cm**-1
    39:    3045.02 cm**-1
    40:    3075.71 cm**-1
    41:    3086.76 cm**-1
    42:    3097.25 cm**-1
    43:    3106.91 cm**-1
    44:    3807.80 cm**-1

IR SPECTRUM
-----------

 Mode   freq       eps      Int      T**2         TX        TY        TZ
       cm**-1   L/(mol*cm) km/mol    a.u.
----------------------------------------------------------------------------
  6:    118.77   0.000199    1.00  0.000522  (-0.015929  0.003386 -0.016035)
  7:    234.78   0.000906    4.58  0.001204  ( 0.018849  0.014093  0.025503)
  8:    241.51   0.002923   14.77  0.003778  ( 0.033166  0.023807  0.045943)
  9:    260.78   0.001332    6.73  0.001594  ( 0.026091  0.004667  0.029866)
 10:    310.27   0.018031   91.12  0.018136  (-0.075384 -0.043900 -0.102594)
 11:    384.53   0.001180    5.96  0.000957  (-0.003563 -0.028176 -0.012281)
 12:    468.93   0.000920    4.65  0.000612  ( 0.018185  0.005397  0.015889)
 13:    493.91   0.001632    8.25  0.001031  (-0.000403 -0.032109  0.000124)
 14:    771.16   0.000247    1.25  0.000100  ( 0.000651 -0.007877 -0.006109)
 15:    824.68   0.000574    2.90  0.000217  ( 0.004884 -0.007699  0.011572)
 16:    914.09   0.006359   32.13  0.002171  ( 0.009807  0.045424 -0.003352)
 17:    977.53   0.001595    8.06  0.000509  ( 0.006913 -0.015642  0.014723)
 18:   1004.09   0.004533   22.91  0.001409  (-0.009853 -0.035888  0.004877)
 19:   1017.54   0.005081   25.68  0.001558  ( 0.000876 -0.038254  0.009699)
 20:   1083.18   0.001230    6.21  0.000354  (-0.006262  0.016786 -0.005769)
 21:   1145.20   0.002741   13.85  0.000747  ( 0.004080 -0.024683  0.011003)
 22:   1182.08   0.002818   14.24  0.000744  (-0.012979 -0.023895 -0.002106)
 23:   1269.24   0.009551   48.27  0.002348  (-0.016771 -0.044200  0.010648)
 24:   1294.32   0.000832    4.21  0.000201  (-0.002281  0.013251 -0.004455)
 25:   1323.46   0.001467    7.41  0.000346  (-0.012744 -0.012977  0.003878)
 26:   1373.95   0.001096    5.54  0.000249  (-0.004143 -0.014978 -0.002726)
 27:   1391.46   0.001454    7.35  0.000326  ( 0.001357  0.017738  0.003091)
 28:   1399.59   0.001722    8.70  0.000384  ( 0.017849 -0.005241 -0.006152)
 29:   1418.78   0.003240   16.37  0.000713  (-0.025742 -0.004822  0.005170)
 30:   1463.69   0.000266    1.35  0.000057  ( 0.002367  0.006876  0.001966)
 31:   1477.95   0.001390    7.02  0.000293  (-0.005012 -0.005443 -0.015450)
 32:   1491.40   0.001640    8.29  0.000343  (-0.009081 -0.015240  0.005332)
 33:   1491.92   0.000523    2.64  0.000109  ( 0.001208  0.007138 -0.007546)
 34:   1506.29   0.001642    8.30  0.000340  ( 0.005281 -0.004541  0.017076)
 35:   2933.62   0.010664   53.89  0.001134  ( 0.003640  0.004488 -0.033180)
 36:   3000.29   0.001670    8.44  0.000174  ( 0.013057  0.001783  0.000015)
 37:   3002.94   0.008791   44.42  0.000914  ( 0.014795 -0.022321 -0.014016)
 38:   3017.25   0.005134   25.94  0.000531  (-0.017484  0.012556  0.008221)
 39:   3045.02   0.001133    5.73  0.000116  (-0.001863 -0.004470  0.009628)
 40:   3075.71   0.009447   47.74  0.000958  (-0.001652 -0.017876  0.025223)
 41:   3086.76   0.005643   28.52  0.000571  ( 0.014166  0.015088  0.011924)
 42:   3097.25   0.006866   34.70  0.000692  (-0.002837  0.009763 -0.024257)
 43:   3106.91   0.005074   25.64  0.000510  ( 0.014182  0.016951  0.004605)
 44:   3807.80   0.002549   12.88  0.000209  (-0.008591  0.011197  0.003122)

--------------------------
THERMOCHEMISTRY AT 298.15K
--------------------------

Temperature         ...   298.15 K
Pressure            ...     1.00 atm
Total Mass          ...    74.12 AMU
Quasi RRHO          ...     True
Cut-Off Frequency   ...     1.00 cm^-1

Throughout the following assumptions are being made:
  (1) The electronic state is orbitally nondegenerate
  (2) There are no thermally accessible electronically excited states
  (3) Hindered rotations indicated by low frequency modes are not
      treated as such but are treated as vibrations and this may
      cause some error
  (4) All equations used are the standard statistical mechanics
      equations for an ideal gas
  (5) All vibrations are strictly harmonic

freq.     118.77  E(vib)   ...       0.44
freq.     234.78  E(vib)   ...       0.32
freq.     241.51  E(vib)   ...       0.31
freq.     260.78  E(vib)   ...       0.30
freq.     310.27  E(vib)   ...       0.26
freq.     384.53  E(vib)   ...       0.20
freq.     468.93  E(vib)   ...       0.16
freq.     493.91  E(vib)   ...       0.14
freq.     771.16  E(vib)   ...       0.05
freq.     824.68  E(vib)   ...       0.04
freq.     914.09  E(vib)   ...       0.03
freq.     977.53  E(vib)   ...       0.03
freq.    1004.09  E(vib)   ...       0.02
freq.    1017.54  E(vib)   ...       0.02
freq.    1083.18  E(vib)   ...       0.02
freq.    1145.20  E(vib)   ...       0.01
freq.    1182.08  E(vib)   ...       0.01
freq.    1269.24  E(vib)   ...       0.01
freq.    1294.32  E(vib)   ...       0.01
freq.    1323.46  E(vib)   ...       0.01
freq.    1373.95  E(vib)   ...       0.01
freq.    1391.46  E(vib)   ...       0.00
freq.    1399.59  E(vib)   ...       0.00
freq.    1418.78  E(vib)   ...       0.00
freq.    1463.69  E(vib)   ...       0.00
freq.    1477.95  E(vib)   ...       0.00
freq.    1491.40  E(vib)   ...       0.00
freq.    1491.92  E(vib)   ...       0.00
freq.    1506.29  E(vib)   ...       0.00
freq.    2933.62  E(vib)   ...       0.00
freq.    3000.29  E(vib)   ...       0.00
freq.    3002.94  E(vib)   ...       0.00
freq.    3017.25  E(vib)   ...       0.00
freq.    3045.02  E(vib)   ...       0.00
freq.    3075.71  E(vib)   ...       0.00
freq.    3086.76  E(vib)   ...       0.00
freq.    3097.25  E(vib)   ...       0.00
freq.    3106.91  E(vib)   ...       0.00
freq.    3807.80  E(vib)   ...       0.00

------------
INNER ENERGY
------------

The inner energy is: U= E(el) + E(ZPE) + E(vib) + E(rot) + E(trans)
    E(el)   - is the total energy from the electronic structure calculation
              = E(kin-el) + E(nuc-el) + E(el-el) + E(nuc-nuc)
    E(ZPE)  - the the zero temperature vibrational energy from the frequency calculation
    E(vib)  - the the finite temperature correction to E(ZPE) due to population
              of excited vibrational states
    E(rot)  - is the rotational thermal energy
    E(trans)- is the translational thermal energy

Summary of contributions to the inner energy U:
Electronic energy                ...   -233.62025818 Eh
Zero point energy                ...      0.13557052 Eh      85.07 kcal/mol
Thermal vibrational correction   ...      0.00386375 Eh       2.42 kcal/mol
Thermal rotational correction    ...      0.00141627 Eh       0.89 kcal/mol
Thermal translational correction ...      0.00141627 Eh       0.89 kcal/mol
-----------------------------------------------------------------------
Total thermal energy                   -233.47799136 Eh

Summary of corrections to the electronic energy:
(perhaps to be used in another calculation)
Total thermal correction                  0.00669630 Eh       4.20 kcal/mol
Non-thermal (ZPE) correction              0.13557052 Eh      85.07 kcal/mol
-----------------------------------------------------------------------
Total correction                          0.14226682 Eh      89.27 kcal/mol

--------
ENTHALPY
--------

The enthalpy is H = U + kB*T
                kB is Boltzmann's constant
Total thermal energy              ...   -233.47799136 Eh
Thermal Enthalpy correction       ...      0.00094421 Eh       0.59 kcal/mol
-----------------------------------------------------------------------
Total Enthalpy                    ...   -233.47704716 Eh

Note: Only C1 symmetry has been detected, increase convergence thresholds
      if your molecule has a higher symmetry. Symmetry factor of 1.0 is
      used for the rotational entropy correction.

Note: Rotational entropy computed according to Herzberg
Infrared and Raman Spectra, Chapter V,1, Van Nostrand Reinhold, 1945
Point Group:  C1, Symmetry Number:   1
Rotational constants in cm-1:     0.269851     0.114895     0.088814

Vibrational entropy computed according to the QRRHO of S. Grimme
Chem.Eur.J. 2012 18 9955 using a reference frequency of 100.0 cm-1

-------
ENTROPY
-------

The entropy contributions are T*S = T*(S(el)+S(vib)+S(rot)+S(trans))
     S(el)   - electronic entropy
     S(vib)  - vibrational entropy
     S(rot)  - rotational entropy
     S(trans)- translational entropy
The entropies will be listed as multiplied by the temperature to get
units of energy

Electronic entropy                ...      0.00000000 Eh      0.00 kcal/mol
Vibrational entropy               ...      0.00632049 Eh      3.97 kcal/mol
Rotational entropy                ...      0.01229371 Eh      7.71 kcal/mol
Translational entropy             ...      0.01844715 Eh     11.58 kcal/mol
-----------------------------------------------------------------------
Final entropy term                ...      0.03706134 Eh     23.26 kcal/mol

In case the symmetry of your molecule has not been determined correctly
or in case you have a reason to use a different symmetry number we print
out the resulting rotational entropy values for sn=1,12:

 non-linear molecules -----------------------------------
|  sn= 1 | S(rot)=       0.01229371 Eh      7.71 kcal/mol|
|  sn= 2 | S(rot)=       0.01163925 Eh      7.30 kcal/mol|
|  sn= 3 | S(rot)=       0.01125642 Eh      7.06 kcal/mol|
|  sn= 4 | S(rot)=       0.01098479 Eh      6.89 kcal/mol|
|  sn= 5 | S(rot)=       0.01077411 Eh      6.76 kcal/mol|
|  sn= 6 | S(rot)=       0.01060196 Eh      6.65 kcal/mol|
|  sn= 7 | S(rot)=       0.01045642 Eh      6.56 kcal/mol|
|  sn= 8 | S(rot)=       0.01033034 Eh      6.48 kcal/mol|
|  sn= 9 | S(rot)=       0.01021913 Eh      6.41 kcal/mol|
|  sn=10 | S(rot)=       0.01011965 Eh      6.35 kcal/mol|
|  sn=11 | S(rot)=       0.01002966 Eh      6.29 kcal/mol|
|  sn=12 | S(rot)=       0.00994751 Eh      6.24 kcal/mol|
 linear molecules ---------------------------------------
|  Dinfh | S(rot)=       0.00761187 Eh      4.78 kcal/mol|
|  Cinfv | S(rot)=       0.00826633 Eh      5.19 kcal/mol|
 --------------------------------------------------------

-------------------
GIBBS FREE ENERGY
-------------------

                             ****ORCA TERMINATED NORMALLY****
TOTAL RUN TIME: 0 days 0 hours 6 minutes 8 seconds 294 msec
