                         Program Version 6.0.1  -  RELEASE   -
|  1> ! pbe def2-sv(p) def2/J RI DEFGRID1 loosescf d4 GCP(DFT/SV(P)) printgap
|  2> %output
|  3>     printlevel normal
|  4> end
|  5> * xyz 0 1
|  6> C -2.3638262402 -0.9328169846 -0.0468521323
|  7> C -1.1973437207 -0.1262749554 0.59730009
|  8> H -1.5580206719 0.3662216577 1.5069492217
|  9> C -0.6469626071 0.9652509833 -0.328820422
| 10> H -0.5940375222 0.5956802646 -1.3663270447
| 11> C 0.7767384909 1.3334290614 0.1331064575
| 12> H 0.735477978 1.6092366018 1.1950457646
| 13> C 1.7122053092 0.1251754712 -0.0459386464
| 14> H 2.1283688163 0.1218821853 -1.0594912151
| 15> C 0.8869352804 -1.1769587311 0.1107770896
| 16> H 1.5254378872 -1.9480308413 0.5770059907
| 17> O -0.1665822837 -1.0089310103 1.0290259701
| 18> O 0.4587422398 -1.5731032057 -1.1479490647
| 19> O 2.814958538 0.1607018232 0.8139244652
| 20> O 1.2129605592 2.4954363816 -0.5258975101
| 21> O -1.4909243743 2.0840942697 -0.2641137017
| 22> O -2.0365426392 -2.2928111486 -0.2114682818
| 23> H -2.5827651977 -0.5489674598 -1.0439446054
| 24> H -3.2633049994 -0.8331080661 0.5705598188
| 25> H -0.3497274884 -2.1150603792 -1.048854815
| 26> H 2.5059544346 0.1505986566 1.7278405712
| 27> H 1.4832388112 2.2692583103 -1.424079958
| 28> H -0.9363603156 2.8640504157 -0.4196296975
| 29> H -1.7583359751 -2.6329603904 0.6499736388
| 30> *
| 31>
| 32>                          ****END OF INPUT****

CARTESIAN COORDINATES (ANGSTROEM)
---------------------------------
  C     -2.363826   -0.932817   -0.046852
  C     -1.197344   -0.126275    0.597300
  H     -1.558021    0.366222    1.506949
  C     -0.646963    0.965251   -0.328820
  H     -0.594038    0.595680   -1.366327
  C      0.776738    1.333429    0.133106
  H      0.735478    1.609237    1.195046
  C      1.712205    0.125175   -0.045939
  H      2.128369    0.121882   -1.059491
  C      0.886935   -1.176959    0.110777
  H      1.525438   -1.948031    0.577006
  O     -0.166582   -1.008931    1.029026
  O      0.458742   -1.573103   -1.147949
  O      2.814959    0.160702    0.813924
  O      1.212961    2.495436   -0.525898
  O     -1.490924    2.084094   -0.264114
  O     -2.036543   -2.292811   -0.211468
  H     -2.582765   -0.548967   -1.043945
  H     -3.263305   -0.833108    0.570560
  H     -0.349727   -2.115060   -1.048855
  H      2.505954    0.150599    1.727841
  H      1.483239    2.269258   -1.424080
  H     -0.936360    2.864050   -0.419630
  H     -1.758336   -2.632960    0.649974

 Total Charge           Charge          ....    0
 Multiplicity           Mult            ....    1
 Number of Electrons    NEL             ....   96
 Basis Dimension        Dim             ....  192

ORBITAL ENERGIES
----------------

  NO   OCC          E(Eh)            E(eV)
   0   2.0000     -18.783915      -511.1363
   1   2.0000     -18.778366      -510.9853
   2   2.0000     -18.769336      -510.7396
   3   2.0000     -18.754261      -510.3294
   4   2.0000     -18.753189      -510.3002
   5   2.0000     -18.747731      -510.1517
   6   2.0000      -9.987148      -271.7641
   7   2.0000      -9.951417      -270.7918
   8   2.0000      -9.949925      -270.7512
   9   2.0000      -9.945974      -270.6437
  10   2.0000      -9.943274      -270.5702
  11   2.0000      -9.941730      -270.5282
  12   2.0000      -0.994110       -27.0511
  13   2.0000      -0.956550       -26.0290
  14   2.0000      -0.946865       -25.7655
  15   2.0000      -0.933602       -25.4046
  16   2.0000      -0.920761       -25.0552
  17   2.0000      -0.910794       -24.7840
  18   2.0000      -0.708816       -19.2879
  19   2.0000      -0.694043       -18.8859
  20   2.0000      -0.628773       -17.1098
  21   2.0000      -0.585958       -15.9447
  22   2.0000      -0.582998       -15.8642
  23   2.0000      -0.533624       -14.5206
  24   2.0000      -0.510168       -13.8824
  25   2.0000      -0.487433       -13.2637
  26   2.0000      -0.474759       -12.9189
  27   2.0000      -0.456810       -12.4304
  28   2.0000      -0.453935       -12.3522
  29   2.0000      -0.433518       -11.7966
  30   2.0000      -0.423956       -11.5364
  31   2.0000      -0.411274       -11.1913
  32   2.0000      -0.399742       -10.8775
  33   2.0000      -0.385093       -10.4789
  34   2.0000      -0.364567        -9.9204
  35   2.0000      -0.359883        -9.7929
  36   2.0000      -0.342666        -9.3244
  37   2.0000      -0.318584        -8.6691
  38   2.0000      -0.307520        -8.3680
  39   2.0000      -0.301472        -8.2035
  40   2.0000      -0.295323        -8.0361
  41   2.0000      -0.275634        -7.5004
  42   2.0000      -0.260086        -7.0773
  43   2.0000      -0.252916        -6.8822
  44   2.0000      -0.245592        -6.6829
  45   2.0000      -0.228405        -6.2152
  46   2.0000      -0.216466        -5.8903
  47   2.0000      -0.208346        -5.6694
  48   0.0000       0.010868         0.2957
  49   0.0000       0.020797         0.5659
  50   0.0000       0.032410         0.8819
  51   0.0000       0.049717         1.3529
  52   0.0000       0.062273         1.6945

MULLIKEN ATOMIC CHARGES
-----------------------
   0 C :    0.053516
   1 C :    0.048723
   2 H :    0.076626
   3 C :    0.019204
   4 H :    0.058884
   5 C :    0.017984
   6 H :    0.053896
   7 C :    0.112007
   8 H :    0.068597
   9 C :    0.129899
  10 H :    0.062423
  11 O :   -0.327842
  12 O :   -0.414659
  13 O :   -0.409389
  14 O :   -0.413838
  15 O :   -0.417036
  16 O :   -0.434028
  17 H :    0.109212
  18 H :    0.090930
  19 H :    0.301663
  20 H :    0.298665
  21 H :    0.304780
  22 H :    0.301132
  23 H :    0.308649
Sum of atomic charges:   -0.0000000

LOEWDIN ATOMIC CHARGES
----------------------
   0 C :   -0.130612
   1 C :   -0.070483
   2 H :    0.119826
   3 C :   -0.092743
   4 H :    0.099995
   5 C :   -0.079939
   6 H :    0.115334
   7 C :   -0.083851
   8 H :    0.121378
   9 C :   -0.008401
  10 H :    0.094756
  11 O :   -0.151294
  12 O :   -0.322112
  13 O :   -0.306232
  14 O :   -0.304163
  15 O :   -0.326620
  16 O :   -0.313527
  17 H :    0.123151
  18 H :    0.108235
  19 H :    0.271994
  20 H :    0.284215
  21 H :    0.288335
  22 H :    0.278981
  23 H :    0.283776

  Mayer bond orders larger than 0.100000
B(  0-C ,  1-C ) :   1.0131 B(  0-C , 16-O ) :   1.0327 B(  0-C , 17-H ) :   0.9288
B(  0-C , 18-H ) :   0.9247 B(  1-C ,  2-H ) :   0.8824 B(  1-C ,  3-C ) :   0.9778
B(  1-C , 11-O ) :   1.0186 B(  3-C ,  4-H ) :   0.8655 B(  3-C ,  5-C ) :   1.0340
B(  3-C , 15-O ) :   1.0930 B(  5-C ,  6-H ) :   0.8518 B(  5-C ,  7-C ) :   0.9991
B(  5-C , 14-O ) :   1.0285 B(  7-C ,  8-H ) :   0.8646 B(  7-C ,  9-C ) :   0.9718
B(  7-C , 13-O ) :   1.0541 B(  9-C , 10-H ) :   0.8957 B(  9-C , 11-O ) :   1.0373
B(  9-C , 12-O ) :   1.1005 B( 12-O , 19-H ) :   0.7693 B( 13-O , 20-H ) :   0.8503
B( 14-O , 21-H ) :   0.8471 B( 15-O , 22-H ) :   0.8210 B( 16-O , 19-H ) :   0.1431
B( 16-O , 23-H ) :   0.8284

Dispersion correction           -0.025191013
FINAL SINGLE POINT ENERGY      -685.690638365714

DIPOLE MOMENT
-------------

Method             : SCF
Type of density    : Electron Density
Multiplicity       :   1
Irrep              :   0
Energy             :  -685.8251842293275331 Eh
Relativity type    :
Basis              : AO
                                X                 Y                 Z
Electronic contribution:      2.194630135      -0.030431732       0.535006593
Nuclear contribution   :     -2.487612703      -0.096936141      -0.131148561
                        -----------------------------------------
Total Dipole Moment    :     -0.292982568      -0.127367873       0.403858032
                        -----------------------------------------
Magnitude (a.u.)       :      0.514939482
Magnitude (Debye)      :      1.308872147

Rotational constants in cm-1:             0.043088             0.028200             0.019983
Rotational constants in MHz :          1291.757438           845.414592           599.082147

                             ****ORCA TERMINATED NORMALLY****
TOTAL RUN TIME: 0 days 0 hours 1 minutes 23 seconds 487 msec
