                         Program Version 6.0.0  -   RELEASE  -
|  1> ! r2SCAN-3c DEF2-TZVP FREQ
|  2> * xyzfile 0 1 censo.xyz
|  3>
|  4>                          ****END OF INPUT****

CARTESIAN COORDINATES (ANGSTROEM)
---------------------------------
  C     -2.504106   -0.780472   -0.002482
  C     -1.228433    0.008799   -0.022496
  C     -1.223691    1.402190   -0.095620
  C     -0.029595    2.118818   -0.112803
  C      1.182530    1.437555   -0.055451
  C      1.226124    0.043316    0.018324
  C      0.007480   -0.649072    0.033786
  O     -0.036900   -2.027541    0.106959
  C      2.529667   -0.700311    0.079495
  H     -3.367085   -0.114279   -0.076258
  H     -2.545836   -1.493857   -0.833479
  H     -2.598028   -1.364579    0.920537
  H     -2.174776    1.925777   -0.140733
  H     -0.043863    3.202499   -0.169936
  H      2.119110    1.988361   -0.068102
  H      0.863252   -2.378972    0.136618
  H      2.612602   -1.301291    0.994071
  H      2.649267   -1.382149   -0.772234
  H      3.367610   -0.000294    0.064643

 Total Charge           Charge          ....    0
 Multiplicity           Mult            ....    1
 Number of Electrons    NEL             ....   66
 Basis Dimension        Dim             ....  339

ORBITAL ENERGIES
----------------

  NO   OCC          E(Eh)            E(eV)
   0   2.0000     -18.983994      -516.5807
   1   2.0000     -10.087576      -274.4969
   2   2.0000     -10.043821      -273.3063
   3   2.0000     -10.042165      -273.2612
   4   2.0000     -10.036714      -273.1129
   5   2.0000     -10.030505      -272.9439
   6   2.0000     -10.028315      -272.8843
   7   2.0000     -10.025125      -272.7975
   8   2.0000     -10.023140      -272.7435
   9   2.0000      -1.021042       -27.7840
  10   2.0000      -0.817916       -22.2566
  11   2.0000      -0.753106       -20.4931
  12   2.0000      -0.717367       -19.5205
  13   2.0000      -0.663494       -18.0546
  14   2.0000      -0.644755       -17.5447
  15   2.0000      -0.572260       -15.5720
  16   2.0000      -0.547876       -14.9085
  17   2.0000      -0.504258       -13.7216
  18   2.0000      -0.454130       -12.3575
  19   2.0000      -0.431413       -11.7394
  20   2.0000      -0.410965       -11.1829
  21   2.0000      -0.393968       -10.7204
  22   2.0000      -0.384894       -10.4735
  23   2.0000      -0.378503       -10.2996
  24   2.0000      -0.373968       -10.1762
  25   2.0000      -0.356477        -9.7002
  26   2.0000      -0.345482        -9.4010
  27   2.0000      -0.343731        -9.3534
  28   2.0000      -0.314301        -8.5526
  29   2.0000      -0.305249        -8.3062
  30   2.0000      -0.301836        -8.2134
  31   2.0000      -0.220636        -6.0038
  32   2.0000      -0.198495        -5.4013
  33   0.0000      -0.024815        -0.6753
  34   0.0000      -0.016043        -0.4366
  35   0.0000       0.024494         0.6665
  36   0.0000       0.065186         1.7738
  37   0.0000       0.075302         2.0491

MULLIKEN ATOMIC CHARGES
-----------------------
   0 C :   -0.309309
   1 C :    0.029491
   2 C :   -0.161805
   3 C :   -0.127615
   4 C :   -0.170343
   5 C :    0.130863
   6 C :    0.142724
   7 O :   -0.404001
   8 C :   -0.452177
   9 H :    0.103232
  10 H :    0.115338
  11 H :    0.114864
  12 H :    0.095692
  13 H :    0.101290
  14 H :    0.094432
  15 H :    0.319333
  16 H :    0.129074
  17 H :    0.129924
  18 H :    0.118994
Sum of atomic charges:   -0.0000000

LOEWDIN ATOMIC CHARGES
----------------------
   0 C :   -0.250816
   1 C :   -0.156850
   2 C :   -0.122905
   3 C :   -0.159287
   4 C :   -0.128322
   5 C :   -0.173423
   6 C :   -0.205691
   7 O :    0.080322
   8 C :   -0.268297
   9 H :    0.124566
  10 H :    0.131083
  11 H :    0.131180
  12 H :    0.143957
  13 H :    0.141121
  14 H :    0.143004
  15 H :    0.184770
  16 H :    0.126312
  17 H :    0.126519
  18 H :    0.132756

  Mayer bond orders larger than 0.100000
B(  0-C ,  1-C ) :   0.9514 B(  0-C ,  9-H ) :   0.9839 B(  0-C , 10-H ) :   0.9584
B(  0-C , 11-H ) :   0.9575 B(  1-C ,  2-C ) :   1.3755 B(  1-C ,  6-C ) :   1.3425
B(  2-C ,  3-C ) :   1.3989 B(  2-C , 12-H ) :   0.9774 B(  3-C ,  4-C ) :   1.4131
B(  3-C , 13-H ) :   0.9803 B(  4-C ,  5-C ) :   1.3330 B(  4-C , 14-H ) :   0.9708
B(  5-C ,  6-C ) :   1.2983 B(  5-C ,  8-C ) :   0.8619 B(  6-C ,  7-O ) :   1.1741
B(  7-O , 15-H ) :   0.8757 B(  8-C , 16-H ) :   0.9739 B(  8-C , 17-H ) :   0.9736
B(  8-C , 18-H ) :   0.9745

Dispersion correction           -0.006220925
FINAL SINGLE POINT ENERGY      -386.035926864330

DIPOLE MOMENT
-------------

Method             : SCF
Type of density    : Electron Density
Multiplicity       :   1
Irrep              :   0
Energy             :  -386.0370404289292310 Eh
Relativity type    :
Basis              : AO
                                X                 Y                 Z
Electronic contribution:     -0.294764953       0.792998401      -0.045281234
Nuclear contribution   :      0.841144557      -0.987094474       0.062676158
                        -----------------------------------------
Total Dipole Moment    :      0.546379604      -0.194096073       0.017394924
                        -----------------------------------------
Magnitude (a.u.)       :      0.580091838
Magnitude (Debye)      :      1.474476274

VIBRATIONAL FREQUENCIES
-----------------------

Scaling factor for frequencies =  1.000000000  (already applied!)

     0:       0.00 cm**-1
     1:       0.00 cm**-1
     2:       0.00 cm**-1
     3:       0.00 cm**-1
     4:       0.00 cm**-1
     5:       0.00 cm**-1
     6:     136.52 cm**-1
     7:     170.34 cm**-1
     8:     188.14 cm**-1
     9:     233.78 cm**-1
    10:     285.74 cm**-1
    11:     286.61 cm**-1
    12:     326.74 cm**-1
    13:     388.48 cm**-1
    14:     491.60 cm**-1
    15:     501.24 cm**-1
    16:     506.65 cm**-1
    17:     558.47 cm**-1
    18:     561.23 cm**-1
    19:     677.39 cm**-1
    20:     726.09 cm**-1
    21:     762.01 cm**-1
    22:     839.71 cm**-1
    23:     883.97 cm**-1
    24:     918.87 cm**-1
    25:     929.78 cm**-1
    26:    1004.01 cm**-1
    27:    1042.40 cm**-1
    28:    1045.02 cm**-1
    29:    1056.18 cm**-1
    30:    1109.90 cm**-1
    31:    1182.93 cm**-1
    32:    1219.11 cm**-1
    33:    1237.85 cm**-1
    34:    1285.58 cm**-1
    35:    1307.15 cm**-1
    36:    1366.04 cm**-1
    37:    1399.02 cm**-1
    38:    1406.94 cm**-1
    39:    1450.51 cm**-1
    40:    1472.24 cm**-1
    41:    1479.46 cm**-1
    42:    1480.52 cm**-1
    43:    1507.05 cm**-1
    44:    1515.54 cm**-1
    45:    1621.46 cm**-1
    46:    1643.82 cm**-1
    47:    2987.36 cm**-1
    48:    3003.60 cm**-1
    49:    3040.01 cm**-1
    50:    3062.21 cm**-1
    51:    3100.23 cm**-1
    52:    3105.60 cm**-1
    53:    3148.83 cm**-1
    54:    3154.55 cm**-1
    55:    3176.26 cm**-1
    56:    3765.63 cm**-1

IR SPECTRUM
-----------

 Mode   freq       eps      Int      T**2         TX        TY        TZ
       cm**-1   L/(mol*cm) km/mol    a.u.
----------------------------------------------------------------------------
  6:    136.52   0.000188    0.95  0.000431  (-0.000612  0.001323  0.020699)
  7:    170.34   0.000003    0.02  0.000006  (-0.000293  0.001245  0.002106)
  8:    188.14   0.000244    1.23  0.000405  (-0.000282  0.000718  0.020111)
  9:    233.78   0.000357    1.81  0.000477  (-0.000150  0.000742  0.021826)
 10:    285.74   0.000280    1.41  0.000306  ( 0.004889 -0.016615  0.002379)
 11:    286.61   0.000506    2.56  0.000551  (-0.000898  0.002251  0.023339)
 12:    326.74   0.000545    2.75  0.000520  ( 0.002965 -0.022471  0.002519)
 13:    388.48   0.016319   82.47  0.013109  (-0.001264  0.006388  0.114309)
 14:    491.60   0.000608    3.07  0.000386  ( 0.006324 -0.018576  0.000995)
 15:    501.24   0.000252    1.27  0.000157  ( 0.000055  0.012492 -0.000817)
 16:    506.65   0.000145    0.73  0.000089  (-0.000016 -0.000955 -0.009399)
 17:    558.47   0.000025    0.13  0.000014  ( 0.000319  0.000501 -0.003726)
 18:    561.23   0.000762    3.85  0.000424  ( 0.010704  0.017569 -0.000612)
 19:    677.39   0.000503    2.54  0.000232  (-0.000432  0.015201 -0.000728)
 20:    726.09   0.000880    4.45  0.000378  ( 0.000521 -0.000959 -0.019421)
 21:    762.01   0.008873   44.84  0.003634  (-0.000981  0.003340  0.060181)
 22:    839.71   0.002545   12.86  0.000946  ( 0.002261 -0.030634  0.001486)
 23:    883.97   0.000000    0.00  0.000000  (-0.000153  0.000284  0.000080)
 24:    918.87   0.002230   11.27  0.000757  ( 0.017902 -0.020858  0.001334)
 25:    929.78   0.000177    0.90  0.000059  ( 0.000182 -0.000555 -0.007691)
 26:   1004.01   0.001016    5.14  0.000316  (-0.000106  0.017748 -0.000938)
 27:   1042.40   0.002996   15.14  0.000897  (-0.014214 -0.026331  0.001224)
 28:   1045.02   0.000284    1.44  0.000085  ( 0.000634 -0.000956 -0.009142)
 29:   1056.18   0.000131    0.66  0.000039  ( 0.000980  0.000046 -0.006146)
 30:   1109.90   0.005629   28.45  0.001583  ( 0.001259  0.039712 -0.002027)
 31:   1182.93   0.000706    3.57  0.000186  (-0.003282 -0.013228  0.000619)
 32:   1219.11   0.030171  152.47  0.007723  ( 0.011456  0.087017 -0.004455)
 33:   1237.85   0.000973    4.92  0.000245  (-0.015258 -0.003532  0.000039)
 34:   1285.58   0.004956   25.05  0.001203  (-0.002868 -0.034521  0.001779)
 35:   1307.15   0.001404    7.10  0.000335  ( 0.013736  0.012097 -0.000386)
 36:   1366.04   0.003949   19.96  0.000902  ( 0.000945  0.029979 -0.001571)
 37:   1399.02   0.001084    5.48  0.000242  (-0.004749  0.014779 -0.000874)
 38:   1406.94   0.000214    1.08  0.000048  (-0.005688 -0.003891  0.000224)
 39:   1450.51   0.005559   28.09  0.001196  (-0.004055  0.034296 -0.001811)
 40:   1472.24   0.001702    8.60  0.000361  ( 0.000359 -0.001580 -0.018922)
 41:   1479.46   0.001345    6.80  0.000284  (-0.001993  0.001649  0.016641)
 42:   1480.52   0.000754    3.81  0.000159  ( 0.009583 -0.007352  0.003610)
 43:   1507.05   0.009431   47.66  0.001953  ( 0.008305 -0.043329  0.002527)
 44:   1515.54   0.002687   13.58  0.000553  (-0.017223 -0.016016  0.000462)
 45:   1621.46   0.002624   13.26  0.000505  ( 0.003843 -0.022106  0.001237)
 46:   1643.82   0.000118    0.60  0.000022  ( 0.001094 -0.004604  0.000258)
 47:   2987.36   0.007578   38.30  0.000792  ( 0.021190 -0.018475  0.001148)
 48:   3003.60   0.005977   30.21  0.000621  ( 0.021717  0.012188 -0.000917)
 49:   3040.01   0.003701   18.70  0.000380  (-0.000252  0.000808  0.019473)
 50:   3062.21   0.002761   13.96  0.000281  ( 0.000641  0.000964  0.016735)
 51:   3100.23   0.003361   16.98  0.000338  ( 0.014134 -0.011734  0.000900)
 52:   3105.60   0.002023   10.22  0.000203  (-0.010257 -0.009899  0.000347)
 53:   3148.83   0.000106    0.53  0.000010  (-0.002256 -0.002317  0.000077)
 54:   3154.55   0.004326   21.86  0.000428  (-0.020677 -0.000515 -0.000321)
 55:   3176.26   0.003428   17.33  0.000337  ( 0.000365 -0.018326  0.000937)
 56:   3765.63   0.010789   54.52  0.000894  ( 0.022690 -0.019429  0.001330)

--------------------------
THERMOCHEMISTRY AT 298.15K
--------------------------

Temperature         ...   298.15 K
Pressure            ...     1.00 atm
Total Mass          ...   122.17 AMU
Quasi RRHO          ...     True
Cut-Off Frequency   ...     1.00 cm^-1

Throughout the following assumptions are being made:
  (1) The electronic state is orbitally nondegenerate
  (2) There are no thermally accessible electronically excited states
  (3) Hindered rotations indicated by low frequency modes are not
      treated as such but are treated as vibrations and this may
      cause some error
  (4) All equations used are the standard statistical mechanics
      equations for an ideal gas
  (5) All vibrations are strictly harmonic

freq.     136.52  E(vib)   ...       0.42
freq.     170.34  E(vib)   ...       0.38
freq.     188.14  E(vib)   ...       0.36
freq.     233.78  E(vib)   ...       0.32
freq.     285.74  E(vib)   ...       0.28
freq.     286.61  E(vib)   ...       0.27
freq.     326.74  E(vib)   ...       0.24
freq.     388.48  E(vib)   ...       0.20
freq.     491.60  E(vib)   ...       0.14
freq.     501.24  E(vib)   ...       0.14
freq.     506.65  E(vib)   ...       0.14
freq.     558.47  E(vib)   ...       0.12
freq.     561.23  E(vib)   ...       0.11
freq.     677.39  E(vib)   ...       0.08
freq.     726.09  E(vib)   ...       0.06
freq.     762.01  E(vib)   ...       0.06
freq.     839.71  E(vib)   ...       0.04
freq.     883.97  E(vib)   ...       0.04
freq.     918.87  E(vib)   ...       0.03
freq.     929.78  E(vib)   ...       0.03
freq.    1004.01  E(vib)   ...       0.02
freq.    1042.40  E(vib)   ...       0.02
freq.    1045.02  E(vib)   ...       0.02
freq.    1056.18  E(vib)   ...       0.02
freq.    1109.90  E(vib)   ...       0.02
freq.    1182.93  E(vib)   ...       0.01
freq.    1219.11  E(vib)   ...       0.01
freq.    1237.85  E(vib)   ...       0.01
freq.    1285.58  E(vib)   ...       0.01
freq.    1307.15  E(vib)   ...       0.01
freq.    1366.04  E(vib)   ...       0.01
freq.    1399.02  E(vib)   ...       0.00
freq.    1406.94  E(vib)   ...       0.00
freq.    1450.51  E(vib)   ...       0.00
freq.    1472.24  E(vib)   ...       0.00
freq.    1479.46  E(vib)   ...       0.00
freq.    1480.52  E(vib)   ...       0.00
freq.    1507.05  E(vib)   ...       0.00
freq.    1515.54  E(vib)   ...       0.00
freq.    1621.46  E(vib)   ...       0.00
freq.    1643.82  E(vib)   ...       0.00
freq.    2987.36  E(vib)   ...       0.00
freq.    3003.60  E(vib)   ...       0.00
freq.    3040.01  E(vib)   ...       0.00
freq.    3062.21  E(vib)   ...       0.00
freq.    3100.23  E(vib)   ...       0.00
freq.    3105.60  E(vib)   ...       0.00
freq.    3148.83  E(vib)   ...       0.00
freq.    3154.55  E(vib)   ...       0.00
freq.    3176.26  E(vib)   ...       0.00
freq.    3765.63  E(vib)   ...       0.00

------------
INNER ENERGY
------------

The inner energy is: U= E(el) + E(ZPE) + E(vib) + E(rot) + E(trans)
    E(el)   - is the total energy from the electronic structure calculation
              = E(kin-el) + E(nuc-el) + E(el-el) + E(nuc-nuc)
    E(ZPE)  - the the zero temperature vibrational energy from the frequency calculation
    E(vib)  - the the finite temperature correction to E(ZPE) due to population
              of excited vibrational states
    E(rot)  - is the rotational thermal energy
    E(trans)- is the translational thermal energy

Summary of contributions to the inner energy U:
Electronic energy                ...   -386.03592686 Eh
Zero point energy                ...      0.15890305 Eh      99.71 kcal/mol
Thermal vibrational correction   ...      0.00581051 Eh       3.65 kcal/mol
Thermal rotational correction    ...      0.00141627 Eh       0.89 kcal/mol
Thermal translational correction ...      0.00141627 Eh       0.89 kcal/mol
-----------------------------------------------------------------------
Total thermal energy                   -385.86838076 Eh

Summary of corrections to the electronic energy:
(perhaps to be used in another calculation)
Total thermal correction                  0.00864305 Eh       5.42 kcal/mol
Non-thermal (ZPE) correction              0.15890305 Eh      99.71 kcal/mol
-----------------------------------------------------------------------
Total correction                          0.16754610 Eh     105.14 kcal/mol

--------
ENTHALPY
--------

The enthalpy is H = U + kB*T
                kB is Boltzmann's constant
Total thermal energy              ...   -385.86838076 Eh
Thermal Enthalpy correction       ...      0.00094421 Eh       0.59 kcal/mol
-----------------------------------------------------------------------
Total Enthalpy                    ...   -385.86743655 Eh

Note: Only C1 symmetry has been detected, increase convergence thresholds
      if your molecule has a higher symmetry. Symmetry factor of 1.0 is
      used for the rotational entropy correction.

Note: Rotational entropy computed according to Herzberg
Infrared and Raman Spectra, Chapter V,1, Van Nostrand Reinhold, 1945
Point Group:  C1, Symmetry Number:   1
Rotational constants in cm-1:     0.076052     0.058817     0.033581

Vibrational entropy computed according to the QRRHO of S. Grimme
Chem.Eur.J. 2012 18 9955 using a reference frequency of 100.0 cm-1

-------
ENTROPY
-------

The entropy contributions are T*S = T*(S(el)+S(vib)+S(rot)+S(trans))
     S(el)   - electronic entropy
     S(vib)  - vibrational entropy
     S(rot)  - rotational entropy
     S(trans)- translational entropy
The entropies will be listed as multiplied by the temperature to get
units of energy

Electronic entropy                ...      0.00000000 Eh      0.00 kcal/mol
Vibrational entropy               ...      0.00938722 Eh      5.89 kcal/mol
Rotational entropy                ...      0.01366684 Eh      8.58 kcal/mol
Translational entropy             ...      0.01915481 Eh     12.02 kcal/mol
-----------------------------------------------------------------------
Final entropy term                ...      0.04220886 Eh     26.49 kcal/mol

In case the symmetry of your molecule has not been determined correctly
or in case you have a reason to use a different symmetry number we print
out the resulting rotational entropy values for sn=1,12:

 non-linear molecules -----------------------------------
|  sn= 1 | S(rot)=       0.01366684 Eh      8.58 kcal/mol|
|  sn= 2 | S(rot)=       0.01301238 Eh      8.17 kcal/mol|
|  sn= 3 | S(rot)=       0.01262955 Eh      7.93 kcal/mol|
|  sn= 4 | S(rot)=       0.01235792 Eh      7.75 kcal/mol|
|  sn= 5 | S(rot)=       0.01214724 Eh      7.62 kcal/mol|
|  sn= 6 | S(rot)=       0.01197509 Eh      7.51 kcal/mol|
|  sn= 7 | S(rot)=       0.01182954 Eh      7.42 kcal/mol|
|  sn= 8 | S(rot)=       0.01170347 Eh      7.34 kcal/mol|
|  sn= 9 | S(rot)=       0.01159226 Eh      7.27 kcal/mol|

                             ****ORCA TERMINATED NORMALLY****
TOTAL RUN TIME: 0 days 0 hours 16 minutes 53 seconds 930 msec
