                         Program Version 6.0.0  -   RELEASE  -
|  1> ! r2SCAN-3c DEF2-TZVP FREQ
|  2> * xyzfile 0 1 vacuum_censo.xyz
|  3>
|  4>                          ****END OF INPUT****

CARTESIAN COORDINATES (ANGSTROEM)
---------------------------------
  C     -2.515766    0.735854   -0.002228
  C     -1.228807   -0.035587   -0.022937
  C     -1.193777   -1.425996   -0.096948
  C      0.013092   -2.118733   -0.114063
  C      1.209178   -1.414340   -0.056326
  C      1.221640   -0.021117    0.018107
  C     -0.008194    0.648041    0.033174
  O     -0.083905    2.017603    0.103906
  C      2.510048    0.752851    0.080050
  H     -3.371993    0.058859   -0.054568
  H     -2.600428    1.337369    0.909687
  H     -2.570242    1.435210   -0.844004
  H     -2.132759   -1.970575   -0.141609
  H      0.020434   -3.201776   -0.172159
  H      2.155718   -1.947522   -0.069054
  H      0.806554    2.383055    0.141031
  H      3.365226    0.074250    0.062594
  H      2.622449    1.434993   -0.773671
  H      2.589803    1.347922    1.000014

 Total Charge           Charge          ....    0
 Multiplicity           Mult            ....    1
 Number of Electrons    NEL             ....   66
 Basis Dimension        Dim             ....  339

ORBITAL ENERGIES
----------------

  NO   OCC          E(Eh)            E(eV)
   0   2.0000     -18.984467      -516.5936
   1   2.0000     -10.086668      -274.4722
   2   2.0000     -10.043837      -273.3067
   3   2.0000     -10.041566      -273.2449
   4   2.0000     -10.035720      -273.0858
   5   2.0000     -10.029853      -272.9262
   6   2.0000     -10.027542      -272.8633
   7   2.0000     -10.024221      -272.7729
   8   2.0000     -10.022904      -272.7371
   9   2.0000      -1.024951       -27.8903
  10   2.0000      -0.818278       -22.2665
  11   2.0000      -0.752838       -20.4858
  12   2.0000      -0.717513       -19.5245
  13   2.0000      -0.663317       -18.0498
  14   2.0000      -0.644932       -17.5495
  15   2.0000      -0.573497       -15.6056
  16   2.0000      -0.547967       -14.9109
  17   2.0000      -0.504752       -13.7350
  18   2.0000      -0.454737       -12.3740
  19   2.0000      -0.431471       -11.7409
  20   2.0000      -0.411559       -11.1991
  21   2.0000      -0.393459       -10.7066
  22   2.0000      -0.385190       -10.4816
  23   2.0000      -0.377662       -10.2767
  24   2.0000      -0.373821       -10.1722
  25   2.0000      -0.357287        -9.7223
  26   2.0000      -0.346530        -9.4296
  27   2.0000      -0.343917        -9.3585
  28   2.0000      -0.314243        -8.5510
  29   2.0000      -0.305847        -8.3225
  30   2.0000      -0.301360        -8.2004
  31   2.0000      -0.220659        -6.0044
  32   2.0000      -0.198188        -5.3930
  33   0.0000      -0.024180        -0.6580
  34   0.0000      -0.015216        -0.4140
  35   0.0000       0.025414         0.6915
  36   0.0000       0.065530         1.7832
  37   0.0000       0.075423         2.0524

MULLIKEN ATOMIC CHARGES
-----------------------
   0 C :   -0.307345
   1 C :    0.028459
   2 C :   -0.162109
   3 C :   -0.126168
   4 C :   -0.171258
   5 C :    0.129867
   6 C :    0.144989
   7 O :   -0.402896
   8 C :   -0.454923
   9 H :    0.103429
  10 H :    0.114725
  11 H :    0.114806
  12 H :    0.095016
  13 H :    0.101056
  14 H :    0.094456
  15 H :    0.319060
  16 H :    0.119083
  17 H :    0.130366
  18 H :    0.129386
Sum of atomic charges:   -0.0000000

LOEWDIN ATOMIC CHARGES
----------------------
   0 C :   -0.250417
   1 C :   -0.157246
   2 C :   -0.123162
   3 C :   -0.159732
   4 C :   -0.128825
   5 C :   -0.173019
   6 C :   -0.212271
   7 O :    0.089701
   8 C :   -0.269163
   9 H :    0.124361
  10 H :    0.131172
  11 H :    0.131175
  12 H :    0.144042
  13 H :    0.141123
  14 H :    0.143228
  15 H :    0.183756
  16 H :    0.132505
  17 H :    0.126492
  18 H :    0.126280

  Mayer bond orders larger than 0.100000
B(  0-C ,  1-C ) :   0.9511 B(  0-C ,  9-H ) :   0.9835 B(  0-C , 10-H ) :   0.9583
B(  0-C , 11-H ) :   0.9584 B(  1-C ,  2-C ) :   1.3781 B(  1-C ,  6-C ) :   1.3397
B(  2-C ,  3-C ) :   1.3976 B(  2-C , 12-H ) :   0.9780 B(  3-C ,  4-C ) :   1.4154
B(  3-C , 13-H ) :   0.9805 B(  4-C ,  5-C ) :   1.3320 B(  4-C , 14-H ) :   0.9712
B(  5-C ,  6-C ) :   1.3007 B(  5-C ,  8-C ) :   0.8633 B(  6-C ,  7-O ) :   1.1763
B(  7-O , 15-H ) :   0.8764 B(  8-C , 16-H ) :   0.9748 B(  8-C , 17-H ) :   0.9733
B(  8-C , 18-H ) :   0.9731

Dispersion correction           -0.006226825
FINAL SINGLE POINT ENERGY      -386.036110829678

DIPOLE MOMENT
-------------

Method             : SCF
Type of density    : Electron Density
Multiplicity       :   1
Irrep              :   0
Energy             :  -386.0372203536521738 Eh
Relativity type    :
Basis              : AO
                                X                 Y                 Z
Electronic contribution:     -0.313500029      -0.809206816      -0.050725867
Nuclear contribution   :      0.856627476       1.025922326       0.072710591
                        -----------------------------------------
Total Dipole Moment    :      0.543127447       0.216715510       0.021984724
                        -----------------------------------------
Magnitude (a.u.)       :      0.585180625
Magnitude (Debye)      :      1.487410942

VIBRATIONAL FREQUENCIES
-----------------------

Scaling factor for frequencies =  1.000000000  (already applied!)

     0:       0.00 cm**-1
     1:       0.00 cm**-1
     2:       0.00 cm**-1
     3:       0.00 cm**-1
     4:       0.00 cm**-1
     5:       0.00 cm**-1
     6:     136.37 cm**-1
     7:     172.51 cm**-1
     8:     189.00 cm**-1
     9:     229.78 cm**-1
    10:     283.28 cm**-1
    11:     286.75 cm**-1
    12:     325.57 cm**-1
    13:     332.89 cm**-1
    14:     488.93 cm**-1
    15:     502.52 cm**-1
    16:     505.22 cm**-1
    17:     556.16 cm**-1
    18:     561.42 cm**-1
    19:     680.17 cm**-1
    20:     725.08 cm**-1
    21:     760.21 cm**-1
    22:     843.92 cm**-1
    23:     884.38 cm**-1
    24:     916.80 cm**-1
    25:     929.02 cm**-1
    26:    1003.33 cm**-1
    27:    1040.26 cm**-1
    28:    1046.85 cm**-1
    29:    1055.69 cm**-1
    30:    1112.49 cm**-1
    31:    1183.66 cm**-1
    32:    1219.88 cm**-1
    33:    1244.71 cm**-1
    34:    1287.36 cm**-1
    35:    1310.64 cm**-1
    36:    1371.80 cm**-1
    37:    1401.35 cm**-1
    38:    1405.21 cm**-1
    39:    1454.74 cm**-1
    40:    1471.38 cm**-1
    41:    1480.47 cm**-1
    42:    1482.54 cm**-1
    43:    1509.25 cm**-1
    44:    1518.06 cm**-1
    45:    1628.98 cm**-1
    46:    1648.44 cm**-1
    47:    2979.94 cm**-1
    48:    3006.08 cm**-1
    49:    3033.00 cm**-1
    50:    3065.66 cm**-1
    51:    3101.85 cm**-1
    52:    3103.34 cm**-1
    53:    3151.11 cm**-1
    54:    3156.08 cm**-1
    55:    3181.22 cm**-1
    56:    3810.81 cm**-1

IR SPECTRUM
-----------

 Mode   freq       eps      Int      T**2         TX        TY        TZ
       cm**-1   L/(mol*cm) km/mol    a.u.
----------------------------------------------------------------------------
  6:    136.37   0.000106    0.54  0.000243  (-0.000206 -0.001034  0.015540)
  7:    172.51   0.000000    0.00  0.000001  ( 0.000367 -0.000041  0.000835)
  8:    189.00   0.000319    1.61  0.000527  ( 0.000346  0.000744 -0.022937)
  9:    229.78   0.001032    5.21  0.001401  (-0.000586 -0.002004  0.037375)
 10:    283.28   0.000576    2.91  0.000634  (-0.000417 -0.002040  0.025101)
 11:    286.75   0.000252    1.27  0.000275  ( 0.004880  0.015757  0.001555)
 12:    325.57   0.000638    3.23  0.000612  ( 0.001965  0.023926  0.005962)
 13:    332.89   0.015559   78.63  0.014586  ( 0.002512  0.007878 -0.120487)
 14:    488.93   0.000651    3.29  0.000416  ( 0.005441  0.019618  0.001121)
 15:    502.52   0.000220    1.11  0.000137  ( 0.000456 -0.011654 -0.000846)
 16:    505.22   0.000096    0.48  0.000059  ( 0.000294  0.000975 -0.007629)
 17:    556.16   0.000007    0.04  0.000004  (-0.000033  0.000238 -0.002001)
 18:    561.42   0.000810    4.09  0.000450  ( 0.011292 -0.017949 -0.000781)
 19:    680.17   0.000406    2.05  0.000186  (-0.000118 -0.013622 -0.000751)
 20:    725.08   0.001047    5.29  0.000451  ( 0.000394  0.001142 -0.021198)
 21:    760.21   0.008763   44.28  0.003597  (-0.000976 -0.003413  0.059871)
 22:    843.92   0.002295   11.60  0.000849  ( 0.001552  0.029046  0.001585)
 23:    884.38   0.000000    0.00  0.000000  (-0.000108 -0.000117 -0.000012)
 24:    916.80   0.002364   11.94  0.000805  (-0.017174 -0.022529 -0.001431)
 25:    929.02   0.000199    1.01  0.000067  ( 0.000202  0.000368 -0.008169)
 26:   1003.33   0.000962    4.86  0.000299  ( 0.000315 -0.017269 -0.000919)
 27:   1040.26   0.003157   15.95  0.000947  (-0.014876  0.026912  0.001219)
 28:   1046.85   0.000301    1.52  0.000090  ( 0.000362  0.000931 -0.009416)
 29:   1055.69   0.000104    0.53  0.000031  (-0.000035  0.000346 -0.005542)
 30:   1112.49   0.005255   26.55  0.001474  ( 0.002608 -0.038254 -0.001957)
 31:   1183.66   0.000941    4.75  0.000248  (-0.004149  0.015175  0.000707)
 32:   1219.88   0.027178  137.35  0.006953  ( 0.018373 -0.081234 -0.003993)
 33:   1244.71   0.002197   11.10  0.000551  (-0.008858 -0.021694 -0.001295)
 34:   1287.36   0.007158   36.17  0.001735  (-0.005104  0.041291  0.002049)
 35:   1310.64   0.000853    4.31  0.000203  ( 0.013371 -0.004940 -0.000040)
 36:   1371.80   0.003400   17.18  0.000774  ( 0.000272  0.027773  0.001461)
 37:   1401.35   0.001111    5.62  0.000247  (-0.004969 -0.014901 -0.000880)
 38:   1405.21   0.000209    1.05  0.000046  ( 0.005805 -0.003549 -0.000159)
 39:   1454.74   0.005112   25.83  0.001097  (-0.003847 -0.032844 -0.001724)
 40:   1471.38   0.001681    8.50  0.000357  ( 0.000151  0.001207 -0.018844)
 41:   1480.47   0.000801    4.05  0.000169  ( 0.010983  0.006913 -0.000607)
 42:   1482.54   0.001418    7.16  0.000298  ( 0.000389 -0.000016  0.017271)
 43:   1509.25   0.010333   52.22  0.002137  ( 0.007552  0.045533  0.002509)
 44:   1518.06   0.003220   16.27  0.000662  (-0.016690  0.019568  0.000664)
 45:   1628.98   0.002989   15.10  0.000573  ( 0.003639  0.023616  0.001272)
 46:   1648.44   0.000075    0.38  0.000014  ( 0.000604  0.003705  0.000205)
 47:   2979.94   0.007595   38.38  0.000795  (-0.020296 -0.019533 -0.001372)
 48:   3006.08   0.006039   30.52  0.000627  (-0.022310  0.011363  0.000256)
 49:   3033.00   0.003722   18.81  0.000383  ( 0.000384  0.000930 -0.019543)
 50:   3065.66   0.002755   13.92  0.000280  (-0.000289 -0.000878  0.016720)
 51:   3101.85   0.003332   16.84  0.000335  ( 0.014292  0.011404  0.000962)
 52:   3103.34   0.002094   10.58  0.000211  (-0.010523  0.009987  0.000355)
 53:   3151.11   0.000226    1.14  0.000022  ( 0.003274 -0.003408 -0.000118)
 54:   3156.08   0.004317   21.82  0.000427  (-0.020653 -0.000402 -0.000349)
 55:   3181.22   0.003395   17.16  0.000333  ( 0.000092  0.018226  0.000940)
 56:   3810.81   0.010931   55.24  0.000895  (-0.022532 -0.019628 -0.001476)

--------------------------
THERMOCHEMISTRY AT 298.15K
--------------------------

Temperature         ...   298.15 K
Pressure            ...     1.00 atm
Total Mass          ...   122.17 AMU
Quasi RRHO          ...     True
Cut-Off Frequency   ...     1.00 cm^-1

Throughout the following assumptions are being made:
  (1) The electronic state is orbitally nondegenerate
  (2) There are no thermally accessible electronically excited states
  (3) Hindered rotations indicated by low frequency modes are not
      treated as such but are treated as vibrations and this may
      cause some error
  (4) All equations used are the standard statistical mechanics
      equations for an ideal gas
  (5) All vibrations are strictly harmonic

freq.     136.37  E(vib)   ...       0.42
freq.     172.51  E(vib)   ...       0.38
freq.     189.00  E(vib)   ...       0.36
freq.     229.78  E(vib)   ...       0.32
freq.     283.28  E(vib)   ...       0.28
freq.     286.75  E(vib)   ...       0.27
freq.     325.57  E(vib)   ...       0.24
freq.     332.89  E(vib)   ...       0.24
freq.     488.93  E(vib)   ...       0.15
freq.     502.52  E(vib)   ...       0.14
freq.     505.22  E(vib)   ...       0.14
freq.     556.16  E(vib)   ...       0.12
freq.     561.42  E(vib)   ...       0.11
freq.     680.17  E(vib)   ...       0.08
freq.     725.08  E(vib)   ...       0.06
freq.     760.21  E(vib)   ...       0.06
freq.     843.92  E(vib)   ...       0.04
freq.     884.38  E(vib)   ...       0.04
freq.     916.80  E(vib)   ...       0.03
freq.     929.02  E(vib)   ...       0.03
freq.    1003.33  E(vib)   ...       0.02
freq.    1040.26  E(vib)   ...       0.02
freq.    1046.85  E(vib)   ...       0.02
freq.    1055.69  E(vib)   ...       0.02
freq.    1112.49  E(vib)   ...       0.01
freq.    1183.66  E(vib)   ...       0.01
freq.    1219.88  E(vib)   ...       0.01
freq.    1244.71  E(vib)   ...       0.01
freq.    1287.36  E(vib)   ...       0.01
freq.    1310.64  E(vib)   ...       0.01
freq.    1371.80  E(vib)   ...       0.01
freq.    1401.35  E(vib)   ...       0.00
freq.    1405.21  E(vib)   ...       0.00
freq.    1454.74  E(vib)   ...       0.00
freq.    1471.38  E(vib)   ...       0.00
freq.    1480.47  E(vib)   ...       0.00
freq.    1482.54  E(vib)   ...       0.00
freq.    1509.25  E(vib)   ...       0.00
freq.    1518.06  E(vib)   ...       0.00
freq.    1628.98  E(vib)   ...       0.00
freq.    1648.44  E(vib)   ...       0.00
freq.    2979.94  E(vib)   ...       0.00
freq.    3006.08  E(vib)   ...       0.00
freq.    3033.00  E(vib)   ...       0.00
freq.    3065.66  E(vib)   ...       0.00
freq.    3101.85  E(vib)   ...       0.00
freq.    3103.34  E(vib)   ...       0.00
freq.    3151.11  E(vib)   ...       0.00
freq.    3156.08  E(vib)   ...       0.00
freq.    3181.22  E(vib)   ...       0.00
freq.    3810.81  E(vib)   ...       0.00

------------
INNER ENERGY
------------

The inner energy is: U= E(el) + E(ZPE) + E(vib) + E(rot) + E(trans)
    E(el)   - is the total energy from the electronic structure calculation
              = E(kin-el) + E(nuc-el) + E(el-el) + E(nuc-nuc)
    E(ZPE)  - the the zero temperature vibrational energy from the frequency calculation
    E(vib)  - the the finite temperature correction to E(ZPE) due to population
              of excited vibrational states
    E(rot)  - is the rotational thermal energy
    E(trans)- is the translational thermal energy

Summary of contributions to the inner energy U:
Electronic energy                ...   -386.03611083 Eh
Zero point energy                ...      0.15896180 Eh      99.75 kcal/mol
Thermal vibrational correction   ...      0.00587715 Eh       3.69 kcal/mol
Thermal rotational correction    ...      0.00141627 Eh       0.89 kcal/mol
Thermal translational correction ...      0.00141627 Eh       0.89 kcal/mol
-----------------------------------------------------------------------
Total thermal energy                   -385.86843934 Eh

Summary of corrections to the electronic energy:
(perhaps to be used in another calculation)
Total thermal correction                  0.00870969 Eh       5.47 kcal/mol
Non-thermal (ZPE) correction              0.15896180 Eh      99.75 kcal/mol
-----------------------------------------------------------------------
Total correction                          0.16767149 Eh     105.22 kcal/mol

--------
ENTHALPY
--------

The enthalpy is H = U + kB*T
                kB is Boltzmann's constant
Total thermal energy              ...   -385.86843934 Eh
Thermal Enthalpy correction       ...      0.00094421 Eh       0.59 kcal/mol
-----------------------------------------------------------------------
Total Enthalpy                    ...   -385.86749513 Eh

Note: Only C1 symmetry has been detected, increase convergence thresholds
      if your molecule has a higher symmetry. Symmetry factor of 1.0 is
      used for the rotational entropy correction.

Note: Rotational entropy computed according to Herzberg
Infrared and Raman Spectra, Chapter V,1, Van Nostrand Reinhold, 1945
Point Group:  C1, Symmetry Number:   1
Rotational constants in cm-1:     0.076211     0.058997     0.033672

Vibrational entropy computed according to the QRRHO of S. Grimme
Chem.Eur.J. 2012 18 9955 using a reference frequency of 100.0 cm-1

-------
ENTROPY
-------

The entropy contributions are T*S = T*(S(el)+S(vib)+S(rot)+S(trans))
     S(el)   - electronic entropy
     S(vib)  - vibrational entropy
     S(rot)  - rotational entropy
     S(trans)- translational entropy
The entropies will be listed as multiplied by the temperature to get
units of energy

Electronic entropy                ...      0.00000000 Eh      0.00 kcal/mol
Vibrational entropy               ...      0.00951494 Eh      5.97 kcal/mol
Rotational entropy                ...      0.01366314 Eh      8.57 kcal/mol
Translational entropy             ...      0.01915481 Eh     12.02 kcal/mol
-----------------------------------------------------------------------
Final entropy term                ...      0.04233288 Eh     26.56 kcal/mol

In case the symmetry of your molecule has not been determined correctly
or in case you have a reason to use a different symmetry number we print
out the resulting rotational entropy values for sn=1,12:

 non-linear molecules -----------------------------------
|  sn= 1 | S(rot)=       0.01366314 Eh      8.57 kcal/mol|
|  sn= 2 | S(rot)=       0.01300868 Eh      8.16 kcal/mol|
|  sn= 3 | S(rot)=       0.01262585 Eh      7.92 kcal/mol|
|  sn= 4 | S(rot)=       0.01235422 Eh      7.75 kcal/mol|
|  sn= 5 | S(rot)=       0.01214353 Eh      7.62 kcal/mol|
|  sn= 6 | S(rot)=       0.01197139 Eh      7.51 kcal/mol|
|  sn= 7 | S(rot)=       0.01182584 Eh      7.42 kcal/mol|
|  sn= 8 | S(rot)=       0.01169977 Eh      7.34 kcal/mol|
|  sn= 9 | S(rot)=       0.01158856 Eh      7.27 kcal/mol|

                             ****ORCA TERMINATED NORMALLY****
TOTAL RUN TIME: 0 days 0 hours 16 minutes 55 seconds 766 msec
