                         Program Version 6.0.1  -  RELEASE   -
|  1> ! pbe def2-sv(p) def2/J RI DEFGRID1 loosescf d4 GCP(DFT/SV(P)) printgap
|  2> %output
|  3>     printlevel normal
|  4> end
|  5> * xyz 0 1
|  6> C 0.7332325353 -1.1978407765 0.2311543555
|  7> C -0.7332177827 -1.1978341187 -0.2310512992
|  8> N -1.4437773606 2.28534e-05 0.1919912959
|  9> C -0.7331517156 1.1978608476 -0.2311217717
| 10> C 0.7332452249 1.1977905741 0.2312320227
| 11> N 1.4437287125 5.3058e-06 -0.1922023383
| 12> H 1.2602142564 -2.0711377162 -0.1585253397
| 13> H 0.77244051 -1.2298862392 1.3257399499
| 14> H -0.7723958146 -1.2301095726 -1.3256576903
| 15> H -1.2602114357 -2.0710652323 0.1587497239
| 16> H -1.5201825162 7.83656e-05 1.2062195845
| 17> H -0.7722772014 1.2300240215 -1.3257409469
| 18> H -1.2601845806 2.0711389588 0.1585333305
| 19> H 1.2602682005 2.071133103 -0.1582713424
| 20> H 0.7723323572 1.2297051766 1.3258340661
| 21> H 1.5193821407 7.5395e-06 -1.206490449
| 22> *
| 23>
| 24>                          ****END OF INPUT****

CARTESIAN COORDINATES (ANGSTROEM)
---------------------------------
  C      0.733233   -1.197841    0.231154
  C     -0.733218   -1.197834   -0.231051
  N     -1.443777    0.000023    0.191991
  C     -0.733152    1.197861   -0.231122
  C      0.733245    1.197791    0.231232
  N      1.443729    0.000005   -0.192202
  H      1.260214   -2.071138   -0.158525
  H      0.772441   -1.229886    1.325740
  H     -0.772396   -1.230110   -1.325658
  H     -1.260211   -2.071065    0.158750
  H     -1.520183    0.000078    1.206220
  H     -0.772277    1.230024   -1.325741
  H     -1.260185    2.071139    0.158533
  H      1.260268    2.071133   -0.158271
  H      0.772332    1.229705    1.325834
  H      1.519382    0.000008   -1.206490

 Total Charge           Charge          ....    0
 Multiplicity           Mult            ....    1
 Number of Electrons    NEL             ....   48
 Basis Dimension        Dim             ....  104

ORBITAL ENERGIES
----------------

  NO   OCC          E(Eh)            E(eV)
   0   2.0000     -13.969159      -380.1202
   1   2.0000     -13.969104      -380.1186
   2   2.0000      -9.904418      -269.5129
   3   2.0000      -9.904401      -269.5124
   4   2.0000      -9.904361      -269.5114
   5   2.0000      -9.904350      -269.5111
   6   2.0000      -0.847096       -23.0507
   7   2.0000      -0.790499       -21.5106
   8   2.0000      -0.679190       -18.4817
   9   2.0000      -0.587369       -15.9831
  10   2.0000      -0.567406       -15.4399
  11   2.0000      -0.532283       -14.4842
  12   2.0000      -0.458436       -12.4747
  13   2.0000      -0.408383       -11.1127
  14   2.0000      -0.405336       -11.0297
  15   2.0000      -0.398919       -10.8551
  16   2.0000      -0.383393       -10.4327
  17   2.0000      -0.348069        -9.4714
  18   2.0000      -0.339240        -9.2312
  19   2.0000      -0.310262        -8.4427
  20   2.0000      -0.300090        -8.1659
  21   2.0000      -0.295964        -8.0536
  22   2.0000      -0.208998        -5.6871
  23   2.0000      -0.148420        -4.0387
  24   0.0000       0.034759         0.9458
  25   0.0000       0.039618         1.0781
  26   0.0000       0.070451         1.9171
  27   0.0000       0.079163         2.1541
  28   0.0000       0.098825         2.6892

MULLIKEN ATOMIC CHARGES
-----------------------
   0 C :   -0.087073
   1 C :   -0.087136
   2 N :   -0.327762
   3 C :   -0.087155
   4 C :   -0.087059
   5 N :   -0.327752
   6 H :    0.083897
   7 H :    0.071497
   8 H :    0.071507
   9 H :    0.083890
  10 H :    0.191184
  11 H :    0.071514
  12 H :    0.083891
  13 H :    0.083894
  14 H :    0.071499
  15 H :    0.191163
Sum of atomic charges:   -0.0000000

LOEWDIN ATOMIC CHARGES
----------------------
   0 C :   -0.191739
   1 C :   -0.191740
   2 N :   -0.259615
   3 C :   -0.191734
   4 C :   -0.191740
   5 N :   -0.259609
   6 H :    0.111796
   7 H :    0.107910
   8 H :    0.107905
   9 H :    0.111796
  10 H :    0.203690
  11 H :    0.107906
  12 H :    0.111794
  13 H :    0.111794
  14 H :    0.107911
  15 H :    0.203674

  Mayer bond orders larger than 0.100000
B(  0-C ,  1-C ) :   1.0769 B(  0-C ,  5-N ) :   1.1010 B(  0-C ,  6-H ) :   0.9239
B(  0-C ,  7-H ) :   0.9122 B(  1-C ,  2-N ) :   1.1010 B(  1-C ,  8-H ) :   0.9123
B(  1-C ,  9-H ) :   0.9239 B(  2-N ,  3-C ) :   1.1010 B(  2-N , 10-H ) :   0.8801
B(  3-C ,  4-C ) :   1.0769 B(  3-C , 11-H ) :   0.9123 B(  3-C , 12-H ) :   0.9239
B(  4-C ,  5-N ) :   1.1010 B(  4-C , 13-H ) :   0.9239 B(  4-C , 14-H ) :   0.9122
B(  5-N , 15-H ) :   0.8801

Dispersion correction           -0.013018135
FINAL SINGLE POINT ENERGY      -267.288135166217

DIPOLE MOMENT
-------------

Method             : SCF
Type of density    : Electron Density
Multiplicity       :   1
Irrep              :   0
Energy             :  -267.3535466940294896 Eh
Relativity type    :
Basis              : AO
                                X                 Y                 Z
Electronic contribution:      0.000202549       0.000129312      -0.000078685
Nuclear contribution   :     -0.000576378      -0.000104541       0.000365561
                        -----------------------------------------
Total Dipole Moment    :     -0.000373830       0.000024771       0.000286876
                        -----------------------------------------
Magnitude (a.u.)       :      0.000471869
Magnitude (Debye)      :      0.001199395

Rotational constants in cm-1:             0.158958             0.151313             0.088718
Rotational constants in MHz :          4765.454985          4536.256747          2659.683937

                             ****ORCA TERMINATED NORMALLY****
TOTAL RUN TIME: 0 days 0 hours 0 minutes 17 seconds 47 msec
