                         Program Version 6.0.1  -  RELEASE   -
|  1> ! pbe def2-sv(p) def2/J RI DEFGRID1 loosescf d4 GCP(DFT/SV(P)) printgap
|  2> %output
|  3>     printlevel normal
|  4> end
|  5> * xyz 0 1
|  6> C -2.8858508406 -0.0659694536 -0.0056079022
|  7> C -1.3908603326 -0.0040600407 0.0023830074
|  8> C -0.7161904137 1.2126026661 0.0026830368
|  9> C 0.6664047108 1.2271273665 0.002098663
| 10> C 1.3545977895 0.0169092105 0.0007396351
| 11> N 0.7138470033 -1.145164799 0.002242647
| 12> C -0.6053991546 -1.1508609228 0.0032480659
| 13> C 2.8502772067 -0.0445749813 -0.0045471243
| 14> H -3.2745628494 0.3356352895 -0.9413552977
| 15> H -3.2308746184 -1.091393416 0.1005415349
| 16> H -3.2964884661 0.5296370555 0.8085368959
| 17> H -1.2735000028 2.1396750439 0.0040115342
| 18> H 1.2064223049 2.1624100004 0.0035330919
| 19> H -1.0624573456 -2.1332946599 0.0046897454
| 20> H 3.2834891157 0.950770255 0.0414702576
| 21> H 3.1977594292 -0.6300985742 0.84406228
| 22> H 3.1937473309 -0.544132003 -0.9085415703
| 23> *
| 24>
| 25>                          ****END OF INPUT****

CARTESIAN COORDINATES (ANGSTROEM)
---------------------------------
  C     -2.885851   -0.065969   -0.005608
  C     -1.390860   -0.004060    0.002383
  C     -0.716190    1.212603    0.002683
  C      0.666405    1.227127    0.002099
  C      1.354598    0.016909    0.000740
  N      0.713847   -1.145165    0.002243
  C     -0.605399   -1.150861    0.003248
  C      2.850277   -0.044575   -0.004547
  H     -3.274563    0.335635   -0.941355
  H     -3.230875   -1.091393    0.100542
  H     -3.296488    0.529637    0.808537
  H     -1.273500    2.139675    0.004012
  H      1.206422    2.162410    0.003533
  H     -1.062457   -2.133295    0.004690
  H      3.283489    0.950770    0.041470
  H      3.197759   -0.630099    0.844062
  H      3.193747   -0.544132   -0.908542

 Total Charge           Charge          ....    0
 Multiplicity           Mult            ....    1
 Number of Electrons    NEL             ....   58
 Basis Dimension        Dim             ....  130

ORBITAL ENERGIES
----------------

  NO   OCC          E(Eh)            E(eV)
   0   2.0000     -13.973727      -380.2444
   1   2.0000      -9.925620      -270.0899
   2   2.0000      -9.913094      -269.7490
   3   2.0000      -9.905660      -269.5467
   4   2.0000      -9.900661      -269.4107
   5   2.0000      -9.893432      -269.2140
   6   2.0000      -9.889750      -269.1138
   7   2.0000      -9.876839      -268.7625
   8   2.0000      -0.854251       -23.2454
   9   2.0000      -0.733363       -19.9558
  10   2.0000      -0.704572       -19.1724
  11   2.0000      -0.655346       -17.8329
  12   2.0000      -0.596384       -16.2284
  13   2.0000      -0.562290       -15.3007
  14   2.0000      -0.529492       -14.4082
  15   2.0000      -0.450874       -12.2689
  16   2.0000      -0.440738       -11.9931
  17   2.0000      -0.399503       -10.8710
  18   2.0000      -0.391628       -10.6567
  19   2.0000      -0.375707       -10.2235
  20   2.0000      -0.365195        -9.9375
  21   2.0000      -0.358194        -9.7470
  22   2.0000      -0.343316        -9.3421
  23   2.0000      -0.332171        -9.0388
  24   2.0000      -0.326129        -8.8744
  25   2.0000      -0.310081        -8.4377
  26   2.0000      -0.253404        -6.8955
  27   2.0000      -0.220072        -5.9885
  28   2.0000      -0.197865        -5.3842
  29   0.0000      -0.051396        -1.3986
  30   0.0000      -0.033747        -0.9183
  31   0.0000       0.047066         1.2807
  32   0.0000       0.057389         1.5616
  33   0.0000       0.075376         2.0511

MULLIKEN ATOMIC CHARGES
-----------------------
   0 C :   -0.222042
   1 C :   -0.013965
   2 C :   -0.050557
   3 C :   -0.085502
   4 C :   -0.084639
   5 N :   -0.059316
   6 C :   -0.105622
   7 C :   -0.183379
   8 H :    0.119072
   9 H :    0.107119
  10 H :    0.115268
  11 H :    0.046038
  12 H :    0.044707
  13 H :    0.051134
  14 H :    0.088311
  15 H :    0.116201
  16 H :    0.117173
Sum of atomic charges:    0.0000000

LOEWDIN ATOMIC CHARGES
----------------------
   0 C :   -0.322841
   1 C :   -0.073995
   2 C :   -0.097491
   3 C :   -0.139429
   4 C :   -0.020258
   5 N :   -0.075234
   6 C :   -0.085234
   7 C :   -0.330604
   8 H :    0.133924
   9 H :    0.126968
  10 H :    0.131890
  11 H :    0.123580
  12 H :    0.124617
  13 H :    0.110551
  14 H :    0.120029
  15 H :    0.136546
  16 H :    0.136981

  Mayer bond orders larger than 0.100000
B(  0-C ,  1-C ) :   1.0979 B(  0-C ,  8-H ) :   0.9344 B(  0-C ,  9-H ) :   0.9436
B(  0-C , 10-H ) :   0.9373 B(  1-C ,  2-C ) :   1.4114 B(  1-C ,  6-C ) :   1.3668
B(  2-C ,  3-C ) :   1.4110 B(  2-C , 11-H ) :   0.9581 B(  3-C ,  4-C ) :   1.3901
B(  3-C , 12-H ) :   0.9397 B(  4-C ,  5-N ) :   1.5028 B(  4-C ,  7-C ) :   1.1126
B(  5-N ,  6-C ) :   1.5571 B(  6-C , 13-H ) :   0.9478 B(  7-C , 14-H ) :   0.9418
B(  7-C , 15-H ) :   0.9306 B(  7-C , 16-H ) :   0.9295

Dispersion correction           -0.016167654
FINAL SINGLE POINT ENERGY      -326.185214741379

DIPOLE MOMENT
-------------

Method             : SCF
Type of density    : Electron Density
Multiplicity       :   1
Irrep              :   0
Energy             :  -326.2336288085890601 Eh
Relativity type    :
Basis              : AO
                                X                 Y                 Z
Electronic contribution:      0.782936871      -0.977160857       0.027032360
Nuclear contribution   :     -1.174861997       1.606628837      -0.040377292
                        -----------------------------------------
Total Dipole Moment    :     -0.391925126       0.629467980      -0.013344933
                        -----------------------------------------
Magnitude (a.u.)       :      0.741628835
Magnitude (Debye)      :      1.885070690

Rotational constants in cm-1:             0.186598             0.050021             0.040030
Rotational constants in MHz :          5594.075543          1499.582552          1200.071280

                             ****ORCA TERMINATED NORMALLY****
TOTAL RUN TIME: 0 days 0 hours 0 minutes 9 seconds 454 msec
