                         Program Version 6.0.1  -  RELEASE   -
|  1> ! r2scan-3c def2/J RI DEFGRID2 scfconv6 printgap
|  2> %output
|  3>     printlevel normal
|  4> end
|  5> * xyz 0 1
|  6> C -1.7913026591 0.7321741642 0.5764582372
|  7> C -0.7021792902 -0.3193648658 0.3646846044
|  8> C -1.0038322951 -1.1250321193 -0.8972742632
|  9> C 0.7021504072 0.3193198289 0.3646929672
| 10> C 1.7912492246 -0.7322586044 0.5764463352
| 11> C 1.0039168182 1.1251487168 -0.8971319699
| 12> H -2.7640788757 0.2531679279 0.6650453307
| 13> H -1.6072201614 1.3016737169 1.4849921645
| 14> H -1.8324956913 1.4243265235 -0.2610610763
| 15> H -0.7362784267 -1.006477879 1.2191710142
| 16> H -1.0824943043 -0.4729364159 -1.763279344
| 17> H -0.2311410197 -1.8655097949 -1.0858468382
| 18> H -1.9509027682 -1.6484429204 -0.7828750164
| 19> H 0.7362008727 1.0063184416 1.2192618496
| 20> H 1.6066058568 -1.3024261481 1.4844712696
| 21> H 1.8330205745 -1.423774218 -0.2615922092
| 22> H 2.7638988663 -0.2531548149 0.6660033597
| 23> H 1.0824669306 0.4731716641 -1.7632418177
| 24> H 1.9510650094 1.6484414566 -0.7826605227
| 25> H 0.2313268547 1.8657759447 -1.0855928124
| 26> *
| 27>
| 28>                          ****END OF INPUT****

CARTESIAN COORDINATES (ANGSTROEM)
---------------------------------
  C     -1.791303    0.732174    0.576458
  C     -0.702179   -0.319365    0.364685
  C     -1.003832   -1.125032   -0.897274
  C      0.702150    0.319320    0.364693
  C      1.791249   -0.732259    0.576446
  C      1.003917    1.125149   -0.897132
  H     -2.764079    0.253168    0.665045
  H     -1.607220    1.301674    1.484992
  H     -1.832496    1.424327   -0.261061
  H     -0.736278   -1.006478    1.219171
  H     -1.082494   -0.472936   -1.763279
  H     -0.231141   -1.865510   -1.085847
  H     -1.950903   -1.648443   -0.782875
  H      0.736201    1.006318    1.219262
  H      1.606606   -1.302426    1.484471
  H      1.833021   -1.423774   -0.261592
  H      2.763899   -0.253155    0.666003
  H      1.082467    0.473172   -1.763242
  H      1.951065    1.648441   -0.782661
  H      0.231327    1.865776   -1.085593

 Total Charge           Charge          ....    0
 Multiplicity           Mult            ....    1
 Number of Electrons    NEL             ....   50
 Basis Dimension        Dim             ....  184

ORBITAL ENERGIES
----------------

  NO   OCC          E(Eh)            E(eV)
   0   2.0000     -10.028759      -272.8964
   1   2.0000     -10.028643      -272.8932
   2   2.0000     -10.012142      -272.4442
   3   2.0000     -10.012134      -272.4440
   4   2.0000     -10.011904      -272.4378
   5   2.0000     -10.011899      -272.4376
   6   2.0000      -0.785301       -21.3691
   7   2.0000      -0.713283       -19.4094
   8   2.0000      -0.649747       -17.6805
   9   2.0000      -0.644633       -17.5414
  10   2.0000      -0.576345       -15.6831
  11   2.0000      -0.500529       -13.6201
  12   2.0000      -0.439389       -11.9564
  13   2.0000      -0.416365       -11.3299
  14   2.0000      -0.410442       -11.1687
  15   2.0000      -0.374363       -10.1869
  16   2.0000      -0.367160        -9.9909
  17   2.0000      -0.355222        -9.6661
  18   2.0000      -0.343616        -9.3503
  19   2.0000      -0.340353        -9.2615
  20   2.0000      -0.314110        -8.5474
  21   2.0000      -0.313151        -8.5213
  22   2.0000      -0.282109        -7.6766
  23   2.0000      -0.280159        -7.6235
  24   2.0000      -0.274726        -7.4757
  25   0.0000       0.079617         2.1665
  26   0.0000       0.118442         3.2230
  27   0.0000       0.119264         3.2453
  28   0.0000       0.126117         3.4318
  29   0.0000       0.132035         3.5929

MULLIKEN ATOMIC CHARGES
-----------------------
   0 C :   -0.506173
   1 C :   -0.023372
   2 C :   -0.514971
   3 C :   -0.023419
   4 C :   -0.506156
   5 C :   -0.514958
   6 H :    0.146567
   7 H :    0.145977
   8 H :    0.151235
   9 H :    0.146201
  10 H :    0.156849
  11 H :    0.151808
  12 H :    0.145888
  13 H :    0.146199
  14 H :    0.145965
  15 H :    0.151234
  16 H :    0.146585
  17 H :    0.156858
  18 H :    0.145886
  19 H :    0.151795
Sum of atomic charges:   -0.0000000

LOEWDIN ATOMIC CHARGES
----------------------
   0 C :   -0.416315
   1 C :   -0.243368
   2 C :   -0.415983
   3 C :   -0.243374
   4 C :   -0.416315
   5 C :   -0.415983
   6 H :    0.153003
   7 H :    0.152719
   8 H :    0.151627
   9 H :    0.156642
  10 H :    0.154212
  11 H :    0.153435
  12 H :    0.154025
  13 H :    0.156643
  14 H :    0.152724
  15 H :    0.151628
  16 H :    0.153006
  17 H :    0.154211
  18 H :    0.154032
  19 H :    0.153432

  Mayer bond orders larger than 0.100000
B(  0-C ,  1-C ) :   0.9173 B(  0-C ,  6-H ) :   0.9753 B(  0-C ,  7-H ) :   0.9786
B(  0-C ,  8-H ) :   0.9874 B(  1-C ,  2-C ) :   0.8770 B(  1-C ,  3-C ) :   0.8806
B(  1-C ,  9-H ) :   0.9754 B(  2-C , 10-H ) :   0.9784 B(  2-C , 11-H ) :   0.9811
B(  2-C , 12-H ) :   0.9689 B(  3-C ,  4-C ) :   0.9173 B(  3-C ,  5-C ) :   0.8770
B(  3-C , 13-H ) :   0.9754 B(  4-C , 14-H ) :   0.9786 B(  4-C , 15-H ) :   0.9874
B(  4-C , 16-H ) :   0.9753 B(  5-C , 17-H ) :   0.9784 B(  5-C , 18-H ) :   0.9689
B(  5-C , 19-H ) :   0.9811

Dispersion correction           -0.005320087
FINAL SINGLE POINT ENERGY      -236.988682804399

DIPOLE MOMENT
-------------

Method             : SCF
Type of density    : Electron Density
Multiplicity       :   1
Irrep              :   0
Energy             :  -236.9931733250444950 Eh
Relativity type    :
Basis              : AO
                                X                 Y                 Z
Electronic contribution:      0.000020736      -0.000109656       1.036432447
Nuclear contribution   :     -0.000024657       0.000143993      -0.982446744
                        -----------------------------------------
Total Dipole Moment    :     -0.000003921       0.000034337       0.053985703
                        -----------------------------------------
Magnitude (a.u.)       :      0.053985714
Magnitude (Debye)      :      0.137220780

Rotational constants in cm-1:             0.143805             0.084031             0.076589
Rotational constants in MHz :          4311.169770          2519.192550          2296.070090

                             ****ORCA TERMINATED NORMALLY****
TOTAL RUN TIME: 0 days 0 hours 0 minutes 13 seconds 534 msec
