                         Program Version 6.0.1  -  RELEASE   -
|  1> ! pbe def2-sv(p) def2/J RI DEFGRID1 loosescf d4 GCP(DFT/SV(P)) printgap
|  2> %output
|  3>     printlevel normal
|  4> end
|  5> * xyz 0 1
|  6> C 2.8312110386 0.6647345713 0.3673731309
|  7> C 1.9797723099 -0.4029155817 -0.3109802027
|  8> C 0.4957179205 -0.2228817218 -0.1474279504
|  9> C -0.3537183222 -1.3209526475 -0.2553468555
| 10> C -1.7201211341 -1.1485827093 -0.1244363296
| 11> C -2.1985432477 0.1307902177 0.1148945734
| 12> N -1.4085100793 1.1836679275 0.2204083385
| 13> C -0.1048461107 1.0093965421 0.0919430122
| 14> H 2.7103655127 1.6307247407 -0.1158371391
| 15> H 3.8817360611 0.3891409693 0.3090898202
| 16> H 2.5583659351 0.7626480795 1.4157122882
| 17> H 2.2520771579 -1.3854209105 0.0845373778
| 18> H 2.2075710726 -0.4154191586 -1.3823610976
| 19> H 0.0583087384 -2.304167843 -0.4403701165
| 20> H -2.3965194969 -1.9859348831 -0.2038507436
| 21> H -3.257172883 0.3250050615 0.2274161581
| 22> H 0.4828217073 1.9117391683 0.1884869194
| 23> *
| 24>
| 25>                          ****END OF INPUT****

CARTESIAN COORDINATES (ANGSTROEM)
---------------------------------
  C      2.831211    0.664735    0.367373
  C      1.979772   -0.402916   -0.310980
  C      0.495718   -0.222882   -0.147428
  C     -0.353718   -1.320953   -0.255347
  C     -1.720121   -1.148583   -0.124436
  C     -2.198543    0.130790    0.114895
  N     -1.408510    1.183668    0.220408
  C     -0.104846    1.009397    0.091943
  H      2.710366    1.630725   -0.115837
  H      3.881736    0.389141    0.309090
  H      2.558366    0.762648    1.415712
  H      2.252077   -1.385421    0.084537
  H      2.207571   -0.415419   -1.382361
  H      0.058309   -2.304168   -0.440370
  H     -2.396519   -1.985935   -0.203851
  H     -3.257173    0.325005    0.227416
  H      0.482822    1.911739    0.188487

 Total Charge           Charge          ....    0
 Multiplicity           Mult            ....    1
 Number of Electrons    NEL             ....   58
 Basis Dimension        Dim             ....  130

ORBITAL ENERGIES
----------------

  NO   OCC          E(Eh)            E(eV)
   0   2.0000     -13.975365      -380.2890
   1   2.0000      -9.916590      -269.8441
   2   2.0000      -9.915794      -269.8225
   3   2.0000      -9.910094      -269.6674
   4   2.0000      -9.905844      -269.5517
   5   2.0000      -9.901578      -269.4356
   6   2.0000      -9.899023      -269.3661
   7   2.0000      -9.884833      -268.9800
   8   2.0000      -0.855032       -23.2666
   9   2.0000      -0.741984       -20.1904
  10   2.0000      -0.704376       -19.1670
  11   2.0000      -0.661796       -18.0084
  12   2.0000      -0.586522       -15.9601
  13   2.0000      -0.559469       -15.2239
  14   2.0000      -0.532034       -14.4774
  15   2.0000      -0.468756       -12.7555
  16   2.0000      -0.438436       -11.9305
  17   2.0000      -0.414610       -11.2821
  18   2.0000      -0.402072       -10.9409
  19   2.0000      -0.390426       -10.6240
  20   2.0000      -0.358746        -9.7620
  21   2.0000      -0.353629        -9.6227
  22   2.0000      -0.347206        -9.4480
  23   2.0000      -0.324424        -8.8280
  24   2.0000      -0.318521        -8.6674
  25   2.0000      -0.303944        -8.2707
  26   2.0000      -0.256433        -6.9779
  27   2.0000      -0.231023        -6.2865
  28   2.0000      -0.197839        -5.3835
  29   0.0000      -0.052752        -1.4355
  30   0.0000      -0.040541        -1.1032
  31   0.0000       0.039260         1.0683
  32   0.0000       0.054056         1.4709
  33   0.0000       0.072632         1.9764

MULLIKEN ATOMIC CHARGES
-----------------------
   0 C :   -0.283123
   1 C :   -0.140196
   2 C :    0.004245
   3 C :   -0.063581
   4 C :   -0.065076
   5 C :   -0.063840
   6 N :   -0.047414
   7 C :   -0.117269
   8 H :    0.117513
   9 H :    0.106971
  10 H :    0.111473
  11 H :    0.092304
  12 H :    0.110020
  13 H :    0.052830
  14 H :    0.059951
  15 H :    0.067496
  16 H :    0.057695
Sum of atomic charges:   -0.0000000

LOEWDIN ATOMIC CHARGES
----------------------
   0 C :   -0.339332
   1 C :   -0.219721
   2 C :   -0.059409
   3 C :   -0.099478
   4 C :   -0.140811
   5 C :   -0.086728
   6 N :   -0.072293
   7 C :   -0.086901
   8 H :    0.121593
   9 H :    0.123343
  10 H :    0.123206
  11 H :    0.124851
  12 H :    0.133809
  13 H :    0.124241
  14 H :    0.127401
  15 H :    0.113132
  16 H :    0.113098

  Mayer bond orders larger than 0.100000
B(  0-C ,  1-C ) :   1.1770 B(  0-C ,  8-H ) :   0.9394 B(  0-C ,  9-H ) :   0.9479
B(  0-C , 10-H ) :   0.9562 B(  1-C ,  2-C ) :   1.0576 B(  1-C , 11-H ) :   0.9139
B(  1-C , 12-H ) :   0.8975 B(  2-C ,  3-C ) :   1.4187 B(  2-C ,  7-C ) :   1.3702
B(  3-C ,  4-C ) :   1.4200 B(  3-C , 13-H ) :   0.9560 B(  4-C ,  5-C ) :   1.3701
B(  4-C , 14-H ) :   0.9466 B(  5-C ,  6-N ) :   1.5564 B(  5-C , 15-H ) :   0.9530
B(  6-N ,  7-C ) :   1.5494 B(  7-C , 16-H ) :   0.9483

Dispersion correction           -0.016203732
FINAL SINGLE POINT ENERGY      -326.175656109702

DIPOLE MOMENT
-------------

Method             : SCF
Type of density    : Electron Density
Multiplicity       :   1
Irrep              :   0
Energy             :  -326.2252157740492748 Eh
Relativity type    :
Basis              : AO
                                X                 Y                 Z
Electronic contribution:     -7.438023641       0.273226638      -0.252185988
Nuclear contribution   :      7.964414715      -0.998930882       0.078910869
                        -----------------------------------------
Total Dipole Moment    :      0.526391074      -0.725704245      -0.173275119
                        -----------------------------------------
Magnitude (a.u.)       :      0.913103762
Magnitude (Debye)      :      2.320925316

Rotational constants in cm-1:             0.164137             0.050681             0.039700
Rotational constants in MHz :          4920.695852          1519.380152          1190.186238

                             ****ORCA TERMINATED NORMALLY****
TOTAL RUN TIME: 0 days 0 hours 0 minutes 14 seconds 515 msec
