                         Program Version 6.0.1  -  RELEASE   -
|  1> ! pbe def2-sv(p) def2/J RI DEFGRID1 loosescf d4 GCP(DFT/SV(P)) printgap
|  2> %output
|  3>     printlevel normal
|  4> end
|  5> * xyz 0 1
|  6> C -2.310547492 -0.9133273861 0.6780647662
|  7> C -0.8794413963 -0.3621500889 0.7907369841
|  8> H -0.7272690662 -0.0280328333 1.8287227409
|  9> C -0.660355813 0.8390578602 -0.1455551012
| 10> H -0.8888689867 0.524083723 -1.1737952381
| 11> C 0.8045649918 1.3284006395 -0.1037443912
| 12> H 0.8665167925 2.1447526144 0.6228815992
| 13> C 1.7788656516 0.2001863276 0.3153461555
| 14> H 2.7272953655 0.3724370564 -0.2037209152
| 15> C 1.2047426296 -1.1455726687 -0.146151848
| 16> H 1.8832536911 -1.9658276937 0.1352335758
| 17> O -0.0049881024 -1.4537389698 0.4955326629
| 18> O 1.054409502 -1.0825217968 -1.5388763438
| 19> O 2.0960783309 0.1796119689 1.677462844
| 20> O 1.1887085727 1.8748397748 -1.3335069453
| 21> O -1.4848604249 1.910224007 0.2425628507
| 22> O -2.6360832053 -1.2688775457 -0.6381027126
| 23> H -3.0271256034 -0.1510145288 0.9881235814
| 24> H -2.3977480371 -1.7771668481 1.3501841169
| 25> H 0.7543444422 -1.9378426305 -1.8680052333
| 26> H 1.3270683568 -0.0955898306 2.1892514565
| 27> H 1.1965083867 1.1635485196 -1.9880572649
| 28> H -2.3662220347 1.7819053022 -0.1233415264
| 29> H -1.9922277407 -1.9273259114 -0.9254986201
| 30> *
| 31>
| 32>                          ****END OF INPUT****

CARTESIAN COORDINATES (ANGSTROEM)
---------------------------------
  C     -2.310547   -0.913327    0.678065
  C     -0.879441   -0.362150    0.790737
  H     -0.727269   -0.028033    1.828723
  C     -0.660356    0.839058   -0.145555
  H     -0.888869    0.524084   -1.173795
  C      0.804565    1.328401   -0.103744
  H      0.866517    2.144753    0.622882
  C      1.778866    0.200186    0.315346
  H      2.727295    0.372437   -0.203721
  C      1.204743   -1.145573   -0.146152
  H      1.883254   -1.965828    0.135234
  O     -0.004988   -1.453739    0.495533
  O      1.054410   -1.082522   -1.538876
  O      2.096078    0.179612    1.677463
  O      1.188709    1.874840   -1.333507
  O     -1.484860    1.910224    0.242563
  O     -2.636083   -1.268878   -0.638103
  H     -3.027126   -0.151015    0.988124
  H     -2.397748   -1.777167    1.350184
  H      0.754344   -1.937843   -1.868005
  H      1.327068   -0.095590    2.189251
  H      1.196508    1.163549   -1.988057
  H     -2.366222    1.781905   -0.123342
  H     -1.992228   -1.927326   -0.925499

 Total Charge           Charge          ....    0
 Multiplicity           Mult            ....    1
 Number of Electrons    NEL             ....   96
 Basis Dimension        Dim             ....  192

ORBITAL ENERGIES
----------------

  NO   OCC          E(Eh)            E(eV)
   0   2.0000     -18.789524      -511.2889
   1   2.0000     -18.786289      -511.2009
   2   2.0000     -18.762389      -510.5505
   3   2.0000     -18.758483      -510.4443
   4   2.0000     -18.755438      -510.3614
   5   2.0000     -18.737229      -509.8659
   6   2.0000      -9.998266      -272.0666
   7   2.0000      -9.953332      -270.8439
   8   2.0000      -9.944251      -270.5968
   9   2.0000      -9.943806      -270.5847
  10   2.0000      -9.941699      -270.5274
  11   2.0000      -9.934719      -270.3374
  12   2.0000      -0.999582       -27.2000
  13   2.0000      -0.946885       -25.7660
  14   2.0000      -0.940291       -25.5866
  15   2.0000      -0.935011       -25.4429
  16   2.0000      -0.927237       -25.2314
  17   2.0000      -0.915290       -24.9063
  18   2.0000      -0.707809       -19.2605
  19   2.0000      -0.693597       -18.8737
  20   2.0000      -0.632505       -17.2113
  21   2.0000      -0.590082       -16.0570
  22   2.0000      -0.574718       -15.6389
  23   2.0000      -0.531621       -14.4661
  24   2.0000      -0.512707       -13.9515
  25   2.0000      -0.496159       -13.5012
  26   2.0000      -0.480540       -13.0762
  27   2.0000      -0.462800       -12.5934
  28   2.0000      -0.459818       -12.5123
  29   2.0000      -0.429220       -11.6797
  30   2.0000      -0.423124       -11.5138
  31   2.0000      -0.409137       -11.1332
  32   2.0000      -0.387022       -10.5314
  33   2.0000      -0.375099       -10.2070
  34   2.0000      -0.370115       -10.0713
  35   2.0000      -0.361781        -9.8446
  36   2.0000      -0.344672        -9.3790
  37   2.0000      -0.319121        -8.6837
  38   2.0000      -0.304570        -8.2878
  39   2.0000      -0.299674        -8.1545
  40   2.0000      -0.285066        -7.7571
  41   2.0000      -0.276859        -7.5337
  42   2.0000      -0.264305        -7.1921
  43   2.0000      -0.252928        -6.8825
  44   2.0000      -0.246771        -6.7150
  45   2.0000      -0.231811        -6.3079
  46   2.0000      -0.218136        -5.9358
  47   2.0000      -0.200176        -5.4471
  48   0.0000      -0.003185        -0.0867
  49   0.0000       0.012650         0.3442
  50   0.0000       0.023420         0.6373
  51   0.0000       0.050446         1.3727
  52   0.0000       0.062740         1.7072

MULLIKEN ATOMIC CHARGES
-----------------------
   0 C :    0.060665
   1 C :   -0.036561
   2 H :    0.050438
   3 C :    0.076375
   4 H :    0.038936
   5 C :    0.107219
   6 H :    0.075327
   7 C :    0.030552
   8 H :    0.087766
   9 C :    0.141767
  10 H :    0.075841
  11 O :   -0.320769
  12 O :   -0.400506
  13 O :   -0.407586
  14 O :   -0.425460
  15 O :   -0.405517
  16 O :   -0.430457
  17 H :    0.083517
  18 H :    0.088955
  19 H :    0.305728
  20 H :    0.304876
  21 H :    0.299539
  22 H :    0.309218
  23 H :    0.290136
Sum of atomic charges:   -0.0000000

LOEWDIN ATOMIC CHARGES
----------------------
   0 C :   -0.129401
   1 C :   -0.089222
   2 H :    0.100526
   3 C :   -0.081273
   4 H :    0.103234
   5 C :   -0.066751
   6 H :    0.125727
   7 C :   -0.087861
   8 H :    0.127043
   9 C :   -0.012095
  10 H :    0.102165
  11 O :   -0.155003
  12 O :   -0.313905
  13 O :   -0.301159
  14 O :   -0.310020
  15 O :   -0.309393
  16 O :   -0.329828
  17 H :    0.113126
  18 H :    0.105550
  19 H :    0.286337
  20 H :    0.281128
  21 H :    0.274810
  22 H :    0.290349
  23 H :    0.275917

  Mayer bond orders larger than 0.100000
B(  0-C ,  1-C ) :   1.0363 B(  0-C , 16-O ) :   1.0683 B(  0-C , 17-H ) :   0.9140
B(  0-C , 18-H ) :   0.9185 B(  1-C ,  2-H ) :   0.8583 B(  1-C ,  3-C ) :   1.0160
B(  1-C , 11-O ) :   0.9560 B(  3-C ,  4-H ) :   0.8431 B(  3-C ,  5-C ) :   1.0180
B(  3-C , 15-O ) :   1.0774 B(  5-C ,  6-H ) :   0.8607 B(  5-C ,  7-C ) :   0.9780
B(  5-C , 14-O ) :   1.0372 B(  7-C ,  8-H ) :   0.8840 B(  7-C ,  9-C ) :   1.0360
B(  7-C , 13-O ) :   1.0484 B(  9-C , 10-H ) :   0.8975 B(  9-C , 11-O ) :   1.0601
B(  9-C , 12-O ) :   1.0952 B( 12-O , 19-H ) :   0.8373 B( 13-O , 20-H ) :   0.8440
B( 14-O , 21-H ) :   0.8381 B( 15-O , 22-H ) :   0.8433 B( 16-O , 23-H ) :   0.8403

Dispersion correction           -0.025286368
FINAL SINGLE POINT ENERGY      -685.691376454078

DIPOLE MOMENT
-------------

Method             : SCF
Type of density    : Electron Density
Multiplicity       :   1
Irrep              :   0
Energy             :  -685.8233775363351015 Eh
Relativity type    :
Basis              : AO
                                X                 Y                 Z
Electronic contribution:      1.971135346       0.336816471      -0.945033142
Nuclear contribution   :     -2.477807484      -1.776475621       0.764316358
                        -----------------------------------------
Total Dipole Moment    :     -0.506672138      -1.439659150      -0.180716784
                        -----------------------------------------
Magnitude (a.u.)       :      1.536877900
Magnitude (Debye)      :      3.906433172

Rotational constants in cm-1:             0.040533             0.027337             0.023517
Rotational constants in MHz :          1215.154521           819.555591           705.029346

                             ****ORCA TERMINATED NORMALLY****
TOTAL RUN TIME: 0 days 0 hours 0 minutes 9 seconds 488 msec
