                         Program Version 6.0.1  -  RELEASE   -
|  1> ! pbe def2-sv(p) def2/J RI DEFGRID1 loosescf d4 GCP(DFT/SV(P)) printgap
|  2> %output
|  3>     printlevel normal
|  4> end
|  5> * xyz 0 1
|  6> C -2.7518021007 -0.1280256606 -0.152732296
|  7> O -1.4699740979 -0.458263426 -0.6754101063
|  8> C -0.4188368972 0.0017690005 0.0102188995
|  9> O -0.4947698599 0.6564646368 1.0085498226
| 10> C 0.8651447003 -0.4410319012 -0.6856910214
| 11> C 2.0503159633 0.0174301046 -0.0057687502
| 12> N 3.001822778 0.3700785875 0.5168151887
| 13> H -3.4771068227 -0.5715952612 -0.8293970311
| 14> H -2.8755374247 0.9556218064 -0.1114066953
| 15> H -2.8654796346 -0.5340857054 0.8540022311
| 16> H 0.8579076192 -0.0529281076 -1.7083510941
| 17> H 0.8734024378 -1.5336237857 -0.7369033249
| 18> *
| 19>
| 20>                          ****END OF INPUT****

CARTESIAN COORDINATES (ANGSTROEM)
---------------------------------
  C     -2.751802   -0.128026   -0.152732
  O     -1.469974   -0.458263   -0.675410
  C     -0.418837    0.001769    0.010219
  O     -0.494770    0.656465    1.008550
  C      0.865145   -0.441032   -0.685691
  C      2.050316    0.017430   -0.005769
  N      3.001823    0.370079    0.516815
  H     -3.477107   -0.571595   -0.829397
  H     -2.875537    0.955622   -0.111407
  H     -2.865480   -0.534086    0.854002
  H      0.857908   -0.052928   -1.708351
  H      0.873402   -1.533624   -0.736903

 Total Charge           Charge          ....    0
 Multiplicity           Mult            ....    1
 Number of Electrons    NEL             ....   52
 Basis Dimension        Dim             ....  108

ORBITAL ENERGIES
----------------

  NO   OCC          E(Eh)            E(eV)
   0   2.0000     -18.825735      -512.2743
   1   2.0000     -18.765537      -510.6362
   2   2.0000     -13.986748      -380.5988
   3   2.0000     -10.036610      -273.1100
   4   2.0000      -9.957366      -270.9537
   5   2.0000      -9.955991      -270.9163
   6   2.0000      -9.932583      -270.2793
   7   2.0000      -1.033039       -28.1104
   8   2.0000      -0.944948       -25.7133
   9   2.0000      -0.821749       -22.3609
  10   2.0000      -0.741205       -20.1692
  11   2.0000      -0.671839       -18.2817
  12   2.0000      -0.541767       -14.7422
  13   2.0000      -0.488957       -13.3052
  14   2.0000      -0.471669       -12.8348
  15   2.0000      -0.467912       -12.7325
  16   2.0000      -0.428516       -11.6605
  17   2.0000      -0.425065       -11.5666
  18   2.0000      -0.394369       -10.7313
  19   2.0000      -0.362009        -9.8508
  20   2.0000      -0.331474        -9.0199
  21   2.0000      -0.302024        -8.2185
  22   2.0000      -0.300166        -8.1679
  23   2.0000      -0.298685        -8.1276
  24   2.0000      -0.282720        -7.6932
  25   2.0000      -0.250911        -6.8276
  26   0.0000      -0.045634        -1.2418
  27   0.0000      -0.006104        -0.1661
  28   0.0000       0.001634         0.0445
  29   0.0000       0.028920         0.7870
  30   0.0000       0.051099         1.3905

MULLIKEN ATOMIC CHARGES
-----------------------
   0 C :   -0.114800
   1 O :   -0.242041
   2 C :    0.101397
   3 O :   -0.156127
   4 C :   -0.124717
   5 C :   -0.235429
   6 N :    0.079214
   7 H :    0.128293
   8 H :    0.126861
   9 H :    0.126709
  10 H :    0.155343
  11 H :    0.155297
Sum of atomic charges:    0.0000000

LOEWDIN ATOMIC CHARGES
----------------------
   0 C :   -0.202977
   1 O :   -0.077405
   2 C :    0.040677
   3 O :   -0.121889
   4 C :   -0.264468
   5 C :   -0.049751
   6 N :   -0.044369
   7 H :    0.124257
   8 H :    0.122902
   9 H :    0.122837
  10 H :    0.175095
  11 H :    0.175091

  Mayer bond orders larger than 0.100000
B(  0-C ,  1-O ) :   0.9359 B(  0-C ,  7-H ) :   0.9583 B(  0-C ,  8-H ) :   0.9515
B(  0-C ,  9-H ) :   0.9518 B(  1-O ,  2-C ) :   1.2143 B(  1-O ,  3-O ) :   0.1002
B(  2-C ,  3-O ) :   2.1221 B(  2-C ,  4-C ) :   0.9715 B(  4-C ,  5-C ) :   1.1616
B(  4-C , 10-H ) :   0.8594 B(  4-C , 11-H ) :   0.8593 B(  5-C ,  6-N ) :   3.0709

Dispersion correction           -0.008617909
FINAL SINGLE POINT ENERGY      -359.879868047253

DIPOLE MOMENT
-------------

Method             : SCF
Type of density    : Electron Density
Multiplicity       :   1
Irrep              :   0
Energy             :  -359.9227226473580572 Eh
Relativity type    :
Basis              : AO
                                X                 Y                 Z
Electronic contribution:      5.463831891       0.900808580       1.289591788
Nuclear contribution   :     -7.036524076      -1.624271615      -2.367731282
                        -----------------------------------------
Total Dipole Moment    :     -1.572692185      -0.723463035      -1.078139494
                        -----------------------------------------
Magnitude (a.u.)       :      2.039398009
Magnitude (Debye)      :      5.183737781

Rotational constants in cm-1:             0.317458             0.047565             0.042020
Rotational constants in MHz :          9517.140018          1425.955448          1259.736886

                             ****ORCA TERMINATED NORMALLY****
TOTAL RUN TIME: 0 days 0 hours 0 minutes 7 seconds 856 msec
