                         Program Version 6.0.1  -  RELEASE   -
|  1> ! r2scan-3c def2/J RI DEFGRID2 scfconv6 printgap
|  2> %output
|  3>     printlevel normal
|  4> end
|  5> * xyz 0 1
|  6> C -2.0229177961 -0.6000424212 -0.6826571982
|  7> C -1.2183373698 -0.0789012467 0.5364937553
|  8> H -1.8938083596 -0.0342584814 1.4042532497
|  9> C -0.6388325499 1.3257099908 0.2974643847
| 10> H -1.3774122774 1.9128509863 -0.2688952798
| 11> C 0.6744993613 1.2957543133 -0.5252966083
| 12> H 1.1132308606 2.2991005041 -0.4495544308
| 13> C 1.651961764 0.2791307845 0.0869199566
| 14> H 2.5039832816 0.14722318 -0.5893029704
| 15> C 0.9386491749 -1.0862565599 0.2046071071
| 16> H 1.572214579 -1.7767782079 0.7845228654
| 17> O -0.2395228906 -1.0161211119 0.9590029055
| 18> O 0.7254021559 -1.5780697571 -1.091274862
| 19> O 2.1677101519 0.695806906 1.3154003231
| 20> O 0.4312330125 1.0430227284 -1.8804760657
| 21> O -0.3318628715 1.9604476241 1.5220106367
| 22> O -2.02720642 -2.0067019937 -0.7343471074
| 23> H -1.5800885847 -0.2632505209 -1.620848937
| 24> H -3.0474254983 -0.2085212886 -0.6217933075
| 25> H -0.0510570439 -2.1652102424 -1.0749943245
| 26> H 1.4398756642 1.0649749645 1.8381814621
| 27> H 0.5452716262 0.0882661059 -2.0283608588
| 28> H -1.1345141712 2.0666654439 2.0446201888
| 29> H -2.2822742664 -2.3491584613 0.1312657984
| 30> *
| 31>
| 32>                          ****END OF INPUT****

CARTESIAN COORDINATES (ANGSTROEM)
---------------------------------
  C     -2.022918   -0.600042   -0.682657
  C     -1.218337   -0.078901    0.536494
  H     -1.893808   -0.034258    1.404253
  C     -0.638833    1.325710    0.297464
  H     -1.377412    1.912851   -0.268895
  C      0.674499    1.295754   -0.525297
  H      1.113231    2.299101   -0.449554
  C      1.651962    0.279131    0.086920
  H      2.503983    0.147223   -0.589303
  C      0.938649   -1.086257    0.204607
  H      1.572215   -1.776778    0.784523
  O     -0.239523   -1.016121    0.959003
  O      0.725402   -1.578070   -1.091275
  O      2.167710    0.695807    1.315400
  O      0.431233    1.043023   -1.880476
  O     -0.331863    1.960448    1.522011
  O     -2.027206   -2.006702   -0.734347
  H     -1.580089   -0.263251   -1.620849
  H     -3.047425   -0.208521   -0.621793
  H     -0.051057   -2.165210   -1.074994
  H      1.439876    1.064975    1.838181
  H      0.545272    0.088266   -2.028361
  H     -1.134514    2.066665    2.044620
  H     -2.282274   -2.349158    0.131266

 Total Charge           Charge          ....    0
 Multiplicity           Mult            ....    1
 Number of Electrons    NEL             ....   96
 Basis Dimension        Dim             ....  318

ORBITAL ENERGIES
----------------

  NO   OCC          E(Eh)            E(eV)
   0   2.0000     -18.981830      -516.5219
   1   2.0000     -18.979710      -516.4642
   2   2.0000     -18.978296      -516.4257
   3   2.0000     -18.967617      -516.1351
   4   2.0000     -18.948374      -515.6115
   5   2.0000     -18.945260      -515.5267
   6   2.0000     -10.135792      -275.8089
   7   2.0000     -10.107204      -275.0310
   8   2.0000     -10.104190      -274.9490
   9   2.0000     -10.095873      -274.7227
  10   2.0000     -10.091722      -274.6097
  11   2.0000     -10.086249      -274.4608
  12   2.0000      -1.059656       -28.8347
  13   2.0000      -1.022254       -27.8169
  14   2.0000      -1.014476       -27.6053
  15   2.0000      -0.995692       -27.0942
  16   2.0000      -0.987432       -26.8694
  17   2.0000      -0.980559       -26.6824
  18   2.0000      -0.759762       -20.6742
  19   2.0000      -0.732452       -19.9310
  20   2.0000      -0.672626       -18.3031
  21   2.0000      -0.627083       -17.0638
  22   2.0000      -0.614943       -16.7335
  23   2.0000      -0.551975       -15.0200
  24   2.0000      -0.536081       -14.5875
  25   2.0000      -0.517360       -14.0781
  26   2.0000      -0.500205       -13.6113
  27   2.0000      -0.483944       -13.1688
  28   2.0000      -0.462634       -12.5889
  29   2.0000      -0.452492       -12.3129
  30   2.0000      -0.439072       -11.9478
  31   2.0000      -0.431015       -11.7285
  32   2.0000      -0.426024       -11.5927
  33   2.0000      -0.401310       -10.9202
  34   2.0000      -0.385472       -10.4892
  35   2.0000      -0.380027       -10.3411
  36   2.0000      -0.375532       -10.2187
  37   2.0000      -0.361405        -9.8343
  38   2.0000      -0.342936        -9.3318
  39   2.0000      -0.322248        -8.7688
  40   2.0000      -0.308800        -8.4029
  41   2.0000      -0.295591        -8.0434
  42   2.0000      -0.276066        -7.5121
  43   2.0000      -0.270499        -7.3607
  44   2.0000      -0.268708        -7.3119
  45   2.0000      -0.254055        -6.9132
  46   2.0000      -0.236336        -6.4310
  47   2.0000      -0.222860        -6.0643
  48   0.0000       0.023405         0.6369
  49   0.0000       0.032727         0.8906
  50   0.0000       0.060513         1.6466
  51   0.0000       0.073530         2.0008
  52   0.0000       0.077567         2.1107

MULLIKEN ATOMIC CHARGES
-----------------------
   0 C :   -0.211263
   1 C :   -0.011170
   2 H :    0.140231
   3 C :   -0.101776
   4 H :    0.154775
   5 C :    0.016834
   6 H :    0.168711
   7 C :   -0.153971
   8 H :    0.170583
   9 C :    0.029263
  10 H :    0.142830
  11 O :   -0.208220
  12 O :   -0.429753
  13 O :   -0.395615
  14 O :   -0.416794
  15 O :   -0.404912
  16 O :   -0.429486
  17 H :    0.189232
  18 H :    0.139148
  19 H :    0.335563
  20 H :    0.337820
  21 H :    0.334412
  22 H :    0.293033
  23 H :    0.310523
Sum of atomic charges:    0.0000000

LOEWDIN ATOMIC CHARGES
----------------------
   0 C :    0.021073
   1 C :    0.095437
   2 H :    0.190440
   3 C :    0.110629
   4 H :    0.186122
   5 C :    0.122291
   6 H :    0.201053
   7 C :    0.122129
   8 H :    0.202408
   9 C :    0.296023
  10 H :    0.203853
  11 O :   -0.655437
  12 O :   -0.542252
  13 O :   -0.550367
  14 O :   -0.582568
  15 O :   -0.596713
  16 O :   -0.598401
  17 H :    0.199723
  18 H :    0.166691
  19 H :    0.293248
  20 H :    0.284451
  21 H :    0.284385
  22 H :    0.272364
  23 H :    0.273415

  Mayer bond orders larger than 0.100000
B(  0-C ,  1-C ) :   0.8881 B(  0-C , 16-O ) :   0.9555 B(  0-C , 17-H ) :   0.9661
B(  0-C , 18-H ) :   0.9592 B(  1-C ,  2-H ) :   0.9407 B(  1-C ,  3-C ) :   0.9166
B(  1-C , 11-O ) :   0.9587 B(  3-C ,  4-H ) :   0.9615 B(  3-C ,  5-C ) :   0.8522
B(  3-C , 15-O ) :   0.8918 B(  5-C ,  6-H ) :   0.9755 B(  5-C ,  7-C ) :   0.8962
B(  5-C , 14-O ) :   0.9955 B(  7-C ,  8-H ) :   0.9827 B(  7-C ,  9-C ) :   0.9104
B(  7-C , 13-O ) :   1.0204 B(  9-C , 10-H ) :   0.9423 B(  9-C , 11-O ) :   0.9776
B(  9-C , 12-O ) :   0.8936 B( 12-O , 19-H ) :   0.8327 B( 13-O , 20-H ) :   0.8334
B( 14-O , 21-H ) :   0.8210 B( 15-O , 22-H ) :   0.8988 B( 16-O , 23-H ) :   0.8849

Dispersion correction           -0.008832875
FINAL SINGLE POINT ENERGY      -687.073037503365

DIPOLE MOMENT
-------------

Method             : SCF
Type of density    : Electron Density
Multiplicity       :   1
Irrep              :   0
Energy             :  -687.0863992801225777 Eh
Relativity type    :
Basis              : AO
                                X                 Y                 Z
Electronic contribution:      2.320934474      -0.837437833       1.104642227
Nuclear contribution   :     -3.922061402       0.720201975      -0.421689063
                        -----------------------------------------
Total Dipole Moment    :     -1.601126927      -0.117235858       0.682953164
                        -----------------------------------------
Magnitude (a.u.)       :      1.744642287
Magnitude (Debye)      :      4.434528275

Rotational constants in cm-1:             0.043274             0.029274             0.026123
Rotational constants in MHz :          1297.315295           877.623695           783.137442

                             ****ORCA TERMINATED NORMALLY****
TOTAL RUN TIME: 0 days 0 hours 0 minutes 48 seconds 753 msec
