                         Program Version 6.0.1  -  RELEASE   -
|  1> ! pbe def2-sv(p) def2/J RI DEFGRID1 loosescf d4 GCP(DFT/SV(P)) printgap
|  2> %output
|  3>     printlevel normal
|  4> end
|  5> * xyz 0 1
|  6> C -2.3693136469 -1.1959778236 -0.3113409812
|  7> C -1.0572149954 -0.6329601321 0.2434838197
|  8> H -1.1114000627 -0.6126288277 1.3444005513
|  9> C -0.7884247178 0.7973701647 -0.2520672638
| 10> H -0.8195318218 0.8019883867 -1.3556321552
| 11> C 0.6115964253 1.2292005259 0.1992995305
| 12> H 0.6098602382 1.3030112812 1.2997111647
| 13> C 1.6627935633 0.1985624551 -0.2227987019
| 14> H 1.6931299484 0.1628373701 -1.3263958849
| 15> C 1.2517838856 -1.1916315501 0.3002397558
| 16> H 1.2597998969 -1.1806771666 1.400579682
| 17> O -0.0434402287 -1.5095415269 -0.1864734561
| 18> O 2.1034004088 -2.1974004963 -0.0796154242
| 19> O 2.9215837591 0.5270622517 0.2918724404
| 20> O 0.9721086071 2.4701145604 -0.3591617361
| 21> O -1.7005390355 1.7336714558 0.2646676843
| 22> O -3.4481380583 -0.4174486737 0.1644194285
| 23> H -2.4550092192 -2.2381634483 0.0155025321
| 24> H -2.3259255442 -1.1762870103 -1.4081102649
| 25> H 2.1411030672 -2.2331415554 -1.0437575806
| 26> H 3.0612239645 1.4672544165 0.1178504154
| 27> H 0.2245985398 3.0657184003 -0.2258866695
| 28> H -2.5729045095 1.3144254158 0.2945814913
| 29> H -4.275034635 -0.8221407541 -0.1175108553
| 30> *
| 31>
| 32>                          ****END OF INPUT****

CARTESIAN COORDINATES (ANGSTROEM)
---------------------------------
  C     -2.369314   -1.195978   -0.311341
  C     -1.057215   -0.632960    0.243484
  H     -1.111400   -0.612629    1.344401
  C     -0.788425    0.797370   -0.252067
  H     -0.819532    0.801988   -1.355632
  C      0.611596    1.229201    0.199300
  H      0.609860    1.303011    1.299711
  C      1.662794    0.198562   -0.222799
  H      1.693130    0.162837   -1.326396
  C      1.251784   -1.191632    0.300240
  H      1.259800   -1.180677    1.400580
  O     -0.043440   -1.509542   -0.186473
  O      2.103400   -2.197400   -0.079615
  O      2.921584    0.527062    0.291872
  O      0.972109    2.470115   -0.359162
  O     -1.700539    1.733671    0.264668
  O     -3.448138   -0.417449    0.164419
  H     -2.455009   -2.238163    0.015503
  H     -2.325926   -1.176287   -1.408110
  H      2.141103   -2.233142   -1.043758
  H      3.061224    1.467254    0.117850
  H      0.224599    3.065718   -0.225887
  H     -2.572905    1.314425    0.294581
  H     -4.275035   -0.822141   -0.117511

 Total Charge           Charge          ....    0
 Multiplicity           Mult            ....    1
 Number of Electrons    NEL             ....   96
 Basis Dimension        Dim             ....  192

ORBITAL ENERGIES
----------------

  NO   OCC          E(Eh)            E(eV)
   0   2.0000     -18.785995      -511.1929
   1   2.0000     -18.773339      -510.8485
   2   2.0000     -18.755444      -510.3616
   3   2.0000     -18.752620      -510.2847
   4   2.0000     -18.746683      -510.1232
   5   2.0000     -18.742785      -510.0171
   6   2.0000      -9.984552      -271.6935
   7   2.0000      -9.951679      -270.7990
   8   2.0000      -9.951167      -270.7850
   9   2.0000      -9.940162      -270.4856
  10   2.0000      -9.937729      -270.4194
  11   2.0000      -9.936415      -270.3836
  12   2.0000      -0.983673       -26.7671
  13   2.0000      -0.958759       -26.0892
  14   2.0000      -0.943273       -25.6678
  15   2.0000      -0.927823       -25.2473
  16   2.0000      -0.915690       -24.9172
  17   2.0000      -0.910946       -24.7881
  18   2.0000      -0.704326       -19.1657
  19   2.0000      -0.694968       -18.9110
  20   2.0000      -0.623165       -16.9572
  21   2.0000      -0.578619       -15.7450
  22   2.0000      -0.560102       -15.2412
  23   2.0000      -0.536435       -14.5971
  24   2.0000      -0.514344       -13.9960
  25   2.0000      -0.494521       -13.4566
  26   2.0000      -0.473656       -12.8888
  27   2.0000      -0.462460       -12.5842
  28   2.0000      -0.443203       -12.0602
  29   2.0000      -0.434766       -11.8306
  30   2.0000      -0.415178       -11.2976
  31   2.0000      -0.407030       -11.0758
  32   2.0000      -0.401901       -10.9363
  33   2.0000      -0.386667       -10.5217
  34   2.0000      -0.352996        -9.6055
  35   2.0000      -0.350418        -9.5354
  36   2.0000      -0.331515        -9.0210
  37   2.0000      -0.321402        -8.7458
  38   2.0000      -0.310538        -8.4502
  39   2.0000      -0.306514        -8.3407
  40   2.0000      -0.283752        -7.7213
  41   2.0000      -0.269482        -7.3330
  42   2.0000      -0.249987        -6.8025
  43   2.0000      -0.242422        -6.5966
  44   2.0000      -0.236988        -6.4488
  45   2.0000      -0.222541        -6.0556
  46   2.0000      -0.211995        -5.7687
  47   2.0000      -0.209937        -5.7127
  48   0.0000      -0.001284        -0.0349
  49   0.0000       0.030962         0.8425
  50   0.0000       0.034598         0.9415
  51   0.0000       0.050487         1.3738
  52   0.0000       0.060973         1.6592

MULLIKEN ATOMIC CHARGES
-----------------------
   0 C :    0.074820
   1 C :   -0.021288
   2 H :    0.064805
   3 C :    0.045152
   4 H :    0.045461
   5 C :    0.058749
   6 H :    0.054162
   7 C :    0.043851
   8 H :    0.037550
   9 C :    0.203372
  10 H :    0.055519
  11 O :   -0.308373
  12 O :   -0.358958
  13 O :   -0.406635
  14 O :   -0.427027
  15 O :   -0.436526
  16 O :   -0.446504
  17 H :    0.095625
  18 H :    0.076581
  19 H :    0.300819
  20 H :    0.309335
  21 H :    0.313607
  22 H :    0.307479
  23 H :    0.318423
Sum of atomic charges:   -0.0000000

LOEWDIN ATOMIC CHARGES
----------------------
   0 C :   -0.121230
   1 C :   -0.068709
   2 H :    0.107200
   3 C :   -0.079818
   4 H :    0.099422
   5 C :   -0.078927
   6 H :    0.104371
   7 C :   -0.088968
   8 H :    0.096849
   9 C :    0.009448
  10 H :    0.102457
  11 O :   -0.153597
  12 O :   -0.273133
  13 O :   -0.314442
  14 O :   -0.326310
  15 O :   -0.335214
  16 O :   -0.333481
  17 H :    0.109318
  18 H :    0.102693
  19 H :    0.287910
  20 H :    0.288283
  21 H :    0.291713
  22 H :    0.276207
  23 H :    0.297956

  Mayer bond orders larger than 0.100000
B(  0-C ,  1-C ) :   1.0591 B(  0-C , 16-O ) :   1.0433 B(  0-C , 17-H ) :   0.9186
B(  0-C , 18-H ) :   0.9074 B(  1-C ,  2-H ) :   0.8740 B(  1-C ,  3-C ) :   1.0172
B(  1-C , 11-O ) :   1.0048 B(  3-C ,  4-H ) :   0.8642 B(  3-C ,  5-C ) :   1.0121
B(  3-C , 15-O ) :   1.0793 B(  5-C ,  6-H ) :   0.8740 B(  5-C ,  7-C ) :   1.0203
B(  5-C , 14-O ) :   1.0760 B(  7-C ,  8-H ) :   0.8560 B(  7-C ,  9-C ) :   0.9937
B(  7-C , 13-O ) :   1.0928 B(  9-C , 10-H ) :   0.8785 B(  9-C , 11-O ) :   0.9809
B(  9-C , 12-O ) :   1.1743 B( 12-O , 19-H ) :   0.8450 B( 13-O , 20-H ) :   0.8373
B( 14-O , 21-H ) :   0.8353 B( 15-O , 22-H ) :   0.8040 B( 16-O , 22-H ) :   0.1066
B( 16-O , 23-H ) :   0.8415

Dispersion correction           -0.023826330
FINAL SINGLE POINT ENERGY      -685.702071511639

DIPOLE MOMENT
-------------

Method             : SCF
Type of density    : Electron Density
Multiplicity       :   1
Irrep              :   0
Energy             :  -685.8336227947803536 Eh
Relativity type    :
Basis              : AO
                                X                 Y                 Z
Electronic contribution:      2.705113587       0.014759492       0.290834559
Nuclear contribution   :     -4.275596702      -0.129680459      -0.941131217
                        -----------------------------------------
Total Dipole Moment    :     -1.570483115      -0.114920967      -0.650296658
                        -----------------------------------------
Magnitude (a.u.)       :      1.703675376
Magnitude (Debye)      :      4.330398663

Rotational constants in cm-1:             0.043851             0.024638             0.016478
Rotational constants in MHz :          1314.622105           738.622213           494.006446

                             ****ORCA TERMINATED NORMALLY****
TOTAL RUN TIME: 0 days 0 hours 18 minutes 48 seconds 746 msec
