                         Program Version 6.0.1  -  RELEASE   -
|  1> ! r2scan-3c def2/J RI DEFGRID2 scfconv6 printgap
|  2> %output
|  3>     printlevel normal
|  4> end
|  5> * xyz 0 1
|  6> C -1.5900997156 0.1456827918 -0.5045209001
|  7> C -0.6710424957 -0.492357565 0.5314263494
|  8> C 0.6890496263 0.2171090676 0.63347452
|  9> N 1.533138913 0.1317613969 -0.5437201428
| 10> H -1.1633147791 0.0756112994 -1.5035306827
| 11> H -2.5549835027 -0.3560401607 -0.5169843534
| 12> H -1.751538873 1.1965533641 -0.2725931612
| 13> H -0.5075234437 -1.5434998574 0.2770907101
| 14> H -1.1523068676 -0.4586533021 1.5107816518
| 15> H 0.5297643629 1.2779411504 0.8461002398
| 16> H 1.2528263809 -0.2129567563 1.4668222086
| 17> H 1.6965234992 -0.8403242783 -0.7860147423
| 18> H 1.0790552829 0.5743076545 -1.3352931492
| 19> *
| 20>
| 21>                          ****END OF INPUT****

CARTESIAN COORDINATES (ANGSTROEM)
---------------------------------
  C     -1.590100    0.145683   -0.504521
  C     -0.671042   -0.492358    0.531426
  C      0.689050    0.217109    0.633475
  N      1.533139    0.131761   -0.543720
  H     -1.163315    0.075611   -1.503531
  H     -2.554984   -0.356040   -0.516984
  H     -1.751539    1.196553   -0.272593
  H     -0.507523   -1.543500    0.277091
  H     -1.152307   -0.458653    1.510782
  H      0.529764    1.277941    0.846100
  H      1.252826   -0.212957    1.466822
  H      1.696523   -0.840324   -0.786015
  H      1.079055    0.574308   -1.335293

 Total Charge           Charge          ....    0
 Multiplicity           Mult            ....    1
 Number of Electrons    NEL             ....   34
 Basis Dimension        Dim             ....  126

ORBITAL ENERGIES
----------------

  NO   OCC          E(Eh)            E(eV)
   0   2.0000     -14.133603      -384.5949
   1   2.0000     -10.047038      -273.3938
   2   2.0000     -10.023701      -272.7588
   3   2.0000     -10.019169      -272.6354
   4   2.0000      -0.846766       -23.0417
   5   2.0000      -0.730218       -19.8703
   6   2.0000      -0.631929       -17.1957
   7   2.0000      -0.549741       -14.9592
   8   2.0000      -0.463678       -12.6173
   9   2.0000      -0.422813       -11.5053
  10   2.0000      -0.405335       -11.0297
  11   2.0000      -0.381747       -10.3879
  12   2.0000      -0.350061        -9.5256
  13   2.0000      -0.324298        -8.8246
  14   2.0000      -0.306839        -8.3495
  15   2.0000      -0.302235        -8.2242
  16   2.0000      -0.202714        -5.5161
  17   0.0000       0.075390         2.0515
  18   0.0000       0.117580         3.1995
  19   0.0000       0.118442         3.2230
  20   0.0000       0.138386         3.7657
  21   0.0000       0.141851         3.8600

MULLIKEN ATOMIC CHARGES
-----------------------
   0 C :   -0.487908
   1 C :   -0.191566
   2 C :   -0.249230
   3 N :   -0.548806
   4 H :    0.138598
   5 H :    0.148743
   6 H :    0.144441
   7 H :    0.130000
   8 H :    0.133064
   9 H :    0.147005
  10 H :    0.148921
  11 H :    0.240234
  12 H :    0.246505
Sum of atomic charges:    0.0000000

LOEWDIN ATOMIC CHARGES
----------------------
   0 C :   -0.431311
   1 C :   -0.314236
   2 C :   -0.086353
   3 N :   -0.733696
   4 H :    0.145935
   5 H :    0.152383
   6 H :    0.151168
   7 H :    0.150421
   8 H :    0.152831
   9 H :    0.171647
  10 H :    0.172605
  11 H :    0.234212
  12 H :    0.234394

  Mayer bond orders larger than 0.100000
B(  0-C ,  1-C ) :   0.8947 B(  0-C ,  4-H ) :   0.9838 B(  0-C ,  5-H ) :   0.9702
B(  0-C ,  6-H ) :   0.9796 B(  1-C ,  2-C ) :   0.8933 B(  1-C ,  7-H ) :   0.9719
B(  1-C ,  8-H ) :   0.9614 B(  2-C ,  3-N ) :   0.9533 B(  2-C ,  9-H ) :   0.9983
B(  2-C , 10-H ) :   0.9860 B(  3-N , 11-H ) :   0.9189 B(  3-N , 12-H ) :   0.9226

Dispersion correction           -0.002479991
FINAL SINGLE POINT ENERGY      -174.424371438559

DIPOLE MOMENT
-------------

Method             : SCF
Type of density    : Electron Density
Multiplicity       :   1
Irrep              :   0
Energy             :  -174.4311815260435594 Eh
Relativity type    :
Basis              : AO
                                X                 Y                 Z
Electronic contribution:      1.964176751       0.015442518       0.204194881
Nuclear contribution   :     -2.404105243      -0.268589736      -0.297198368
                        -----------------------------------------
Total Dipole Moment    :     -0.439928492      -0.253147218      -0.093003488
                        -----------------------------------------
Magnitude (a.u.)       :      0.516013799
Magnitude (Debye)      :      1.311602842

Rotational constants in cm-1:             0.464870             0.163910             0.140370
Rotational constants in MHz :         13936.462007          4913.894816          4208.172574

                             ****ORCA TERMINATED NORMALLY****
TOTAL RUN TIME: 0 days 0 hours 0 minutes 14 seconds 653 msec
