                         Program Version 6.0.1  -  RELEASE   -
|  1> ! r2scan-3c def2/J RI DEFGRID2 scfconv6 printgap
|  2> %output
|  3>     printlevel normal
|  4> end
|  5> * xyz 0 1
|  6> C -2.1232058807 -0.8820487527 -0.3446421222
|  7> C -1.1924492546 -0.347765978 0.7687795806
|  8> H -1.796074322 -0.4028793116 1.6888456069
|  9> C -0.7732732842 1.1246394009 0.5907008664
| 10> H -1.6484853767 1.6988430831 0.2355704269
| 11> C 0.3885269283 1.3080638061 -0.4061574781
| 12> H 0.8228334652 2.2967312283 -0.2068795774
| 13> C 1.5130699615 0.2905676979 -0.1251709741
| 14> H 2.1520204319 0.2225103795 -1.0115349278
| 15> C 1.0258886044 -1.1497939355 0.1973178395
| 16> H 1.825796434 -1.6211094123 0.7852617618
| 17> O -0.0838179858 -1.1689425635 1.0708543549
| 18> O 0.8661669191 -1.938371556 -0.9248783293
| 19> O 2.318893565 0.7750362473 0.9158503598
| 20> O -0.0479091776 1.2312664007 -1.7495175118
| 21> O -0.3043920894 1.6626142764 1.8082239323
| 22> O -1.5779521581 -0.9858438052 -1.630908778
| 23> H -3.0175529357 -0.2406588147 -0.3582833753
| 24> H -2.4255940049 -1.8956631869 -0.0693572985
| 25> H 0.009554923 -1.7405896822 -1.3567660295
| 26> H 1.7501474672 0.9418724341 1.6813855617
| 27> H -0.3577965991 2.0950039416 -2.040191383
| 28> H -0.906603894 1.4266548006 2.523389872
| 29> H -1.1557717335 -0.1416894554 -1.8830611558
| 30> *
| 31>
| 32>                          ****END OF INPUT****

CARTESIAN COORDINATES (ANGSTROEM)
---------------------------------
  C     -2.123206   -0.882049   -0.344642
  C     -1.192449   -0.347766    0.768780
  H     -1.796074   -0.402879    1.688846
  C     -0.773273    1.124639    0.590701
  H     -1.648485    1.698843    0.235570
  C      0.388527    1.308064   -0.406157
  H      0.822833    2.296731   -0.206880
  C      1.513070    0.290568   -0.125171
  H      2.152020    0.222510   -1.011535
  C      1.025889   -1.149794    0.197318
  H      1.825796   -1.621109    0.785262
  O     -0.083818   -1.168943    1.070854
  O      0.866167   -1.938372   -0.924878
  O      2.318894    0.775036    0.915850
  O     -0.047909    1.231266   -1.749518
  O     -0.304392    1.662614    1.808224
  O     -1.577952   -0.985844   -1.630909
  H     -3.017553   -0.240659   -0.358283
  H     -2.425594   -1.895663   -0.069357
  H      0.009555   -1.740590   -1.356766
  H      1.750147    0.941872    1.681386
  H     -0.357797    2.095004   -2.040191
  H     -0.906604    1.426655    2.523390
  H     -1.155772   -0.141689   -1.883061

 Total Charge           Charge          ....    0
 Multiplicity           Mult            ....    1
 Number of Electrons    NEL             ....   96
 Basis Dimension        Dim             ....  318

ORBITAL ENERGIES
----------------

  NO   OCC          E(Eh)            E(eV)
   0   2.0000     -18.999848      -517.0121
   1   2.0000     -18.984933      -516.6063
   2   2.0000     -18.966161      -516.0955
   3   2.0000     -18.964142      -516.0405
   4   2.0000     -18.947558      -515.5893
   5   2.0000     -18.930452      -515.1238
   6   2.0000     -10.122006      -275.4338
   7   2.0000     -10.112719      -275.1811
   8   2.0000     -10.110503      -275.1208
   9   2.0000     -10.106973      -275.0247
  10   2.0000     -10.094726      -274.6915
  11   2.0000     -10.085990      -274.4537
  12   2.0000      -1.048041       -28.5187
  13   2.0000      -1.031949       -28.0808
  14   2.0000      -1.021102       -27.7856
  15   2.0000      -1.002753       -27.2863
  16   2.0000      -0.989072       -26.9140
  17   2.0000      -0.961400       -26.1610
  18   2.0000      -0.763715       -20.7817
  19   2.0000      -0.734643       -19.9906
  20   2.0000      -0.669445       -18.2165
  21   2.0000      -0.630483       -17.1563
  22   2.0000      -0.617979       -16.8161
  23   2.0000      -0.560571       -15.2539
  24   2.0000      -0.521229       -14.1834
  25   2.0000      -0.512666       -13.9503
  26   2.0000      -0.500574       -13.6213
  27   2.0000      -0.494922       -13.4675
  28   2.0000      -0.472144       -12.8477
  29   2.0000      -0.454100       -12.3567
  30   2.0000      -0.449447       -12.2301
  31   2.0000      -0.443642       -12.0721
  32   2.0000      -0.420959       -11.4549
  33   2.0000      -0.405477       -11.0336
  34   2.0000      -0.387593       -10.5469
  35   2.0000      -0.376610       -10.2481
  36   2.0000      -0.361191        -9.8285
  37   2.0000      -0.353090        -9.6081
  38   2.0000      -0.325812        -8.8658
  39   2.0000      -0.321597        -8.7511
  40   2.0000      -0.307663        -8.3719
  41   2.0000      -0.302139        -8.2216
  42   2.0000      -0.292645        -7.9633
  43   2.0000      -0.269558        -7.3350
  44   2.0000      -0.265200        -7.2165
  45   2.0000      -0.256375        -6.9763
  46   2.0000      -0.232416        -6.3244
  47   2.0000      -0.215803        -5.8723
  48   0.0000       0.008090         0.2201
  49   0.0000       0.030804         0.8382
  50   0.0000       0.064814         1.7637
  51   0.0000       0.078812         2.1446
  52   0.0000       0.080981         2.2036

MULLIKEN ATOMIC CHARGES
-----------------------
   0 C :   -0.204152
   1 C :   -0.027654
   2 H :    0.143296
   3 C :   -0.070487
   4 H :    0.154163
   5 C :   -0.008156
   6 H :    0.144248
   7 C :   -0.023022
   8 H :    0.163424
   9 C :   -0.141581
  10 H :    0.155505
  11 O :   -0.157255
  12 O :   -0.387540
  13 O :   -0.413982
  14 O :   -0.426452
  15 O :   -0.411874
  16 O :   -0.481837
  17 H :    0.132966
  18 H :    0.159699
  19 H :    0.379707
  20 H :    0.327041
  21 H :    0.315945
  22 H :    0.299161
  23 H :    0.378837
Sum of atomic charges:   -0.0000000

LOEWDIN ATOMIC CHARGES
----------------------
   0 C :    0.022975
   1 C :    0.089501
   2 H :    0.197649
   3 C :    0.105628
   4 H :    0.176956
   5 C :    0.130987
   6 H :    0.202866
   7 C :    0.126387
   8 H :    0.208230
   9 C :    0.286957
  10 H :    0.218701
  11 O :   -0.649112
  12 O :   -0.512360
  13 O :   -0.572087
  14 O :   -0.588174
  15 O :   -0.590337
  16 O :   -0.610450
  17 H :    0.167667
  18 H :    0.190903
  19 H :    0.284798
  20 H :    0.280693
  21 H :    0.276389
  22 H :    0.273732
  23 H :    0.281503

  Mayer bond orders larger than 0.100000
B(  0-C ,  1-C ) :   0.9149 B(  0-C , 16-O ) :   0.9776 B(  0-C , 17-H ) :   0.9764
B(  0-C , 18-H ) :   0.9677 B(  1-C ,  2-H ) :   0.9493 B(  1-C ,  3-C ) :   0.8760
B(  1-C , 11-O ) :   0.9053 B(  3-C ,  4-H ) :   0.9710 B(  3-C ,  5-C ) :   0.8108
B(  3-C , 15-O ) :   0.8992 B(  5-C ,  6-H ) :   0.9574 B(  5-C ,  7-C ) :   0.9311
B(  5-C , 14-O ) :   0.9267 B(  7-C ,  8-H ) :   0.9525 B(  7-C ,  9-C ) :   0.9012
B(  7-C , 13-O ) :   0.9682 B(  9-C , 10-H ) :   0.9872 B(  9-C , 11-O ) :   0.9844
B(  9-C , 12-O ) :   1.0735 B( 12-O , 19-H ) :   0.7763 B( 13-O , 20-H ) :   0.8514
B( 14-O , 21-H ) :   0.8908 B( 15-O , 22-H ) :   0.8937 B( 16-O , 23-H ) :   0.7915

Dispersion correction           -0.008848939
FINAL SINGLE POINT ENERGY      -687.069547115090

DIPOLE MOMENT
-------------

Method             : SCF
Type of density    : Electron Density
Multiplicity       :   1
Irrep              :   0
Energy             :  -687.0832629141265215 Eh
Relativity type    :
Basis              : AO
                                X                 Y                 Z
Electronic contribution:      2.875872083      -0.895810931       0.352710613
Nuclear contribution   :     -4.436639556       2.469570423      -0.018462983
                        -----------------------------------------
Total Dipole Moment    :     -1.560767473       1.573759492       0.334247630
                        -----------------------------------------
Magnitude (a.u.)       :      2.241525267
Magnitude (Debye)      :      5.697504440

Rotational constants in cm-1:             0.039257             0.031229             0.027817
Rotational constants in MHz :          1176.888772           936.214625           833.945612

                             ****ORCA TERMINATED NORMALLY****
TOTAL RUN TIME: 0 days 0 hours 0 minutes 44 seconds 948 msec
