                         Program Version 6.0.1  -  RELEASE   -
|  1> ! pbe def2-sv(p) def2/J RI DEFGRID1 loosescf d4 GCP(DFT/SV(P)) printgap
|  2> %output
|  3>     printlevel normal
|  4> end
|  5> * xyz 0 1
|  6> C 3.3529881162 0.0810170809 0.1634368469
|  7> N 1.9291969676 0.2953034011 0.2733869526
|  8> C 1.474186013 1.4210023699 1.0574752942
|  9> C 1.0742623223 -0.5435430923 -0.3573954072
| 10> O 1.4447483999 -1.4897319339 -1.0267412637
| 11> C -0.3788768889 -0.2213791472 -0.1705273226
| 12> C -1.08326517 -0.7667327663 0.8950481742
| 13> C -2.435399897 -0.5085010646 1.0372533882
| 14> C -3.090407392 0.2917739052 0.1164443892
| 15> C -2.3930086569 0.828541965 -0.9525161096
| 16> C -1.0409268288 0.571760238 -1.0986200573
| 17> H 3.8369239282 0.9418615673 -0.3033227549
| 18> H 3.5067160789 -0.7996252975 -0.4579813774
| 19> H 3.7933773995 -0.0897406587 1.1483536574
| 20> H 0.8617900985 1.0945993037 1.9013980273
| 21> H 0.8816134594 2.1106729314 0.4518762543
| 22> H 2.3416261783 1.9525289249 1.4422608611
| 23> H -0.5714605164 -1.399595337 1.6059242597
| 24> H -2.9797080293 -0.9359311597 1.8666133534
| 25> H -4.1458958031 0.4917050059 0.2283373424
| 26> H -2.9037596251 1.4460228496 -1.6768136364
| 27> H -0.4955015657 0.9803620329 -1.9371666705
| 28> *
| 29>
| 30>                          ****END OF INPUT****

CARTESIAN COORDINATES (ANGSTROEM)
---------------------------------
  C      3.352988    0.081017    0.163437
  N      1.929197    0.295303    0.273387
  C      1.474186    1.421002    1.057475
  C      1.074262   -0.543543   -0.357395
  O      1.444748   -1.489732   -1.026741
  C     -0.378877   -0.221379   -0.170527
  C     -1.083265   -0.766733    0.895048
  C     -2.435400   -0.508501    1.037253
  C     -3.090407    0.291774    0.116444
  C     -2.393009    0.828542   -0.952516
  C     -1.040927    0.571760   -1.098620
  H      3.836924    0.941862   -0.303323
  H      3.506716   -0.799625   -0.457981
  H      3.793377   -0.089741    1.148354
  H      0.861790    1.094599    1.901398
  H      0.881613    2.110673    0.451876
  H      2.341626    1.952529    1.442261
  H     -0.571461   -1.399595    1.605924
  H     -2.979708   -0.935931    1.866613
  H     -4.145896    0.491705    0.228337
  H     -2.903760    1.446023   -1.676814
  H     -0.495502    0.980362   -1.937167

 Total Charge           Charge          ....    0
 Multiplicity           Mult            ....    1
 Number of Electrons    NEL             ....   80
 Basis Dimension        Dim             ....  176

ORBITAL ENERGIES
----------------

  NO   OCC          E(Eh)            E(eV)
   0   2.0000     -18.709593      -509.1139
   1   2.0000     -14.023686      -381.6039
   2   2.0000      -9.975483      -271.4467
   3   2.0000      -9.923915      -270.0435
   4   2.0000      -9.913709      -269.7657
   5   2.0000      -9.905543      -269.5435
   6   2.0000      -9.898919      -269.3633
   7   2.0000      -9.898722      -269.3579
   8   2.0000      -9.897767      -269.3319
   9   2.0000      -9.897652      -269.3288
  10   2.0000      -9.896437      -269.2957
  11   2.0000      -0.933752       -25.4087
  12   2.0000      -0.848706       -23.0945
  13   2.0000      -0.782119       -21.2825
  14   2.0000      -0.691681       -18.8216
  15   2.0000      -0.676090       -18.3973
  16   2.0000      -0.654305       -17.8046
  17   2.0000      -0.628534       -17.1033
  18   2.0000      -0.553358       -15.0576
  19   2.0000      -0.549185       -14.9441
  20   2.0000      -0.497836       -13.5468
  21   2.0000      -0.478422       -13.0185
  22   2.0000      -0.440544       -11.9878
  23   2.0000      -0.433175       -11.7873
  24   2.0000      -0.417981       -11.3739
  25   2.0000      -0.407926       -11.1002
  26   2.0000      -0.395364       -10.7584
  27   2.0000      -0.380612       -10.3570
  28   2.0000      -0.367042        -9.9877
  29   2.0000      -0.364995        -9.9320
  30   2.0000      -0.351213        -9.5570
  31   2.0000      -0.342693        -9.3252
  32   2.0000      -0.329220        -8.9585
  33   2.0000      -0.327325        -8.9070
  34   2.0000      -0.313404        -8.5281
  35   2.0000      -0.302524        -8.2321
  36   2.0000      -0.237118        -6.4523
  37   2.0000      -0.235423        -6.4062
  38   2.0000      -0.201369        -5.4795
  39   2.0000      -0.193609        -5.2684
  40   0.0000      -0.041311        -1.1241
  41   0.0000      -0.040806        -1.1104
  42   0.0000      -0.003005        -0.0818
  43   0.0000       0.033082         0.9002
  44   0.0000       0.045724         1.2442

MULLIKEN ATOMIC CHARGES
-----------------------
   0 C :   -0.187754
   1 N :   -0.253230
   2 C :   -0.148096
   3 C :    0.129843
   4 O :   -0.216268
   5 C :   -0.010339
   6 C :   -0.076999
   7 C :   -0.050017
   8 C :   -0.044900
   9 C :   -0.050048
  10 C :   -0.076385
  11 H :    0.110434
  12 H :    0.141489
  13 H :    0.110295
  14 H :    0.117367
  15 H :    0.119061
  16 H :    0.117778
  17 H :    0.050618
  18 H :    0.055037
  19 H :    0.055911
  20 H :    0.055168
  21 H :    0.051033
Sum of atomic charges:   -0.0000000

LOEWDIN ATOMIC CHARGES
----------------------
   0 C :   -0.257669
   1 N :   -0.057794
   2 C :   -0.250701
   3 C :    0.025036
   4 O :   -0.184166
   5 C :   -0.054439
   6 C :   -0.112215
   7 C :   -0.118905
   8 C :   -0.123377
   9 C :   -0.118852
  10 C :   -0.111332
  11 H :    0.115253
  12 H :    0.136234
  13 H :    0.115263
  14 H :    0.122333
  15 H :    0.123272
  16 H :    0.124334
  17 H :    0.126187
  18 H :    0.125115
  19 H :    0.124605
  20 H :    0.125174
  21 H :    0.126643

  Mayer bond orders larger than 0.100000
B(  0-C ,  1-N ) :   1.0053 B(  0-C , 11-H ) :   0.9529 B(  0-C , 12-H ) :   0.9277
B(  0-C , 13-H ) :   0.9529 B(  1-N ,  2-C ) :   1.0093 B(  1-N ,  3-C ) :   1.1953
B(  1-N ,  4-O ) :   0.1088 B(  2-C , 14-H ) :   0.9456 B(  2-C , 15-H ) :   0.9454
B(  2-C , 16-H ) :   0.9478 B(  3-C ,  4-O ) :   2.0581 B(  3-C ,  5-C ) :   0.8850
B(  5-C ,  6-C ) :   1.4028 B(  5-C , 10-C ) :   1.4051 B(  6-C ,  7-C ) :   1.3675
B(  6-C , 17-H ) :   0.9624 B(  7-C ,  8-C ) :   1.3790 B(  7-C , 18-H ) :   0.9642
B(  8-C ,  9-C ) :   1.3786 B(  8-C , 19-H ) :   0.9653 B(  9-C , 10-C ) :   1.3666
B(  9-C , 20-H ) :   0.9644 B( 10-C , 21-H ) :   0.9637

Dispersion correction           -0.024236016
FINAL SINGLE POINT ENERGY      -478.519388030872

DIPOLE MOMENT
-------------

Method             : SCF
Type of density    : Electron Density
Multiplicity       :   1
Irrep              :   0
Energy             :  -478.5850171528896908 Eh
Relativity type    :
Basis              : AO
                                X                 Y                 Z
Electronic contribution:     -3.912170323      -4.246310796      -3.160224886
Nuclear contribution   :      3.902616288       5.414231243       3.991781730
                        -----------------------------------------
Total Dipole Moment    :     -0.009554035       1.167920446       0.831556844
                        -----------------------------------------
Magnitude (a.u.)       :      1.433742039
Magnitude (Debye)      :      3.644282647

Rotational constants in cm-1:             0.081326             0.023441             0.022606
Rotational constants in MHz :          2438.086578           702.735342           677.719169

                             ****ORCA TERMINATED NORMALLY****
TOTAL RUN TIME: 0 days 0 hours 0 minutes 17 seconds 24 msec
