                         Program Version 6.0.1  -  RELEASE   -
|  1> ! pbe def2-sv(p) def2/J RI DEFGRID1 loosescf d4 GCP(DFT/SV(P)) printgap
|  2> %output
|  3>     printlevel normal
|  4> end
|  5> * xyz 0 1
|  6> C -2.5623697394 0.9717857883 0.0082721466
|  7> C -1.2376414365 0.2761096272 -0.008412615
|  8> C -1.1509070214 -1.1119481568 -0.0055318877
|  9> C 0.103374701 -1.6976150366 0.001148962
| 10> N 1.2314032165 -1.0119642867 0.0044792962
| 11> C 1.1665125446 0.3146155172 0.0018420492
| 12> C -0.0474214513 0.99240109 -0.0043798275
| 13> C 2.4741068583 1.0435720814 -0.0014692839
| 14> H -3.3153439437 0.3829244217 -0.5106104848
| 15> H -2.8926408146 1.1084915142 1.0386124902
| 16> H -2.4922778911 1.9524656545 -0.4565797172
| 17> H -2.0426254092 -1.7204372978 -0.0093602537
| 18> H 0.2153795258 -2.7746099176 0.0030761523
| 19> H -0.0645998956 2.0728326634 -0.0072182569
| 20> H 2.3272316073 2.1148021228 0.1053880902
| 21> H 3.0998682959 0.6791616444 0.8100831246
| 22> H 3.000159736 0.8460926961 -0.9339833129
| 23> *
| 24>
| 25>                          ****END OF INPUT****

CARTESIAN COORDINATES (ANGSTROEM)
---------------------------------
  C     -2.562370    0.971786    0.008272
  C     -1.237641    0.276110   -0.008413
  C     -1.150907   -1.111948   -0.005532
  C      0.103375   -1.697615    0.001149
  N      1.231403   -1.011964    0.004479
  C      1.166513    0.314616    0.001842
  C     -0.047421    0.992401   -0.004380
  C      2.474107    1.043572   -0.001469
  H     -3.315344    0.382924   -0.510610
  H     -2.892641    1.108492    1.038612
  H     -2.492278    1.952466   -0.456580
  H     -2.042625   -1.720437   -0.009360
  H      0.215380   -2.774610    0.003076
  H     -0.064600    2.072833   -0.007218
  H      2.327232    2.114802    0.105388
  H      3.099868    0.679162    0.810083
  H      3.000160    0.846093   -0.933983

 Total Charge           Charge          ....    0
 Multiplicity           Mult            ....    1
 Number of Electrons    NEL             ....   58
 Basis Dimension        Dim             ....  130

ORBITAL ENERGIES
----------------

  NO   OCC          E(Eh)            E(eV)
   0   2.0000     -13.972190      -380.2026
   1   2.0000      -9.927130      -270.1309
   2   2.0000      -9.915077      -269.8030
   3   2.0000      -9.913139      -269.7502
   4   2.0000      -9.892016      -269.1754
   5   2.0000      -9.891563      -269.1631
   6   2.0000      -9.890397      -269.1314
   7   2.0000      -9.877195      -268.7722
   8   2.0000      -0.853585       -23.2272
   9   2.0000      -0.738909       -20.1067
  10   2.0000      -0.700777       -19.0691
  11   2.0000      -0.639967       -17.4144
  12   2.0000      -0.622928       -16.9507
  13   2.0000      -0.558381       -15.1943
  14   2.0000      -0.517282       -14.0759
  15   2.0000      -0.448994       -12.2178
  16   2.0000      -0.444113       -12.0849
  17   2.0000      -0.403178       -10.9710
  18   2.0000      -0.393088       -10.6965
  19   2.0000      -0.376697       -10.2504
  20   2.0000      -0.367855       -10.0098
  21   2.0000      -0.359659        -9.7868
  22   2.0000      -0.347249        -9.4491
  23   2.0000      -0.329190        -8.9577
  24   2.0000      -0.328082        -8.9276
  25   2.0000      -0.306635        -8.3440
  26   2.0000      -0.244558        -6.6548
  27   2.0000      -0.226760        -6.1704
  28   2.0000      -0.198117        -5.3910
  29   0.0000      -0.047752        -1.2994
  30   0.0000      -0.036631        -0.9968
  31   0.0000       0.045344         1.2339
  32   0.0000       0.064050         1.7429
  33   0.0000       0.071575         1.9476

MULLIKEN ATOMIC CHARGES
-----------------------
   0 C :   -0.221974
   1 C :    0.058196
   2 C :   -0.123747
   3 C :   -0.052803
   4 N :   -0.072040
   5 C :   -0.076352
   6 C :   -0.138905
   7 C :   -0.184008
   8 H :    0.111499
   9 H :    0.126884
  10 H :    0.110545
  11 H :    0.044132
  12 H :    0.062705
  13 H :    0.032452
  14 H :    0.089298
  15 H :    0.115803
  16 H :    0.118313
Sum of atomic charges:   -0.0000000

LOEWDIN ATOMIC CHARGES
----------------------
   0 C :   -0.322451
   1 C :   -0.025611
   2 C :   -0.152018
   3 C :   -0.077545
   4 N :   -0.085216
   5 C :   -0.014150
   6 C :   -0.144693
   7 C :   -0.330145
   8 H :    0.129946
   9 H :    0.139811
  10 H :    0.128965
  11 H :    0.123965
  12 H :    0.112323
  13 H :    0.122060
  14 H :    0.120148
  15 H :    0.136749
  16 H :    0.137862

  Mayer bond orders larger than 0.100000
B(  0-C ,  1-C ) :   1.1077 B(  0-C ,  8-H ) :   0.9398 B(  0-C ,  9-H ) :   0.9283
B(  0-C , 10-H ) :   0.9409 B(  1-C ,  2-C ) :   1.4170 B(  1-C ,  6-C ) :   1.4019
B(  2-C ,  3-C ) :   1.3711 B(  2-C , 11-H ) :   0.9459 B(  3-C ,  4-N ) :   1.5501
B(  3-C , 12-H ) :   0.9501 B(  4-N ,  5-C ) :   1.5000 B(  5-C ,  6-C ) :   1.3930
B(  5-C ,  7-C ) :   1.1125 B(  6-C , 13-H ) :   0.9367 B(  7-C , 14-H ) :   0.9418
B(  7-C , 15-H ) :   0.9304 B(  7-C , 16-H ) :   0.9280

Dispersion correction           -0.016213018
FINAL SINGLE POINT ENERGY      -326.185779813081

DIPOLE MOMENT
-------------

Method             : SCF
Type of density    : Electron Density
Multiplicity       :   1
Irrep              :   0
Energy             :  -326.2342080864912646 Eh
Relativity type    :
Basis              : AO
                                X                 Y                 Z
Electronic contribution:      1.340743794      -3.879830503      -0.019706094
Nuclear contribution   :     -2.024241227       4.367933693       0.036995748
                        -----------------------------------------
Total Dipole Moment    :     -0.683497433       0.488103190       0.017289653
                        -----------------------------------------
Magnitude (a.u.)       :      0.840066900
Magnitude (Debye)      :      2.135280367

Rotational constants in cm-1:             0.128411             0.059822             0.041435
Rotational constants in MHz :          3849.659964          1793.429728          1242.194339

                             ****ORCA TERMINATED NORMALLY****
TOTAL RUN TIME: 0 days 0 hours 0 minutes 5 seconds 588 msec
