                         Program Version 6.0.1  -  RELEASE   -
|  1> ! pbe def2-sv(p) def2/J RI DEFGRID1 loosescf d4 GCP(DFT/SV(P)) printgap
|  2> %output
|  3>     printlevel normal
|  4> end
|  5> * xyz 0 1
|  6> C -2.1738559046 -1.242755104 0.0075720163
|  7> C -1.189522959 -0.358827928 0.8057022015
|  8> H -1.6565968169 -0.1038769443 1.7647164056
|  9> C -0.8683895198 0.9484943746 0.0542179732
| 10> H -1.0442104063 0.8050694981 -1.0234412945
| 11> C 0.6068618748 1.2967323131 0.263099077
| 12> H 0.8079779623 1.3709701705 1.343382547
| 13> C 1.4419466976 0.1663355167 -0.3373928522
| 14> H 1.2200942245 0.12561419 -1.4179825292
| 15> C 1.0376881158 -1.1750726604 0.3158544663
| 16> H 1.8796347414 -1.5173191024 0.9344636883
| 17> O -0.0190380655 -1.0685285165 1.2033427672
| 18> O 0.7433525068 -2.1487285101 -0.6700118154
| 19> O 2.8158884506 0.3601307643 -0.1371763693
| 20> O 0.9603493428 2.4943497644 -0.3815428679
| 21> O -1.629724792 2.0405586458 0.5254839956
| 22> O -1.8296326387 -1.3901003948 -1.3393211034
| 23> H -3.1617713796 -0.7733887841 0.0213570928
| 24> H -2.2375254314 -2.2157947462 0.5114937663
| 25> H 1.5573785785 -2.3862609617 -1.1255714547
| 26> H 3.0023070917 1.2882032687 -0.3310799143
| 27> H 0.2742490919 3.1395624774 -0.169824152
| 28> H -2.5585372862 1.8813691767 0.329648061
| 29> H -0.9628831132 -1.830040254 -1.3666863864
| 30> *
| 31>
| 32>                          ****END OF INPUT****

CARTESIAN COORDINATES (ANGSTROEM)
---------------------------------
  C     -2.173856   -1.242755    0.007572
  C     -1.189523   -0.358828    0.805702
  H     -1.656597   -0.103877    1.764716
  C     -0.868390    0.948494    0.054218
  H     -1.044210    0.805069   -1.023441
  C      0.606862    1.296732    0.263099
  H      0.807978    1.370970    1.343383
  C      1.441947    0.166336   -0.337393
  H      1.220094    0.125614   -1.417983
  C      1.037688   -1.175073    0.315854
  H      1.879635   -1.517319    0.934464
  O     -0.019038   -1.068529    1.203343
  O      0.743353   -2.148729   -0.670012
  O      2.815888    0.360131   -0.137176
  O      0.960349    2.494350   -0.381543
  O     -1.629725    2.040559    0.525484
  O     -1.829633   -1.390100   -1.339321
  H     -3.161771   -0.773389    0.021357
  H     -2.237525   -2.215795    0.511494
  H      1.557379   -2.386261   -1.125571
  H      3.002307    1.288203   -0.331080
  H      0.274249    3.139562   -0.169824
  H     -2.558537    1.881369    0.329648
  H     -0.962883   -1.830040   -1.366686

 Total Charge           Charge          ....    0
 Multiplicity           Mult            ....    1
 Number of Electrons    NEL             ....   96
 Basis Dimension        Dim             ....  192

ORBITAL ENERGIES
----------------

  NO   OCC          E(Eh)            E(eV)
   0   2.0000     -18.780162      -511.0342
   1   2.0000     -18.776588      -510.9369
   2   2.0000     -18.767489      -510.6894
   3   2.0000     -18.755713      -510.3689
   4   2.0000     -18.753284      -510.3028
   5   2.0000     -18.736699      -509.8515
   6   2.0000      -9.996053      -272.0064
   7   2.0000      -9.945848      -270.6403
   8   2.0000      -9.944007      -270.5902
   9   2.0000      -9.943407      -270.5739
  10   2.0000      -9.942510      -270.5495
  11   2.0000      -9.931261      -270.2434
  12   2.0000      -0.991097       -26.9691
  13   2.0000      -0.953182       -25.9374
  14   2.0000      -0.938792       -25.5458
  15   2.0000      -0.927868       -25.2486
  16   2.0000      -0.919407       -25.0183
  17   2.0000      -0.916027       -24.9264
  18   2.0000      -0.708710       -19.2850
  19   2.0000      -0.696361       -18.9490
  20   2.0000      -0.622130       -16.9290
  21   2.0000      -0.588985       -16.0271
  22   2.0000      -0.565892       -15.3987
  23   2.0000      -0.526509       -14.3270
  24   2.0000      -0.506621       -13.7859
  25   2.0000      -0.498542       -13.5660
  26   2.0000      -0.478688       -13.0258
  27   2.0000      -0.456183       -12.4134
  28   2.0000      -0.447805       -12.1854
  29   2.0000      -0.442060       -12.0291
  30   2.0000      -0.415868       -11.3163
  31   2.0000      -0.396070       -10.7776
  32   2.0000      -0.392934       -10.6923
  33   2.0000      -0.385666       -10.4945
  34   2.0000      -0.371946       -10.1212
  35   2.0000      -0.353462        -9.6182
  36   2.0000      -0.332319        -9.0429
  37   2.0000      -0.318190        -8.6584
  38   2.0000      -0.312541        -8.5047
  39   2.0000      -0.302352        -8.2274
  40   2.0000      -0.285964        -7.7815
  41   2.0000      -0.278085        -7.5671
  42   2.0000      -0.251880        -6.8540
  43   2.0000      -0.244736        -6.6596
  44   2.0000      -0.236125        -6.4253
  45   2.0000      -0.224963        -6.1215
  46   2.0000      -0.221903        -6.0383
  47   2.0000      -0.202671        -5.5150
  48   0.0000       0.006466         0.1759
  49   0.0000       0.019848         0.5401
  50   0.0000       0.035359         0.9622
  51   0.0000       0.051114         1.3909
  52   0.0000       0.058902         1.6028

MULLIKEN ATOMIC CHARGES
-----------------------
   0 C :    0.057519
   1 C :    0.017620
   2 H :    0.069993
   3 C :   -0.004377
   4 H :    0.075242
   5 C :    0.052562
   6 H :    0.064495
   7 C :    0.042209
   8 H :    0.052256
   9 C :    0.219383
  10 H :    0.080853
  11 O :   -0.293621
  12 O :   -0.429246
  13 O :   -0.418755
  14 O :   -0.428829
  15 O :   -0.419840
  16 O :   -0.442125
  17 H :    0.068588
  18 H :    0.086686
  19 H :    0.317507
  20 H :    0.312691
  21 H :    0.310854
  22 H :    0.309330
  23 H :    0.299006
Sum of atomic charges:    0.0000000

LOEWDIN ATOMIC CHARGES
----------------------
   0 C :   -0.134054
   1 C :   -0.078842
   2 H :    0.120152
   3 C :   -0.084622
   4 H :    0.108338
   5 C :   -0.077568
   6 H :    0.108050
   7 C :   -0.086962
   8 H :    0.101772
   9 C :    0.013368
  10 H :    0.112267
  11 O :   -0.117960
  12 O :   -0.321870
  13 O :   -0.320750
  14 O :   -0.324669
  15 O :   -0.321353
  16 O :   -0.344375
  17 H :    0.107574
  18 H :    0.106409
  19 H :    0.299254
  20 H :    0.289948
  21 H :    0.288760
  22 H :    0.291314
  23 H :    0.265819

  Mayer bond orders larger than 0.100000
B(  0-C ,  1-C ) :   1.0313 B(  0-C , 16-O ) :   1.1073 B(  0-C , 17-H ) :   0.9186
B(  0-C , 18-H ) :   0.9069 B(  1-C ,  2-H ) :   0.8786 B(  1-C ,  3-C ) :   0.9926
B(  1-C , 11-O ) :   0.9897 B(  3-C ,  4-H ) :   0.8705 B(  3-C ,  5-C ) :   1.0220
B(  3-C , 15-O ) :   1.0592 B(  5-C ,  6-H ) :   0.8703 B(  5-C ,  7-C ) :   1.0465
B(  5-C , 14-O ) :   1.0821 B(  7-C ,  8-H ) :   0.8712 B(  7-C ,  9-C ) :   0.9861
B(  7-C , 13-O ) :   1.0891 B(  9-C , 10-H ) :   0.8943 B(  9-C , 11-O ) :   1.1225
B(  9-C , 12-O ) :   0.9726 B( 12-O , 19-H ) :   0.8351 B( 12-O , 23-H ) :   0.1205
B( 13-O , 20-H ) :   0.8359 B( 14-O , 21-H ) :   0.8307 B( 15-O , 22-H ) :   0.8463
B( 16-O , 23-H ) :   0.7928

Dispersion correction           -0.025066515
FINAL SINGLE POINT ENERGY      -685.696422211311

DIPOLE MOMENT
-------------

Method             : SCF
Type of density    : Electron Density
Multiplicity       :   1
Irrep              :   0
Energy             :  -685.8290966495267185 Eh
Relativity type    :
Basis              : AO
                                X                 Y                 Z
Electronic contribution:      2.564472403       0.400181396       0.469284528
Nuclear contribution   :     -2.686395162      -0.198281575      -0.508623871
                        -----------------------------------------
Total Dipole Moment    :     -0.121922758       0.201899821      -0.039339343
                        -----------------------------------------
Magnitude (a.u.)       :      0.239115622
Magnitude (Debye)      :      0.607783609

Rotational constants in cm-1:             0.037647             0.031369             0.020716
Rotational constants in MHz :          1128.623560           940.423304           621.049944

                             ****ORCA TERMINATED NORMALLY****
TOTAL RUN TIME: 0 days 0 hours 0 minutes 10 seconds 228 msec
