                         Program Version 6.0.1  -  RELEASE   -
|  1> ! pbe def2-sv(p) def2/J RI DEFGRID1 loosescf d4 GCP(DFT/SV(P)) printgap
|  2> %output
|  3>     printlevel normal
|  4> end
|  5> * xyz 0 1
|  6> C -1.7218956007 -1.0572267154 -0.6833333338
|  7> C -1.0589605889 -0.5143702478 0.5976870137
|  8> H -1.7447901279 -0.6520969121 1.4454429568
|  9> C -0.7467138136 0.988267967 0.4961297711
| 10> H -1.6401252215 1.5052662139 0.1243035056
| 11> C 0.4342040161 1.2516262952 -0.4570433692
| 12> H 0.7371463318 2.3066249124 -0.3025676088
| 13> C 1.6321449762 0.3660862953 -0.066712179
| 14> H 2.334854874 0.3535731903 -0.9103746426
| 15> C 1.2406917757 -1.0977565393 0.1983497186
| 16> H 2.035771682 -1.5320892556 0.828581113
| 17> O 0.0882145203 -1.2605367205 0.9759327434
| 18> O 1.1644655114 -1.7572754409 -1.0274787362
| 19> O 2.2432230902 0.8320456839 1.1158631879
| 20> O 0.1430304245 1.0366680556 -1.8100026471
| 21> O -0.4805143879 1.5339964389 1.7615766205
| 22> O -2.8825736765 -0.334958319 -1.0171866918
| 23> H -1.9462214584 -2.1227552358 -0.5354858569
| 24> H -1.0420951594 -0.9543239598 -1.5307003822
| 25> H 0.9133037661 -2.6752605999 -0.8702363156
| 26> H 2.5738544214 1.725883785 0.9669588252
| 27> H -0.7441973853 1.3636098456 -2.0021125165
| 28> H 0.3089356788 1.0933330724 2.111536625
| 29> H -3.5371920006 -0.4493012853 -0.3186384052
| 30> *
| 31>
| 32>                          ****END OF INPUT****

CARTESIAN COORDINATES (ANGSTROEM)
---------------------------------
  C     -1.721896   -1.057227   -0.683333
  C     -1.058961   -0.514370    0.597687
  H     -1.744790   -0.652097    1.445443
  C     -0.746714    0.988268    0.496130
  H     -1.640125    1.505266    0.124304
  C      0.434204    1.251626   -0.457043
  H      0.737146    2.306625   -0.302568
  C      1.632145    0.366086   -0.066712
  H      2.334855    0.353573   -0.910375
  C      1.240692   -1.097757    0.198350
  H      2.035772   -1.532089    0.828581
  O      0.088215   -1.260537    0.975933
  O      1.164466   -1.757275   -1.027479
  O      2.243223    0.832046    1.115863
  O      0.143030    1.036668   -1.810003
  O     -0.480514    1.533996    1.761577
  O     -2.882574   -0.334958   -1.017187
  H     -1.946221   -2.122755   -0.535486
  H     -1.042095   -0.954324   -1.530700
  H      0.913304   -2.675261   -0.870236
  H      2.573854    1.725884    0.966959
  H     -0.744197    1.363610   -2.002113
  H      0.308936    1.093333    2.111537
  H     -3.537192   -0.449301   -0.318638

 Total Charge           Charge          ....    0
 Multiplicity           Mult            ....    1
 Number of Electrons    NEL             ....   96
 Basis Dimension        Dim             ....  192

ORBITAL ENERGIES
----------------

  NO   OCC          E(Eh)            E(eV)
   0   2.0000     -18.772536      -510.8267
   1   2.0000     -18.772345      -510.8215
   2   2.0000     -18.760892      -510.5098
   3   2.0000     -18.756891      -510.4010
   4   2.0000     -18.756652      -510.3945
   5   2.0000     -18.740237      -509.9478
   6   2.0000      -9.987546      -271.7749
   7   2.0000      -9.948077      -270.7010
   8   2.0000      -9.945200      -270.6227
   9   2.0000      -9.941088      -270.5108
  10   2.0000      -9.939029      -270.4547
  11   2.0000      -9.926259      -270.1072
  12   2.0000      -0.985361       -26.8130
  13   2.0000      -0.949021       -25.8242
  14   2.0000      -0.936755       -25.4904
  15   2.0000      -0.931378       -25.3441
  16   2.0000      -0.923608       -25.1327
  17   2.0000      -0.909526       -24.7495
  18   2.0000      -0.696392       -18.9498
  19   2.0000      -0.694708       -18.9040
  20   2.0000      -0.619490       -16.8572
  21   2.0000      -0.590195       -16.0600
  22   2.0000      -0.576946       -15.6995
  23   2.0000      -0.528903       -14.3922
  24   2.0000      -0.491520       -13.3749
  25   2.0000      -0.489251       -13.3132
  26   2.0000      -0.475976       -12.9520
  27   2.0000      -0.459772       -12.5110
  28   2.0000      -0.447704       -12.1827
  29   2.0000      -0.428337       -11.6557
  30   2.0000      -0.422420       -11.4946
  31   2.0000      -0.391146       -10.6436
  32   2.0000      -0.384425       -10.4607
  33   2.0000      -0.374149       -10.1811
  34   2.0000      -0.364144        -9.9089
  35   2.0000      -0.345293        -9.3959
  36   2.0000      -0.339510        -9.2385
  37   2.0000      -0.327791        -8.9197
  38   2.0000      -0.306875        -8.3505
  39   2.0000      -0.292997        -7.9728
  40   2.0000      -0.290515        -7.9053
  41   2.0000      -0.261460        -7.1147
  42   2.0000      -0.256734        -6.9861
  43   2.0000      -0.245743        -6.6870
  44   2.0000      -0.234972        -6.3939
  45   2.0000      -0.224121        -6.0987
  46   2.0000      -0.215994        -5.8775
  47   2.0000      -0.200815        -5.4645
  48   0.0000       0.012488         0.3398
  49   0.0000       0.015880         0.4321
  50   0.0000       0.028775         0.7830
  51   0.0000       0.038314         1.0426
  52   0.0000       0.066941         1.8216

MULLIKEN ATOMIC CHARGES
-----------------------
   0 C :   -0.018083
   1 C :    0.012315
   2 H :    0.066265
   3 C :    0.042925
   4 H :    0.064023
   5 C :    0.036615
   6 H :    0.055681
   7 C :    0.016373
   8 H :    0.092052
   9 C :    0.202100
  10 H :    0.072052
  11 O :   -0.313265
  12 O :   -0.384867
  13 O :   -0.415996
  14 O :   -0.391893
  15 O :   -0.427322
  16 O :   -0.430906
  17 H :    0.071085
  18 H :    0.129553
  19 H :    0.301497
  20 H :    0.309443
  21 H :    0.314210
  22 H :    0.296937
  23 H :    0.299205
Sum of atomic charges:   -0.0000000

LOEWDIN ATOMIC CHARGES
----------------------
   0 C :   -0.160721
   1 C :   -0.077124
   2 H :    0.111044
   3 C :   -0.081286
   4 H :    0.111186
   5 C :   -0.079940
   6 H :    0.093502
   7 C :   -0.076374
   8 H :    0.118444
   9 C :    0.000781
  10 H :    0.101874
  11 O :   -0.139657
  12 O :   -0.300419
  13 O :   -0.305243
  14 O :   -0.302213
  15 O :   -0.318639
  16 O :   -0.332682
  17 H :    0.094279
  18 H :    0.120293
  19 H :    0.285231
  20 H :    0.290428
  21 H :    0.291489
  22 H :    0.270652
  23 H :    0.285096

  Mayer bond orders larger than 0.100000
B(  0-C ,  1-C ) :   1.0332 B(  0-C , 16-O ) :   1.0392 B(  0-C , 17-H ) :   0.9152
B(  0-C , 18-H ) :   0.8855 B(  1-C ,  2-H ) :   0.8967 B(  1-C ,  3-C ) :   1.0039
B(  1-C , 11-O ) :   0.9904 B(  3-C ,  4-H ) :   0.8806 B(  3-C ,  5-C ) :   0.9673
B(  3-C , 15-O ) :   1.0552 B(  5-C ,  6-H ) :   0.9018 B(  5-C ,  7-C ) :   0.9800
B(  5-C , 14-O ) :   1.0936 B(  7-C ,  8-H ) :   0.8870 B(  7-C ,  9-C ) :   0.9966
B(  7-C , 13-O ) :   1.0396 B(  9-C , 10-H ) :   0.9005 B(  9-C , 11-O ) :   1.0611
B(  9-C , 12-O ) :   1.1299 B( 12-O , 19-H ) :   0.8377 B( 13-O , 20-H ) :   0.8397
B( 14-O , 21-H ) :   0.8305 B( 15-O , 22-H ) :   0.8196 B( 16-O , 23-H ) :   0.8501

Dispersion correction           -0.026109402
FINAL SINGLE POINT ENERGY      -685.693058393568

DIPOLE MOMENT
-------------

Method             : SCF
Type of density    : Electron Density
Multiplicity       :   1
Irrep              :   0
Energy             :  -685.8251429215648614 Eh
Relativity type    :
Basis              : AO
                                X                 Y                 Z
Electronic contribution:      1.554007612      -0.109221296       1.037753288
Nuclear contribution   :     -1.638419138      -0.034475537      -0.931896724
                        -----------------------------------------
Total Dipole Moment    :     -0.084411526      -0.143696832       0.105856564
                        -----------------------------------------
Magnitude (a.u.)       :      0.197432767
Magnitude (Debye)      :      0.501834212

Rotational constants in cm-1:             0.040642             0.029184             0.025396
Rotational constants in MHz :          1218.402725           874.928027           761.347676

                             ****ORCA TERMINATED NORMALLY****
TOTAL RUN TIME: 0 days 0 hours 0 minutes 8 seconds 584 msec
