                         Program Version 6.0.1  -  RELEASE   -
|  1> ! r2scan-3c def2/J RI DEFGRID2 scfconv6 printgap
|  2> %output
|  3>     printlevel normal
|  4> end
|  5> * xyz 0 1
|  6> C 0.442933318 -5.69897e-05 -0.39245666
|  7> F 1.0402453632 1.0759752974 0.1234286642
|  8> F 1.0402826052 -1.0759289674 0.1234508417
|  9> Cl -1.280964232 -3.9617e-06 0.0429035896
| 10> H 0.562804129 -5.4805e-05 -1.4858414782
| 11> *
| 12>
| 13>                          ****END OF INPUT****

CARTESIAN COORDINATES (ANGSTROEM)
---------------------------------
  C      0.442933   -0.000057   -0.392457
  F      1.040245    1.075975    0.123429
  F      1.040283   -1.075929    0.123451
  Cl    -1.280964   -0.000004    0.042904
  H      0.562804   -0.000055   -1.485841

 Total Charge           Charge          ....    0
 Multiplicity           Mult            ....    1
 Number of Electrons    NEL             ....   42
 Basis Dimension        Dim             ....   99

ORBITAL ENERGIES
----------------

  NO   OCC          E(Eh)            E(eV)
   0   2.0000    -101.236949     -2754.7974
   1   2.0000     -24.532058      -667.5512
   2   2.0000     -24.532022      -667.5502
   3   2.0000     -10.269217      -279.4396
   4   2.0000      -9.393420      -255.6080
   5   2.0000      -7.139760      -194.2828
   6   2.0000      -7.129406      -194.0010
   7   2.0000      -7.129301      -193.9981
   8   2.0000      -1.263673       -34.3863
   9   2.0000      -1.199256       -32.6334
  10   2.0000      -0.841368       -22.8948
  11   2.0000      -0.669987       -18.2313
  12   2.0000      -0.557283       -15.1645
  13   2.0000      -0.553053       -15.0493
  14   2.0000      -0.516753       -14.0616
  15   2.0000      -0.419124       -11.4050
  16   2.0000      -0.414413       -11.2768
  17   2.0000      -0.395924       -10.7736
  18   2.0000      -0.351941        -9.5768
  19   2.0000      -0.311759        -8.4834
  20   2.0000      -0.310989        -8.4625
  21   0.0000      -0.017414        -0.4739
  22   0.0000       0.066430         1.8077
  23   0.0000       0.087512         2.3813
  24   0.0000       0.107912         2.9364
  25   0.0000       0.158224         4.3055

MULLIKEN ATOMIC CHARGES
-----------------------
   0 C :    0.326277
   1 F :   -0.182179
   2 F :   -0.182097
   3 Cl:   -0.100051
   4 H :    0.138049
Sum of atomic charges:   -0.0000000

LOEWDIN ATOMIC CHARGES
----------------------
   0 C :    0.238752
   1 F :   -0.260853
   2 F :   -0.260782
   3 Cl:    0.117895
   4 H :    0.164989

  Mayer bond orders larger than 0.100000
B(  0-C ,  1-F ) :   0.9742 B(  0-C ,  2-F ) :   0.9743 B(  0-C ,  3-Cl) :   1.1298
B(  0-C ,  4-H ) :   0.9513

Dispersion correction           -0.000741810
FINAL SINGLE POINT ENERGY      -698.556668507748

DIPOLE MOMENT
-------------

Method             : SCF
Type of density    : Electron Density
Multiplicity       :   1
Irrep              :   0
Energy             :  -698.5646373268461957 Eh
Relativity type    :
Basis              : AO
                                X                 Y                 Z
Electronic contribution:     -0.264133510      -0.000104659       1.131557224
Nuclear contribution   :      0.319629600      -0.000089026      -1.680315608
                        -----------------------------------------
Total Dipole Moment    :      0.055496091      -0.000193685      -0.548758384
                        -----------------------------------------
Magnitude (a.u.)       :      0.551557448
Magnitude (Debye)      :      1.401947617

Rotational constants in cm-1:             0.346107             0.158011             0.115500
Rotational constants in MHz :         10376.015256          4737.057756          3462.600322

                             ****ORCA TERMINATED NORMALLY****
TOTAL RUN TIME: 0 days 0 hours 0 minutes 26 seconds 196 msec
