                         Program Version 6.0.1  -  RELEASE   -
|  1> ! pbe def2-sv(p) def2/J RI DEFGRID1 loosescf d4 GCP(DFT/SV(P)) printgap
|  2> %output
|  3>     printlevel normal
|  4> end
|  5> * xyz 0 1
|  6> C -2.4210968553 -0.7089975855 0.0135548903
|  7> C -0.9968291469 -0.2518480401 0.3514040796
|  8> H -0.9403496085 0.0010057563 1.4188601724
|  9> C -0.5545860879 0.9640104215 -0.4788050033
| 10> H -0.6077985881 0.6986584903 -1.5469451252
| 11> C 0.907361685 1.3481957636 -0.1493636518
| 12> H 0.8648034454 2.2175188507 0.5169094164
| 13> C 1.651329912 0.1897266248 0.5503569669
| 14> H 2.7242281236 0.3048866957 0.3304643745
| 15> C 1.1965371788 -1.1355857325 -0.0683188624
| 16> H 1.7187199677 -1.9744108142 0.419471683
| 17> O -0.1651160739 -1.3847322354 0.0961405277
| 18> O 1.5316506063 -1.0815262009 -1.4332820783
| 19> O 1.4292348944 0.1177034524 1.9331224386
| 20> O 1.6119291005 1.7655222138 -1.2827760537
| 21> O -1.3468597388 2.0927214037 -0.2054631464
| 22> O -2.8026955884 -1.8138032249 0.7826114691
| 23> H -2.4711809108 -0.95096298 -1.060632551
| 24> H -3.1380094868 0.0836227727 0.2402671742
| 25> H 1.1831688802 -1.8724043818 -1.8619781958
| 26> H 1.6970115751 0.9523632355 2.3349539741
| 27> H 1.7493609453 0.9914644258 -1.8475629891
| 28> H -2.2230339757 1.9800797627 -0.5880539279
| 29> H -2.0653501996 -2.4366109251 0.7770325354
| 30> *
| 31>
| 32>                          ****END OF INPUT****

CARTESIAN COORDINATES (ANGSTROEM)
---------------------------------
  C     -2.421097   -0.708998    0.013555
  C     -0.996829   -0.251848    0.351404
  H     -0.940350    0.001006    1.418860
  C     -0.554586    0.964010   -0.478805
  H     -0.607799    0.698658   -1.546945
  C      0.907362    1.348196   -0.149364
  H      0.864803    2.217519    0.516909
  C      1.651330    0.189727    0.550357
  H      2.724228    0.304887    0.330464
  C      1.196537   -1.135586   -0.068319
  H      1.718720   -1.974411    0.419472
  O     -0.165116   -1.384732    0.096141
  O      1.531651   -1.081526   -1.433282
  O      1.429235    0.117703    1.933122
  O      1.611929    1.765522   -1.282776
  O     -1.346860    2.092721   -0.205463
  O     -2.802696   -1.813803    0.782611
  H     -2.471181   -0.950963   -1.060633
  H     -3.138009    0.083623    0.240267
  H      1.183169   -1.872404   -1.861978
  H      1.697012    0.952363    2.334954
  H      1.749361    0.991464   -1.847563
  H     -2.223034    1.980080   -0.588054
  H     -2.065350   -2.436611    0.777033

 Total Charge           Charge          ....    0
 Multiplicity           Mult            ....    1
 Number of Electrons    NEL             ....   96
 Basis Dimension        Dim             ....  192

ORBITAL ENERGIES
----------------

  NO   OCC          E(Eh)            E(eV)
   0   2.0000     -18.782490      -511.0975
   1   2.0000     -18.782400      -511.0951
   2   2.0000     -18.766407      -510.6599
   3   2.0000     -18.757513      -510.4179
   4   2.0000     -18.741579      -509.9843
   5   2.0000     -18.739005      -509.9143
   6   2.0000      -9.998637      -272.0768
   7   2.0000      -9.949771      -270.7470
   8   2.0000      -9.944039      -270.5911
   9   2.0000      -9.941423      -270.5199
  10   2.0000      -9.939991      -270.4809
  11   2.0000      -9.935141      -270.3489
  12   2.0000      -0.996657       -27.1204
  13   2.0000      -0.945821       -25.7371
  14   2.0000      -0.939202       -25.5570
  15   2.0000      -0.934328       -25.4244
  16   2.0000      -0.919169       -25.0119
  17   2.0000      -0.914399       -24.8821
  18   2.0000      -0.703358       -19.1393
  19   2.0000      -0.696263       -18.9463
  20   2.0000      -0.629452       -17.1282
  21   2.0000      -0.584588       -15.9075
  22   2.0000      -0.572997       -15.5920
  23   2.0000      -0.530490       -14.4354
  24   2.0000      -0.506971       -13.7954
  25   2.0000      -0.491794       -13.3824
  26   2.0000      -0.482631       -13.1331
  27   2.0000      -0.468008       -12.7351
  28   2.0000      -0.446601       -12.1526
  29   2.0000      -0.431916       -11.7530
  30   2.0000      -0.416867       -11.3435
  31   2.0000      -0.403793       -10.9878
  32   2.0000      -0.383798       -10.4437
  33   2.0000      -0.370407       -10.0793
  34   2.0000      -0.361816        -9.8455
  35   2.0000      -0.360422        -9.8076
  36   2.0000      -0.351177        -9.5560
  37   2.0000      -0.325628        -8.8608
  38   2.0000      -0.310924        -8.4607
  39   2.0000      -0.298632        -8.1262
  40   2.0000      -0.287615        -7.8264
  41   2.0000      -0.270116        -7.3502
  42   2.0000      -0.252379        -6.8676
  43   2.0000      -0.250195        -6.8081
  44   2.0000      -0.239812        -6.5256
  45   2.0000      -0.218030        -5.9329
  46   2.0000      -0.217122        -5.9082
  47   2.0000      -0.204220        -5.5571
  48   0.0000       0.009485         0.2581
  49   0.0000       0.015770         0.4291
  50   0.0000       0.023758         0.6465
  51   0.0000       0.051423         1.3993
  52   0.0000       0.063246         1.7210

MULLIKEN ATOMIC CHARGES
-----------------------
   0 C :    0.079453
   1 C :    0.028394
   2 H :    0.071073
   3 C :    0.038891
   4 H :    0.037725
   5 C :    0.108268
   6 H :    0.061539
   7 C :   -0.017886
   8 H :    0.083048
   9 C :    0.192853
  10 H :    0.073002
  11 O :   -0.330709
  12 O :   -0.410392
  13 O :   -0.404623
  14 O :   -0.425383
  15 O :   -0.405953
  16 O :   -0.430934
  17 H :    0.055950
  18 H :    0.071262
  19 H :    0.306898
  20 H :    0.310243
  21 H :    0.302309
  22 H :    0.304518
  23 H :    0.300455
Sum of atomic charges:    0.0000000

LOEWDIN ATOMIC CHARGES
----------------------
   0 C :   -0.130141
   1 C :   -0.083975
   2 H :    0.114913
   3 C :   -0.073610
   4 H :    0.099788
   5 C :   -0.066537
   6 H :    0.118744
   7 C :   -0.092340
   8 H :    0.112209
   9 C :    0.007445
  10 H :    0.101422
  11 O :   -0.146619
  12 O :   -0.317507
  13 O :   -0.306245
  14 O :   -0.313182
  15 O :   -0.309695
  16 O :   -0.333372
  17 H :    0.091269
  18 H :    0.108438
  19 H :    0.288490
  20 H :    0.292084
  21 H :    0.272820
  22 H :    0.285257
  23 H :    0.280342

  Mayer bond orders larger than 0.100000
B(  0-C ,  1-C ) :   1.0463 B(  0-C , 16-O ) :   1.0901 B(  0-C , 17-H ) :   0.9003
B(  0-C , 18-H ) :   0.9116 B(  1-C ,  2-H ) :   0.8506 B(  1-C ,  3-C ) :   1.0520
B(  1-C , 11-O ) :   0.9390 B(  3-C ,  4-H ) :   0.8561 B(  3-C ,  5-C ) :   0.9960
B(  3-C , 15-O ) :   1.0742 B(  5-C ,  6-H ) :   0.8630 B(  5-C ,  7-C ) :   0.9931
B(  5-C , 14-O ) :   1.0543 B(  7-C ,  8-H ) :   0.8896 B(  7-C ,  9-C ) :   1.0270
B(  7-C , 13-O ) :   1.0389 B(  9-C , 10-H ) :   0.8957 B(  9-C , 11-O ) :   1.0768
B(  9-C , 12-O ) :   1.0891 B( 12-O , 19-H ) :   0.8391 B( 13-O , 20-H ) :   0.8457
B( 14-O , 21-H ) :   0.8264 B( 15-O , 22-H ) :   0.8425 B( 16-O , 23-H ) :   0.8404

Dispersion correction           -0.024763023
FINAL SINGLE POINT ENERGY      -685.691857801874

DIPOLE MOMENT
-------------

Method             : SCF
Type of density    : Electron Density
Multiplicity       :   1
Irrep              :   0
Energy             :  -685.8234955214818456 Eh
Relativity type    :
Basis              : AO
                                X                 Y                 Z
Electronic contribution:      1.737978029      -0.466600520       0.384811864
Nuclear contribution   :     -1.411339533      -0.008998304      -0.815218115
                        -----------------------------------------
Total Dipole Moment    :      0.326638496      -0.475598825      -0.430406252
                        -----------------------------------------
Magnitude (a.u.)       :      0.719816984
Magnitude (Debye)      :      1.829629370

Rotational constants in cm-1:             0.040745             0.026011             0.021715
Rotational constants in MHz :          1221.514412           779.788193           650.992965

                             ****ORCA TERMINATED NORMALLY****
TOTAL RUN TIME: 0 days 0 hours 0 minutes 9 seconds 417 msec
