                         Program Version 6.0.1  -  RELEASE   -
|  1> ! r2scan-3c def2/J RI DEFGRID2 scfconv6 printgap
|  2> %output
|  3>     printlevel normal
|  4> end
|  5> * xyz 0 1
|  6> C -1.7522530468 -0.8022187194 0.0049899563
|  7> C -0.5024945054 0.0032356697 -0.336571192
|  8> C -0.6377811958 1.4492424201 0.13297144
|  9> C 0.7369339459 -0.6455391539 0.293752089
| 10> O 1.9396045322 -0.0109725536 -0.0701921549
| 11> H -1.6671068683 -1.8233414114 -0.3604352145
| 12> H -2.6299766897 -0.346890236 -0.4472826847
| 13> H -1.8978802002 -0.8342156906 1.0824103265
| 14> H -0.3685105284 -0.0009577381 -1.4267225898
| 15> H -1.436765678 1.9550080634 -0.4041334
| 16> H 0.2925125347 1.9868338353 -0.0346055779
| 17> H -0.8620785582 1.4782108217 1.1969146695
| 18> H 0.6863685276 -0.5686481759 1.382359652
| 19> H 0.7718213492 -1.7120298724 0.0233170636
| 20> H 2.0102572613 -0.0160414743 -1.0313893862
| 21> *
| 22>
| 23>                          ****END OF INPUT****

CARTESIAN COORDINATES (ANGSTROEM)
---------------------------------
  C     -1.752253   -0.802219    0.004990
  C     -0.502495    0.003236   -0.336571
  C     -0.637781    1.449242    0.132971
  C      0.736934   -0.645539    0.293752
  O      1.939605   -0.010973   -0.070192
  H     -1.667107   -1.823341   -0.360435
  H     -2.629977   -0.346890   -0.447283
  H     -1.897880   -0.834216    1.082410
  H     -0.368511   -0.000958   -1.426723
  H     -1.436766    1.955008   -0.404133
  H      0.292513    1.986834   -0.034606
  H     -0.862079    1.478211    1.196915
  H      0.686369   -0.568648    1.382360
  H      0.771821   -1.712030    0.023317
  H      2.010257   -0.016041   -1.031389

 Total Charge           Charge          ....    0
 Multiplicity           Mult            ....    1
 Number of Electrons    NEL             ....   42
 Basis Dimension        Dim             ....  150

ORBITAL ENERGIES
----------------

  NO   OCC          E(Eh)            E(eV)
   0   2.0000     -18.946703      -515.5660
   1   2.0000     -10.071406      -274.0569
   2   2.0000     -10.036656      -273.1113
   3   2.0000     -10.021062      -272.6870
   4   2.0000     -10.013273      -272.4750
   5   2.0000      -0.986217       -26.8363
   6   2.0000      -0.767907       -20.8958
   7   2.0000      -0.652126       -17.7452
   8   2.0000      -0.638970       -17.3873
   9   2.0000      -0.544515       -14.8170
  10   2.0000      -0.464705       -12.6453
  11   2.0000      -0.441292       -12.0082
  12   2.0000      -0.413236       -11.2447
  13   2.0000      -0.382576       -10.4104
  14   2.0000      -0.370514       -10.0822
  15   2.0000      -0.354954        -9.6588
  16   2.0000      -0.332776        -9.0553
  17   2.0000      -0.310064        -8.4373
  18   2.0000      -0.304059        -8.2739
  19   2.0000      -0.283693        -7.7197
  20   2.0000      -0.233921        -6.3653
  21   0.0000       0.063310         1.7228
  22   0.0000       0.090903         2.4736
  23   0.0000       0.123495         3.3605
  24   0.0000       0.133661         3.6371
  25   0.0000       0.139188         3.7875

MULLIKEN ATOMIC CHARGES
-----------------------
   0 C :   -0.491549
   1 C :   -0.010877
   2 C :   -0.488395
   3 C :   -0.178657
   4 O :   -0.417643
   5 H :    0.145849
   6 H :    0.149395
   7 H :    0.148162
   8 H :    0.127705
   9 H :    0.145728
  10 H :    0.167262
  11 H :    0.144001
  12 H :    0.139769
  13 H :    0.126767
  14 H :    0.292484
Sum of atomic charges:    0.0000000

LOEWDIN ATOMIC CHARGES
----------------------
   0 C :   -0.415238
   1 C :   -0.240835
   2 C :   -0.414386
   3 C :    0.003847
   4 O :   -0.618620
   5 H :    0.153348
   6 H :    0.155770
   7 H :    0.155161
   8 H :    0.152756
   9 H :    0.151903
  10 H :    0.164024
  11 H :    0.154398
  12 H :    0.178241
  13 H :    0.157089
  14 H :    0.262542

  Mayer bond orders larger than 0.100000
B(  0-C ,  1-C ) :   0.9105 B(  0-C ,  5-H ) :   0.9722 B(  0-C ,  6-H ) :   0.9702
B(  0-C ,  7-H ) :   0.9849 B(  1-C ,  2-C ) :   0.9113 B(  1-C ,  3-C ) :   0.9228
B(  1-C ,  8-H ) :   0.9456 B(  2-C ,  9-H ) :   0.9741 B(  2-C , 10-H ) :   0.9676
B(  2-C , 11-H ) :   0.9823 B(  3-C ,  4-O ) :   0.9477 B(  3-C , 12-H ) :   0.9778
B(  3-C , 13-H ) :   0.9741 B(  4-O , 14-H ) :   0.8958

Dispersion correction           -0.003233605
FINAL SINGLE POINT ENERGY      -233.600452616545

DIPOLE MOMENT
-------------

Method             : SCF
Type of density    : Electron Density
Multiplicity       :   1
Irrep              :   0
Energy             :  -233.6057200887011618 Eh
Relativity type    :
Basis              : AO
                                X                 Y                 Z
Electronic contribution:      4.331088284      -0.303389496      -0.411612786
Nuclear contribution   :     -4.757126152       0.110473055      -0.019398835
                        -----------------------------------------
Total Dipole Moment    :     -0.426037868      -0.192916441      -0.431011621
                        -----------------------------------------
Magnitude (a.u.)       :      0.636000028
Magnitude (Debye)      :      1.616583599

Rotational constants in cm-1:             0.254203             0.117085             0.089398
Rotational constants in MHz :          7620.821036          3510.112377          2680.091577

                             ****ORCA TERMINATED NORMALLY****
TOTAL RUN TIME: 0 days 0 hours 0 minutes 12 seconds 568 msec
