                         Program Version 6.0.1  -  RELEASE   -
|  1> ! pbe def2-sv(p) def2/J RI DEFGRID1 loosescf d4 GCP(DFT/SV(P)) printgap
|  2> %output
|  3>     printlevel normal
|  4> end
|  5> * xyz 0 1
|  6> C 1.7081274748 0.0068121096 -0.9131369375
|  7> N 1.1018103538 -0.002171897 0.4056371389
|  8> C 0.3231408874 -1.1918913278 0.6912933012
|  9> C -1.0693969032 -1.1673526732 0.0077486467
| 10> O -1.2405347703 -0.0003472545 -0.7652206905
| 11> C -1.0612649437 1.1728987816 -0.0033911864
| 12> C 0.3191110086 1.1811433185 0.7045977087
| 13> H 0.9866725794 0.0057737335 -1.7376062775
| 14> H 2.3453994982 -0.8728581991 -1.0018247573
| 15> H 2.3351153149 0.8945437871 -0.9946706796
| 16> H 0.89461119 -2.0630883513 0.3693980829
| 17> H 0.2024747575 -1.2457253975 1.7784404736
| 18> H -1.1861124604 -1.9949624805 -0.6938033652
| 19> H -1.8691192912 -1.2290616936 0.7628599853
| 20> H -1.1503753362 1.993476945 -0.7171954561
| 21> H -1.8727331668 1.2590638393 0.7367523203
| 22> H 0.8958198359 2.0594181566 0.4123872684
| 23> H 0.18038394 1.2099260175 1.7904291717
| 24> *
| 25>
| 26>                          ****END OF INPUT****

CARTESIAN COORDINATES (ANGSTROEM)
---------------------------------
  C      1.708127    0.006812   -0.913137
  N      1.101810   -0.002172    0.405637
  C      0.323141   -1.191891    0.691293
  C     -1.069397   -1.167353    0.007749
  O     -1.240535   -0.000347   -0.765221
  C     -1.061265    1.172899   -0.003391
  C      0.319111    1.181143    0.704598
  H      0.986673    0.005774   -1.737606
  H      2.345399   -0.872858   -1.001825
  H      2.335115    0.894544   -0.994671
  H      0.894611   -2.063088    0.369398
  H      0.202475   -1.245725    1.778440
  H     -1.186112   -1.994962   -0.693803
  H     -1.869119   -1.229062    0.762860
  H     -1.150375    1.993477   -0.717195
  H     -1.872733    1.259064    0.736752
  H      0.895820    2.059418    0.412387
  H      0.180384    1.209926    1.790429

 Total Charge           Charge          ....    0
 Multiplicity           Mult            ....    1
 Number of Electrons    NEL             ....   56
 Basis Dimension        Dim             ....  120

ORBITAL ENERGIES
----------------

  NO   OCC          E(Eh)            E(eV)
   0   2.0000     -18.754506      -510.3360
   1   2.0000     -13.984536      -380.5386
   2   2.0000      -9.927561      -270.1427
   3   2.0000      -9.927503      -270.1411
   4   2.0000      -9.908572      -269.6260
   5   2.0000      -9.908478      -269.6234
   6   2.0000      -9.894273      -269.2369
   7   2.0000      -0.943664       -25.6784
   8   2.0000      -0.833148       -22.6711
   9   2.0000      -0.690511       -18.7898
  10   2.0000      -0.646599       -17.5948
  11   2.0000      -0.589315       -16.0361
  12   2.0000      -0.571296       -15.5458
  13   2.0000      -0.478938       -13.0326
  14   2.0000      -0.454102       -12.3568
  15   2.0000      -0.448868       -12.2143
  16   2.0000      -0.437829       -11.9139
  17   2.0000      -0.395503       -10.7622
  18   2.0000      -0.382373       -10.4049
  19   2.0000      -0.370378       -10.0785
  20   2.0000      -0.351221        -9.5572
  21   2.0000      -0.340075        -9.2539
  22   2.0000      -0.322746        -8.7824
  23   2.0000      -0.316027        -8.5995
  24   2.0000      -0.292742        -7.9659
  25   2.0000      -0.265405        -7.2220
  26   2.0000      -0.217570        -5.9204
  27   2.0000      -0.158764        -4.3202
  28   0.0000       0.023269         0.6332
  29   0.0000       0.051910         1.4125
  30   0.0000       0.068745         1.8706
  31   0.0000       0.074628         2.0307
  32   0.0000       0.081655         2.2219

MULLIKEN ATOMIC CHARGES
-----------------------
   0 C :   -0.178684
   1 N :   -0.290069
   2 C :   -0.080447
   3 C :    0.014531
   4 O :   -0.327260
   5 C :    0.015498
   6 C :   -0.083458
   7 H :    0.099068
   8 H :    0.097139
   9 H :    0.096862
  10 H :    0.087572
  11 H :    0.078104
  12 H :    0.091670
  13 H :    0.060540
  14 H :    0.091495
  15 H :    0.060931
  16 H :    0.088155
  17 H :    0.078353
Sum of atomic charges:   -0.0000000

LOEWDIN ATOMIC CHARGES
----------------------
   0 C :   -0.265203
   1 N :   -0.138188
   2 C :   -0.179275
   3 C :   -0.131286
   4 O :   -0.158919
   5 C :   -0.131518
   6 C :   -0.179606
   7 H :    0.096728
   8 H :    0.111301
   9 H :    0.111300
  10 H :    0.115941
  11 H :    0.109449
  12 H :    0.113397
  13 H :    0.093494
  14 H :    0.113157
  15 H :    0.093697
  16 H :    0.116064
  17 H :    0.109467

  Mayer bond orders larger than 0.100000
B(  0-C ,  1-N ) :   1.0323 B(  0-C ,  7-H ) :   0.9305 B(  0-C ,  8-H ) :   0.9541
B(  0-C ,  9-H ) :   0.9539 B(  1-N ,  2-C ) :   1.0830 B(  1-N ,  6-C ) :   1.0840
B(  2-C ,  3-C ) :   1.0645 B(  2-C , 10-H ) :   0.9272 B(  2-C , 11-H ) :   0.9187
B(  3-C ,  4-O ) :   1.0471 B(  3-C , 12-H ) :   0.9352 B(  3-C , 13-H ) :   0.9100
B(  4-O ,  5-C ) :   1.0463 B(  5-C ,  6-C ) :   1.0637 B(  5-C , 14-H ) :   0.9350
B(  5-C , 15-H ) :   0.9103 B(  6-C , 16-H ) :   0.9274 B(  6-C , 17-H ) :   0.9188

Dispersion correction           -0.015848972
FINAL SINGLE POINT ENERGY      -326.332866058085

DIPOLE MOMENT
-------------

Method             : SCF
Type of density    : Electron Density
Multiplicity       :   1
Irrep              :   0
Energy             :  -326.4059361330361071 Eh
Relativity type    :
Basis              : AO
                                X                 Y                 Z
Electronic contribution:     -1.627764496      -0.014345337      -0.448922491
Nuclear contribution   :      1.640813364       0.015468663       0.652436517
                        -----------------------------------------
Total Dipole Moment    :      0.013048867       0.001123326       0.203514026
                        -----------------------------------------
Magnitude (a.u.)       :      0.203935023
Magnitude (Debye)      :      0.518361633

Rotational constants in cm-1:             0.121893             0.095111             0.076278
Rotational constants in MHz :          3654.264976          2851.357182          2286.757783

                             ****ORCA TERMINATED NORMALLY****
TOTAL RUN TIME: 0 days 0 hours 0 minutes 22 seconds 860 msec
