                         Program Version 6.0.0  -   RELEASE  -
|  1> ! r2SCAN-3c DEF2-TZVP FREQ
|  2> * xyzfile 0 1 censo.xyz
|  3>
|  4>                          ****END OF INPUT****

CARTESIAN COORDINATES (ANGSTROEM)
---------------------------------
  C     -2.426160   -0.706526   -0.000087
  C     -2.426181    0.706449    0.000046
  C     -1.240107    1.401810    0.000095
  C     -0.000020    0.716051    0.000029
  C      1.240053    1.401843   -0.000079
  C      2.426141    0.706513   -0.000114
  C      2.426159   -0.706466    0.000024
  C      1.240088   -1.401822    0.000099
  C      0.000000   -0.716059    0.000037
  C     -1.240067   -1.401851   -0.000056
  H     -3.370583   -1.241793   -0.000197
  H     -3.370621    1.241688    0.000091
  H     -1.235732    2.488347    0.000176
  H      1.235648    2.488381   -0.000163
  H      3.370572    1.241768   -0.000245
  H      3.370606   -1.241693    0.000074
  H      1.235696   -2.488358    0.000188
  H     -1.235661   -2.488387   -0.000124

 Total Charge           Charge          ....    0
 Multiplicity           Mult            ....    1
 Number of Electrons    NEL             ....   68
 Basis Dimension        Dim             ....  358

ORBITAL ENERGIES
----------------

  NO   OCC          E(Eh)            E(eV)
   0   2.0000     -10.048420      -273.4314
   1   2.0000     -10.048131      -273.4235
   2   2.0000     -10.040136      -273.2060
   3   2.0000     -10.040110      -273.2053
   4   2.0000     -10.040079      -273.2044
   5   2.0000     -10.040077      -273.2044
   6   2.0000     -10.039549      -273.1900
   7   2.0000     -10.039548      -273.1900
   8   2.0000     -10.039247      -273.1818
   9   2.0000     -10.039246      -273.1818
  10   2.0000      -0.842146       -22.9160
  11   2.0000      -0.789488       -21.4831
  12   2.0000      -0.742917       -20.2158
  13   2.0000      -0.710200       -19.3255
  14   2.0000      -0.688337       -18.7306
  15   2.0000      -0.595908       -16.2155
  16   2.0000      -0.581177       -15.8146
  17   2.0000      -0.565777       -15.3956
  18   2.0000      -0.484432       -13.1821
  19   2.0000      -0.480619       -13.0783
  20   2.0000      -0.463576       -12.6145
  21   2.0000      -0.418432       -11.3861
  22   2.0000      -0.411106       -11.1868
  23   2.0000      -0.387736       -10.5508
  24   2.0000      -0.385939       -10.5019
  25   2.0000      -0.370099       -10.0709
  26   2.0000      -0.369908       -10.0657
  27   2.0000      -0.339895        -9.2490
  28   2.0000      -0.309630        -8.4255
  29   2.0000      -0.308693        -8.4000
  30   2.0000      -0.302119        -8.2211
  31   2.0000      -0.270209        -7.3528
  32   2.0000      -0.232762        -6.3338
  33   2.0000      -0.205267        -5.5856
  34   0.0000      -0.069885        -1.9017
  35   0.0000      -0.040277        -1.0960
  36   0.0000      -0.007498        -0.2040
  37   0.0000       0.057620         1.5679
  38   0.0000       0.062059         1.6887

MULLIKEN ATOMIC CHARGES
-----------------------
   0 C :   -0.095583
   1 C :   -0.095571
   2 C :   -0.204433
   3 C :    0.181398
   4 C :   -0.204390
   5 C :   -0.095602
   6 C :   -0.095559
   7 C :   -0.204441
   8 C :    0.181421
   9 C :   -0.204389
  10 H :    0.109889
  11 H :    0.109888
  12 H :    0.099392
  13 H :    0.099400
  14 H :    0.109895
  15 H :    0.109896
  16 H :    0.099396
  17 H :    0.099394
Sum of atomic charges:   -0.0000000

LOEWDIN ATOMIC CHARGES
----------------------
   0 C :   -0.141252
   1 C :   -0.141251
   2 C :   -0.101800
   3 C :   -0.092928
   4 C :   -0.101799
   5 C :   -0.141252
   6 C :   -0.141252
   7 C :   -0.101800
   8 C :   -0.092928
   9 C :   -0.101800
  10 H :    0.143266
  11 H :    0.143266
  12 H :    0.146249
  13 H :    0.146249
  14 H :    0.143266
  15 H :    0.143266
  16 H :    0.146249
  17 H :    0.146249

  Mayer bond orders larger than 0.100000
B(  0-C ,  1-C ) :   1.2543 B(  0-C ,  9-C ) :   1.5255 B(  0-C , 10-H ) :   0.9691
B(  1-C ,  2-C ) :   1.5255 B(  1-C , 11-H ) :   0.9691 B(  2-C ,  3-C ) :   1.1947
B(  2-C , 12-H ) :   0.9837 B(  3-C ,  4-C ) :   1.1947 B(  3-C ,  8-C ) :   1.2011
B(  4-C ,  5-C ) :   1.5255 B(  4-C , 13-H ) :   0.9837 B(  5-C ,  6-C ) :   1.2543
B(  5-C , 14-H ) :   0.9691 B(  6-C ,  7-C ) :   1.5255 B(  6-C , 15-H ) :   0.9691
B(  7-C ,  8-C ) :   1.1947 B(  7-C , 16-H ) :   0.9837 B(  8-C ,  9-C ) :   1.1948
B(  9-C , 17-H ) :   0.9837

Dispersion correction           -0.006903931
FINAL SINGLE POINT ENERGY      -385.815823005133

DIPOLE MOMENT
-------------

Method             : SCF
Type of density    : Electron Density
Multiplicity       :   1
Irrep              :   0
Energy             :  -385.8123863909755187 Eh
Relativity type    :
Basis              : AO
                                X                 Y                 Z
Electronic contribution:      0.000000955      -0.000001837       0.000142809
Nuclear contribution   :     -0.000000427       0.000001188      -0.000172665
                        -----------------------------------------
Total Dipole Moment    :      0.000000528      -0.000000649      -0.000029856
                        -----------------------------------------
Magnitude (a.u.)       :      0.000029867
Magnitude (Debye)      :      0.000075917

VIBRATIONAL FREQUENCIES
-----------------------

Scaling factor for frequencies =  1.000000000  (already applied!)

     0:       0.00 cm**-1
     1:       0.00 cm**-1
     2:       0.00 cm**-1
     3:       0.00 cm**-1
     4:       0.00 cm**-1
     5:       0.00 cm**-1
     6:     173.81 cm**-1
     7:     188.47 cm**-1
     8:     369.37 cm**-1
     9:     395.26 cm**-1
    10:     477.34 cm**-1
    11:     482.03 cm**-1
    12:     519.56 cm**-1
    13:     522.69 cm**-1
    14:     637.51 cm**-1
    15:     639.10 cm**-1
    16:     717.48 cm**-1
    17:     773.17 cm**-1
    18:     789.37 cm**-1
    19:     792.33 cm**-1
    20:     814.73 cm**-1
    21:     840.09 cm**-1
    22:     893.05 cm**-1
    23:     935.59 cm**-1
    24:     951.96 cm**-1
    25:     960.49 cm**-1
    26:     965.85 cm**-1
    27:     971.65 cm**-1
    28:    1033.60 cm**-1
    29:    1044.68 cm**-1
    30:    1152.90 cm**-1
    31:    1166.91 cm**-1
    32:    1168.76 cm**-1
    33:    1182.61 cm**-1
    34:    1234.67 cm**-1
    35:    1265.92 cm**-1
    36:    1289.45 cm**-1
    37:    1391.29 cm**-1
    38:    1394.85 cm**-1
    39:    1415.45 cm**-1
    40:    1485.53 cm**-1
    41:    1485.56 cm**-1
    42:    1541.39 cm**-1
    43:    1604.39 cm**-1
    44:    1627.31 cm**-1
    45:    1654.85 cm**-1
    46:    3149.51 cm**-1
    47:    3150.07 cm**-1
    48:    3152.90 cm**-1
    49:    3155.09 cm**-1
    50:    3166.05 cm**-1
    51:    3166.64 cm**-1
    52:    3178.52 cm**-1
    53:    3179.56 cm**-1

IR SPECTRUM
-----------

 Mode   freq       eps      Int      T**2         TX        TY        TZ
       cm**-1   L/(mol*cm) km/mol    a.u.
----------------------------------------------------------------------------
  6:    173.81   0.000526    2.66  0.000944  ( 0.000008 -0.000009 -0.030720)
  7:    188.47   0.000000    0.00  0.000000  ( 0.000006  0.000004 -0.000001)
  8:    369.37   0.000298    1.51  0.000252  (-0.000000  0.015870 -0.000000)
  9:    395.26   0.000000    0.00  0.000000  (-0.000022  0.000013 -0.000000)
 10:    477.34   0.000000    0.00  0.000000  ( 0.000038  0.000041  0.000003)
 11:    482.03   0.004508   22.78  0.002919  (-0.000000 -0.000001 -0.054025)
 12:    519.56   0.000000    0.00  0.000000  (-0.000000  0.000000 -0.000030)
 13:    522.69   0.000000    0.00  0.000000  (-0.000000  0.000000  0.000004)
 14:    637.51   0.000602    3.04  0.000294  (-0.017160 -0.000000 -0.000000)
 15:    639.10   0.000000    0.00  0.000000  (-0.000019  0.000007 -0.000000)
 16:    717.48   0.000000    0.00  0.000000  (-0.000015 -0.000021 -0.000002)
 17:    773.17   0.000000    0.00  0.000000  (-0.000000  0.000000 -0.000003)
 18:    789.37   0.000000    0.00  0.000000  (-0.000035  0.000001  0.000020)
 19:    792.33   0.022081  111.59  0.008697  ( 0.000000 -0.000004  0.093256)
 20:    814.73   0.000019    0.09  0.000007  ( 0.000000 -0.002681 -0.000004)
 21:    840.09   0.000000    0.00  0.000000  (-0.000002 -0.000001 -0.000001)
 22:    893.05   0.000000    0.00  0.000000  (-0.000011  0.000011  0.000002)
 23:    935.59   0.000000    0.00  0.000000  ( 0.000008 -0.000026 -0.000003)
 24:    951.96   0.000487    2.46  0.000160  (-0.000002  0.000002 -0.012633)
 25:    960.49   0.000000    0.00  0.000000  (-0.000000 -0.000000 -0.000004)
 26:    965.85   0.000000    0.00  0.000000  ( 0.000002 -0.000002 -0.000001)
 27:    971.65   0.000000    0.00  0.000000  (-0.000029  0.000005 -0.000001)
 28:   1033.60   0.001809    9.14  0.000546  (-0.023373 -0.000000  0.000000)
 29:   1044.68   0.000000    0.00  0.000000  ( 0.000004  0.000000  0.000001)
 30:   1152.90   0.001191    6.02  0.000322  (-0.000001  0.017954 -0.000000)
 31:   1166.91   0.000000    0.00  0.000000  (-0.000001  0.000002 -0.000003)
 32:   1168.76   0.000107    0.54  0.000029  ( 0.005355  0.000000 -0.000000)
 33:   1182.61   0.000000    0.00  0.000000  (-0.000001  0.000000 -0.000000)
 34:   1234.67   0.000162    0.82  0.000041  ( 0.006397  0.000000 -0.000000)
 35:   1265.92   0.000000    0.00  0.000000  (-0.000000  0.000001  0.000001)
 36:   1289.45   0.001308    6.61  0.000317  (-0.000000  0.017792 -0.000000)
 37:   1391.29   0.000135    0.68  0.000030  (-0.005494 -0.000000  0.000000)
 38:   1394.85   0.000000    0.00  0.000000  ( 0.000002 -0.000000  0.000000)
 39:   1415.45   0.000962    4.86  0.000212  ( 0.000000 -0.014566  0.000000)
 40:   1485.53   0.000000    0.00  0.000000  (-0.000000 -0.000001  0.000000)
 41:   1485.56   0.000000    0.00  0.000000  (-0.000001  0.000000  0.000001)
 42:   1541.39   0.001744    8.81  0.000353  (-0.018789 -0.000000  0.000000)
 43:   1604.39   0.000000    0.00  0.000000  (-0.000001 -0.000001 -0.000001)
 44:   1627.31   0.000674    3.41  0.000129  (-0.000000  0.011368 -0.000000)
 45:   1654.85   0.000000    0.00  0.000000  ( 0.000000  0.000001 -0.000004)
 46:   3149.51   0.000000    0.00  0.000000  (-0.000006  0.000026 -0.000000)
 47:   3150.07   0.001262    6.38  0.000125  ( 0.000001  0.011182 -0.000000)
 48:   3152.90   0.000156    0.79  0.000015  (-0.003933  0.000002  0.000000)
 49:   3155.09   0.000000    0.00  0.000000  ( 0.000002 -0.000004  0.000001)
 50:   3166.05   0.000000    0.00  0.000000  (-0.000009 -0.000073  0.000003)
 51:   3166.64   0.010344   52.27  0.001019  ( 0.000002 -0.031927  0.000000)
 52:   3178.52   0.007699   38.91  0.000756  (-0.027493 -0.000002  0.000000)
 53:   3179.56   0.000000    0.00  0.000000  ( 0.000039  0.000010  0.000001)

--------------------------
THERMOCHEMISTRY AT 298.15K
--------------------------

Temperature         ...   298.15 K
Pressure            ...     1.00 atm
Total Mass          ...   128.17 AMU
Quasi RRHO          ...     True
Cut-Off Frequency   ...     1.00 cm^-1

Throughout the following assumptions are being made:
  (1) The electronic state is orbitally nondegenerate
  (2) There are no thermally accessible electronically excited states
  (3) Hindered rotations indicated by low frequency modes are not
      treated as such but are treated as vibrations and this may
      cause some error
  (4) All equations used are the standard statistical mechanics
      equations for an ideal gas
  (5) All vibrations are strictly harmonic

freq.     173.81  E(vib)   ...       0.38
freq.     188.47  E(vib)   ...       0.36
freq.     369.37  E(vib)   ...       0.21
freq.     395.26  E(vib)   ...       0.20
freq.     477.34  E(vib)   ...       0.15
freq.     482.03  E(vib)   ...       0.15
freq.     519.56  E(vib)   ...       0.13
freq.     522.69  E(vib)   ...       0.13
freq.     637.51  E(vib)   ...       0.09
freq.     639.10  E(vib)   ...       0.09
freq.     717.48  E(vib)   ...       0.07
freq.     773.17  E(vib)   ...       0.05
freq.     789.37  E(vib)   ...       0.05
freq.     792.33  E(vib)   ...       0.05
freq.     814.73  E(vib)   ...       0.05
freq.     840.09  E(vib)   ...       0.04
freq.     893.05  E(vib)   ...       0.03
freq.     935.59  E(vib)   ...       0.03
freq.     951.96  E(vib)   ...       0.03
freq.     960.49  E(vib)   ...       0.03
freq.     965.85  E(vib)   ...       0.03
freq.     971.65  E(vib)   ...       0.03
freq.    1033.60  E(vib)   ...       0.02
freq.    1044.68  E(vib)   ...       0.02
freq.    1152.90  E(vib)   ...       0.01
freq.    1166.91  E(vib)   ...       0.01
freq.    1168.76  E(vib)   ...       0.01
freq.    1182.61  E(vib)   ...       0.01
freq.    1234.67  E(vib)   ...       0.01
freq.    1265.92  E(vib)   ...       0.01
freq.    1289.45  E(vib)   ...       0.01
freq.    1391.29  E(vib)   ...       0.00
freq.    1394.85  E(vib)   ...       0.00
freq.    1415.45  E(vib)   ...       0.00
freq.    1485.53  E(vib)   ...       0.00
freq.    1485.56  E(vib)   ...       0.00
freq.    1541.39  E(vib)   ...       0.00
freq.    1604.39  E(vib)   ...       0.00
freq.    1627.31  E(vib)   ...       0.00
freq.    1654.85  E(vib)   ...       0.00
freq.    3149.51  E(vib)   ...       0.00
freq.    3150.07  E(vib)   ...       0.00
freq.    3152.90  E(vib)   ...       0.00
freq.    3155.09  E(vib)   ...       0.00
freq.    3166.05  E(vib)   ...       0.00
freq.    3166.64  E(vib)   ...       0.00
freq.    3178.52  E(vib)   ...       0.00
freq.    3179.56  E(vib)   ...       0.00

------------
INNER ENERGY
------------

The inner energy is: U= E(el) + E(ZPE) + E(vib) + E(rot) + E(trans)
    E(el)   - is the total energy from the electronic structure calculation
              = E(kin-el) + E(nuc-el) + E(el-el) + E(nuc-nuc)
    E(ZPE)  - the the zero temperature vibrational energy from the frequency calculation
    E(vib)  - the the finite temperature correction to E(ZPE) due to population
              of excited vibrational states
    E(rot)  - is the rotational thermal energy
    E(trans)- is the translational thermal energy

Summary of contributions to the inner energy U:
Electronic energy                ...   -385.81582301 Eh
Zero point energy                ...      0.14637081 Eh      91.85 kcal/mol
Thermal vibrational correction   ...      0.00400728 Eh       2.51 kcal/mol
Thermal rotational correction    ...      0.00141627 Eh       0.89 kcal/mol
Thermal translational correction ...      0.00141627 Eh       0.89 kcal/mol
-----------------------------------------------------------------------
Total thermal energy                   -385.66261237 Eh

Summary of corrections to the electronic energy:
(perhaps to be used in another calculation)
Total thermal correction                  0.00683983 Eh       4.29 kcal/mol
Non-thermal (ZPE) correction              0.14637081 Eh      91.85 kcal/mol
-----------------------------------------------------------------------
Total correction                          0.15321063 Eh      96.14 kcal/mol

--------
ENTHALPY
--------

The enthalpy is H = U + kB*T
                kB is Boltzmann's constant
Total thermal energy              ...   -385.66261237 Eh
Thermal Enthalpy correction       ...      0.00094421 Eh       0.59 kcal/mol
-----------------------------------------------------------------------
Total Enthalpy                    ...   -385.66166816 Eh

WARNING (ORCA/SYM): A non-planar off-center atom subset has been encountered
in function TSymmetryFinder::FilterSubsetShapes() which cannot occur under
regular conditions. The full point group may not be assigned correctly. If the
symmetry appears to be too low, please try increasing the cleaning tolerance
using option SymThresh in the %symmetry input block. If the problem persists,
you may post a message in the ORCA forum.

Note: Rotational entropy computed according to Herzberg
Infrared and Raman Spectra, Chapter V,1, Van Nostrand Reinhold, 1945
Point Group:  C2, Symmetry Number:   2
Rotational constants in cm-1:     0.104129     0.041253     0.029547

Vibrational entropy computed according to the QRRHO of S. Grimme
Chem.Eur.J. 2012 18 9955 using a reference frequency of 100.0 cm-1

-------
ENTROPY
-------

The entropy contributions are T*S = T*(S(el)+S(vib)+S(rot)+S(trans))
     S(el)   - electronic entropy
     S(vib)  - vibrational entropy
     S(rot)  - rotational entropy
     S(trans)- translational entropy
The entropies will be listed as multiplied by the temperature to get
units of energy

Electronic entropy                ...      0.00000000 Eh      0.00 kcal/mol
Vibrational entropy               ...      0.00602772 Eh      3.78 kcal/mol
Rotational entropy                ...      0.01309192 Eh      8.22 kcal/mol
Translational entropy             ...      0.01922279 Eh     12.06 kcal/mol
-----------------------------------------------------------------------
Final entropy term                ...      0.03834243 Eh     24.06 kcal/mol

In case the symmetry of your molecule has not been determined correctly
or in case you have a reason to use a different symmetry number we print
out the resulting rotational entropy values for sn=1,12:

 non-linear molecules -----------------------------------
|  sn= 1 | S(rot)=       0.01374638 Eh      8.63 kcal/mol|
|  sn= 2 | S(rot)=       0.01309192 Eh      8.22 kcal/mol|
|  sn= 3 | S(rot)=       0.01270909 Eh      7.98 kcal/mol|
|  sn= 4 | S(rot)=       0.01243747 Eh      7.80 kcal/mol|
|  sn= 5 | S(rot)=       0.01222678 Eh      7.67 kcal/mol|
|  sn= 6 | S(rot)=       0.01205464 Eh      7.56 kcal/mol|
|  sn= 7 | S(rot)=       0.01190909 Eh      7.47 kcal/mol|
|  sn= 8 | S(rot)=       0.01178301 Eh      7.39 kcal/mol|
|  sn= 9 | S(rot)=       0.01167180 Eh      7.32 kcal/mol|
|  sn=10 | S(rot)=       0.01157232 Eh      7.26 kcal/mol|

                             ****ORCA TERMINATED NORMALLY****
TOTAL RUN TIME: 0 days 0 hours 18 minutes 43 seconds 369 msec
