                         Program Version 6.0.0  -   RELEASE  -
|  1> ! r2SCAN-3c DEF2-TZVP FREQ
|  2> * xyzfile 0 1 vacuum_censo.xyz
|  3>
|  4>                          ****END OF INPUT****

CARTESIAN COORDINATES (ANGSTROEM)
---------------------------------
  C     -2.425372   -0.705806    0.000000
  C     -2.425372    0.705810   -0.000004
  C     -1.239641    1.399178   -0.000002
  C      0.000000    0.715430    0.000000
  C      1.239642    1.399177   -0.000005
  C      2.425372    0.705808   -0.000001
  C      2.425372   -0.705808    0.000008
  C      1.239641   -1.399176    0.000011
  C     -0.000000   -0.715428    0.000005
  C     -1.239642   -1.399175    0.000004
  H     -3.369210   -1.241633   -0.000006
  H     -3.369209    1.241637   -0.000003
  H     -1.236733    2.485633   -0.000002
  H      1.236735    2.485631   -0.000012
  H      3.369209    1.241635   -0.000008
  H      3.369209   -1.241636    0.000013
  H      1.236733   -2.485631    0.000020
  H     -1.236735   -2.485630    0.000004

 Total Charge           Charge          ....    0
 Multiplicity           Mult            ....    1
 Number of Electrons    NEL             ....   68
 Basis Dimension        Dim             ....  358

ORBITAL ENERGIES
----------------

  NO   OCC          E(Eh)            E(eV)
   0   2.0000     -10.047941      -273.4184
   1   2.0000     -10.047648      -273.4104
   2   2.0000     -10.039720      -273.1947
   3   2.0000     -10.039694      -273.1940
   4   2.0000     -10.039656      -273.1929
   5   2.0000     -10.039654      -273.1929
   6   2.0000     -10.039144      -273.1790
   7   2.0000     -10.039142      -273.1789
   8   2.0000     -10.038843      -273.1708
   9   2.0000     -10.038842      -273.1708
  10   2.0000      -0.842782       -22.9333
  11   2.0000      -0.790086       -21.4993
  12   2.0000      -0.743102       -20.2208
  13   2.0000      -0.710657       -19.3380
  14   2.0000      -0.688550       -18.7364
  15   2.0000      -0.596160       -16.2223
  16   2.0000      -0.581447       -15.8220
  17   2.0000      -0.565809       -15.3964
  18   2.0000      -0.484752       -13.1908
  19   2.0000      -0.480618       -13.0783
  20   2.0000      -0.463951       -12.6248
  21   2.0000      -0.418011       -11.3747
  22   2.0000      -0.411300       -11.1920
  23   2.0000      -0.387506       -10.5446
  24   2.0000      -0.386484       -10.5168
  25   2.0000      -0.370364       -10.0781
  26   2.0000      -0.370167       -10.0728
  27   2.0000      -0.339729        -9.2445
  28   2.0000      -0.309994        -8.4354
  29   2.0000      -0.309028        -8.4091
  30   2.0000      -0.301664        -8.2087
  31   2.0000      -0.270329        -7.3560
  32   2.0000      -0.232992        -6.3400
  33   2.0000      -0.205297        -5.5864
  34   0.0000      -0.069713        -1.8970
  35   0.0000      -0.040079        -1.0906
  36   0.0000      -0.006975        -0.1898
  37   0.0000       0.057603         1.5675
  38   0.0000       0.062533         1.7016

MULLIKEN ATOMIC CHARGES
-----------------------
   0 C :   -0.095356
   1 C :   -0.095345
   2 C :   -0.204456
   3 C :    0.182050
   4 C :   -0.204476
   5 C :   -0.095337
   6 C :   -0.095343
   7 C :   -0.204501
   8 C :    0.182083
   9 C :   -0.204430
  10 H :    0.109802
  11 H :    0.109810
  12 H :    0.098980
  13 H :    0.098972
  14 H :    0.109804
  15 H :    0.109805
  16 H :    0.098972
  17 H :    0.098966
Sum of atomic charges:    0.0000000

LOEWDIN ATOMIC CHARGES
----------------------
   0 C :   -0.141327
   1 C :   -0.141327
   2 C :   -0.101743
   3 C :   -0.093368
   4 C :   -0.101743
   5 C :   -0.141327
   6 C :   -0.141327
   7 C :   -0.101743
   8 C :   -0.093368
   9 C :   -0.101743
  10 H :    0.143368
  11 H :    0.143368
  12 H :    0.146385
  13 H :    0.146385
  14 H :    0.143368
  15 H :    0.143368
  16 H :    0.146385
  17 H :    0.146385

  Mayer bond orders larger than 0.100000
B(  0-C ,  1-C ) :   1.2542 B(  0-C ,  9-C ) :   1.5262 B(  0-C , 10-H ) :   0.9692
B(  1-C ,  2-C ) :   1.5263 B(  1-C , 11-H ) :   0.9691 B(  2-C ,  3-C ) :   1.1947
B(  2-C , 12-H ) :   0.9838 B(  3-C ,  4-C ) :   1.1947 B(  3-C ,  8-C ) :   1.2010
B(  4-C ,  5-C ) :   1.5262 B(  4-C , 13-H ) :   0.9839 B(  5-C ,  6-C ) :   1.2542
B(  5-C , 14-H ) :   0.9692 B(  6-C ,  7-C ) :   1.5262 B(  6-C , 15-H ) :   0.9692
B(  7-C ,  8-C ) :   1.1947 B(  7-C , 16-H ) :   0.9839 B(  8-C ,  9-C ) :   1.1946
B(  9-C , 17-H ) :   0.9839

Dispersion correction           -0.006908075
FINAL SINGLE POINT ENERGY      -385.815873900763

DIPOLE MOMENT
-------------

Method             : SCF
Type of density    : Electron Density
Multiplicity       :   1
Irrep              :   0
Energy             :  -385.8124409023438375 Eh
Relativity type    :
Basis              : AO
                                X                 Y                 Z
Electronic contribution:     -0.000000210       0.000000115       0.000005976
Nuclear contribution   :      0.000000092      -0.000000159      -0.000007674
                        -----------------------------------------
Total Dipole Moment    :     -0.000000118      -0.000000044      -0.000001698
                        -----------------------------------------
Magnitude (a.u.)       :      0.000001703
Magnitude (Debye)      :      0.000004328

VIBRATIONAL FREQUENCIES
-----------------------

Scaling factor for frequencies =  1.000000000  (already applied!)

     0:       0.00 cm**-1
     1:       0.00 cm**-1
     2:       0.00 cm**-1
     3:       0.00 cm**-1
     4:       0.00 cm**-1
     5:       0.00 cm**-1
     6:     170.89 cm**-1
     7:     185.42 cm**-1
     8:     368.09 cm**-1
     9:     393.19 cm**-1
    10:     475.83 cm**-1
    11:     479.66 cm**-1
    12:     520.07 cm**-1
    13:     523.34 cm**-1
    14:     637.70 cm**-1
    15:     638.21 cm**-1
    16:     716.85 cm**-1
    17:     775.40 cm**-1
    18:     788.75 cm**-1
    19:     791.78 cm**-1
    20:     815.50 cm**-1
    21:     840.03 cm**-1
    22:     893.00 cm**-1
    23:     935.99 cm**-1
    24:     952.45 cm**-1
    25:     961.01 cm**-1
    26:     965.95 cm**-1
    27:     971.77 cm**-1
    28:    1036.74 cm**-1
    29:    1047.50 cm**-1
    30:    1154.28 cm**-1
    31:    1168.74 cm**-1
    32:    1171.07 cm**-1
    33:    1183.37 cm**-1
    34:    1237.60 cm**-1
    35:    1267.72 cm**-1
    36:    1291.38 cm**-1
    37:    1396.77 cm**-1
    38:    1400.97 cm**-1
    39:    1416.82 cm**-1
    40:    1487.97 cm**-1
    41:    1487.98 cm**-1
    42:    1545.27 cm**-1
    43:    1608.88 cm**-1
    44:    1631.99 cm**-1
    45:    1660.41 cm**-1
    46:    3150.42 cm**-1
    47:    3151.08 cm**-1
    48:    3153.47 cm**-1
    49:    3155.73 cm**-1
    50:    3167.54 cm**-1
    51:    3168.06 cm**-1
    52:    3180.41 cm**-1
    53:    3181.40 cm**-1

IR SPECTRUM
-----------

 Mode   freq       eps      Int      T**2         TX        TY        TZ
       cm**-1   L/(mol*cm) km/mol    a.u.
----------------------------------------------------------------------------
  6:    170.89   0.000520    2.63  0.000949  ( 0.000000 -0.000002 -0.030808)
  7:    185.42   0.000000    0.00  0.000000  ( 0.000001 -0.000006  0.000000)
  8:    368.09   0.000302    1.53  0.000256  ( 0.000000 -0.016010  0.000000)
  9:    393.19   0.000000    0.00  0.000000  ( 0.000001 -0.000000 -0.000001)
 10:    475.83   0.000000    0.00  0.000000  (-0.000003 -0.000002 -0.000000)
 11:    479.66   0.004479   22.63  0.002914  (-0.000001  0.000001 -0.053980)
 12:    520.07   0.000000    0.00  0.000000  (-0.000000 -0.000000  0.000001)
 13:    523.34   0.000000    0.00  0.000000  (-0.000000 -0.000000 -0.000000)
 14:    637.70   0.000607    3.07  0.000297  ( 0.017239 -0.000000 -0.000000)
 15:    638.21   0.000000    0.00  0.000000  (-0.000001  0.000003 -0.000000)
 16:    716.85   0.000000    0.00  0.000000  (-0.000001 -0.000001 -0.000000)
 17:    775.40   0.000000    0.00  0.000000  (-0.000000  0.000000 -0.000000)
 18:    788.75   0.000000    0.00  0.000000  ( 0.000000 -0.000000  0.000002)
 19:    791.78   0.022033  111.35  0.008684  ( 0.000001  0.000001 -0.093187)
 20:    815.50   0.000020    0.10  0.000008  (-0.000000  0.002740  0.000000)
 21:    840.03   0.000000    0.00  0.000000  ( 0.000000 -0.000001 -0.000000)
 22:    893.00   0.000000    0.00  0.000000  (-0.000000  0.000001  0.000000)
 23:    935.99   0.000000    0.00  0.000000  ( 0.000001 -0.000001  0.000004)
 24:    952.45   0.000500    2.52  0.000164  (-0.000000  0.000001 -0.012794)
 25:    961.01   0.000000    0.00  0.000000  (-0.000000  0.000000  0.000000)
 26:    965.95   0.000000    0.00  0.000000  ( 0.000000 -0.000002  0.000000)
 27:    971.77   0.000000    0.00  0.000000  (-0.000001 -0.000000  0.000000)
 28:   1036.74   0.001816    9.18  0.000547  ( 0.023378  0.000000 -0.000000)
 29:   1047.50   0.000000    0.00  0.000000  (-0.000000  0.000000  0.000000)
 30:   1154.28   0.001187    6.00  0.000321  (-0.000000  0.017910 -0.000000)
 31:   1168.74   0.000000    0.00  0.000000  (-0.000000  0.000000  0.000000)
 32:   1171.07   0.000097    0.49  0.000026  (-0.005075 -0.000000 -0.000000)
 33:   1183.37   0.000000    0.00  0.000000  (-0.000000 -0.000000  0.000000)
 34:   1237.60   0.000171    0.87  0.000043  ( 0.006572  0.000000  0.000000)
 35:   1267.72   0.000000    0.00  0.000000  (-0.000000  0.000000 -0.000000)
 36:   1291.38   0.001293    6.53  0.000312  ( 0.000000 -0.017675  0.000000)
 37:   1396.77   0.000133    0.67  0.000030  ( 0.005450  0.000000 -0.000000)
 38:   1400.97   0.000000    0.00  0.000000  ( 0.000000 -0.000000 -0.000000)
 39:   1416.82   0.000989    5.00  0.000218  (-0.000000 -0.014756  0.000000)
 40:   1487.97   0.000000    0.00  0.000000  (-0.000000 -0.000000 -0.000000)
 41:   1487.98   0.000000    0.00  0.000000  (-0.000000  0.000000  0.000000)
 42:   1545.27   0.001728    8.73  0.000349  (-0.018681  0.000000 -0.000000)
 43:   1608.88   0.000000    0.00  0.000000  (-0.000000 -0.000000  0.000000)
 44:   1631.99   0.000651    3.29  0.000124  ( 0.000000 -0.011156  0.000000)
 45:   1660.41   0.000000    0.00  0.000000  (-0.000000  0.000000  0.000000)
 46:   3150.42   0.000000    0.00  0.000000  (-0.000000 -0.000000  0.000000)
 47:   3151.08   0.001697    8.57  0.000168  ( 0.000000 -0.012963  0.000000)
 48:   3153.47   0.000113    0.57  0.000011  ( 0.003342  0.000000  0.000000)
 49:   3155.73   0.000000    0.00  0.000000  ( 0.000000 -0.000000 -0.000000)
 50:   3167.54   0.000000    0.00  0.000000  (-0.000000 -0.000000 -0.000000)
 51:   3168.06   0.010122   51.15  0.000997  ( 0.000000  0.031576 -0.000000)
 52:   3180.41   0.007734   39.08  0.000759  ( 0.027547 -0.000000  0.000000)
 53:   3181.40   0.000000    0.00  0.000000  ( 0.000000  0.000000 -0.000000)

--------------------------
THERMOCHEMISTRY AT 298.15K
--------------------------

Temperature         ...   298.15 K
Pressure            ...     1.00 atm
Total Mass          ...   128.17 AMU
Quasi RRHO          ...     True
Cut-Off Frequency   ...     1.00 cm^-1

Throughout the following assumptions are being made:
  (1) The electronic state is orbitally nondegenerate
  (2) There are no thermally accessible electronically excited states
  (3) Hindered rotations indicated by low frequency modes are not
      treated as such but are treated as vibrations and this may
      cause some error
  (4) All equations used are the standard statistical mechanics
      equations for an ideal gas
  (5) All vibrations are strictly harmonic

freq.     170.89  E(vib)   ...       0.38
freq.     185.42  E(vib)   ...       0.37
freq.     368.09  E(vib)   ...       0.21
freq.     393.19  E(vib)   ...       0.20
freq.     475.83  E(vib)   ...       0.15
freq.     479.66  E(vib)   ...       0.15
freq.     520.07  E(vib)   ...       0.13
freq.     523.34  E(vib)   ...       0.13
freq.     637.70  E(vib)   ...       0.09
freq.     638.21  E(vib)   ...       0.09
freq.     716.85  E(vib)   ...       0.07
freq.     775.40  E(vib)   ...       0.05
freq.     788.75  E(vib)   ...       0.05
freq.     791.78  E(vib)   ...       0.05
freq.     815.50  E(vib)   ...       0.05
freq.     840.03  E(vib)   ...       0.04
freq.     893.00  E(vib)   ...       0.03
freq.     935.99  E(vib)   ...       0.03
freq.     952.45  E(vib)   ...       0.03
freq.     961.01  E(vib)   ...       0.03
freq.     965.95  E(vib)   ...       0.03
freq.     971.77  E(vib)   ...       0.03
freq.    1036.74  E(vib)   ...       0.02
freq.    1047.50  E(vib)   ...       0.02
freq.    1154.28  E(vib)   ...       0.01
freq.    1168.74  E(vib)   ...       0.01
freq.    1171.07  E(vib)   ...       0.01
freq.    1183.37  E(vib)   ...       0.01
freq.    1237.60  E(vib)   ...       0.01
freq.    1267.72  E(vib)   ...       0.01
freq.    1291.38  E(vib)   ...       0.01
freq.    1396.77  E(vib)   ...       0.00
freq.    1400.97  E(vib)   ...       0.00
freq.    1416.82  E(vib)   ...       0.00
freq.    1487.97  E(vib)   ...       0.00
freq.    1487.98  E(vib)   ...       0.00
freq.    1545.27  E(vib)   ...       0.00
freq.    1608.88  E(vib)   ...       0.00
freq.    1631.99  E(vib)   ...       0.00
freq.    1660.41  E(vib)   ...       0.00
freq.    3150.42  E(vib)   ...       0.00
freq.    3151.08  E(vib)   ...       0.00
freq.    3153.47  E(vib)   ...       0.00
freq.    3155.73  E(vib)   ...       0.00
freq.    3167.54  E(vib)   ...       0.00
freq.    3168.06  E(vib)   ...       0.00
freq.    3180.41  E(vib)   ...       0.00
freq.    3181.40  E(vib)   ...       0.00

------------
INNER ENERGY
------------

The inner energy is: U= E(el) + E(ZPE) + E(vib) + E(rot) + E(trans)
    E(el)   - is the total energy from the electronic structure calculation
              = E(kin-el) + E(nuc-el) + E(el-el) + E(nuc-nuc)
    E(ZPE)  - the the zero temperature vibrational energy from the frequency calculation
    E(vib)  - the the finite temperature correction to E(ZPE) due to population
              of excited vibrational states
    E(rot)  - is the rotational thermal energy
    E(trans)- is the translational thermal energy

Summary of contributions to the inner energy U:
Electronic energy                ...   -385.81587390 Eh
Zero point energy                ...      0.14649635 Eh      91.93 kcal/mol
Thermal vibrational correction   ...      0.00402013 Eh       2.52 kcal/mol
Thermal rotational correction    ...      0.00141627 Eh       0.89 kcal/mol
Thermal translational correction ...      0.00141627 Eh       0.89 kcal/mol
-----------------------------------------------------------------------
Total thermal energy                   -385.66252488 Eh

Summary of corrections to the electronic energy:
(perhaps to be used in another calculation)
Total thermal correction                  0.00685268 Eh       4.30 kcal/mol
Non-thermal (ZPE) correction              0.14649635 Eh      91.93 kcal/mol
-----------------------------------------------------------------------
Total correction                          0.15334902 Eh      96.23 kcal/mol

--------
ENTHALPY
--------

The enthalpy is H = U + kB*T
                kB is Boltzmann's constant
Total thermal energy              ...   -385.66252488 Eh
Thermal Enthalpy correction       ...      0.00094421 Eh       0.59 kcal/mol
-----------------------------------------------------------------------
Total Enthalpy                    ...   -385.66158067 Eh

Note: Rotational entropy computed according to Herzberg
Infrared and Raman Spectra, Chapter V,1, Van Nostrand Reinhold, 1945
Point Group:  D2h, Symmetry Number:   4
Rotational constants in cm-1:     0.104439     0.041279     0.029586

Vibrational entropy computed according to the QRRHO of S. Grimme
Chem.Eur.J. 2012 18 9955 using a reference frequency of 100.0 cm-1

-------
ENTROPY
-------

The entropy contributions are T*S = T*(S(el)+S(vib)+S(rot)+S(trans))
     S(el)   - electronic entropy
     S(vib)  - vibrational entropy
     S(rot)  - rotational entropy
     S(trans)- translational entropy
The entropies will be listed as multiplied by the temperature to get
units of energy

Electronic entropy                ...      0.00000000 Eh      0.00 kcal/mol
Vibrational entropy               ...      0.00606261 Eh      3.80 kcal/mol
Rotational entropy                ...      0.01243514 Eh      7.80 kcal/mol
Translational entropy             ...      0.01922279 Eh     12.06 kcal/mol
-----------------------------------------------------------------------
Final entropy term                ...      0.03772054 Eh     23.67 kcal/mol

In case the symmetry of your molecule has not been determined correctly
or in case you have a reason to use a different symmetry number we print
out the resulting rotational entropy values for sn=1,12:

 non-linear molecules -----------------------------------
|  sn= 1 | S(rot)=       0.01374406 Eh      8.62 kcal/mol|
|  sn= 2 | S(rot)=       0.01308960 Eh      8.21 kcal/mol|
|  sn= 3 | S(rot)=       0.01270677 Eh      7.97 kcal/mol|
|  sn= 4 | S(rot)=       0.01243514 Eh      7.80 kcal/mol|
|  sn= 5 | S(rot)=       0.01222446 Eh      7.67 kcal/mol|
|  sn= 6 | S(rot)=       0.01205231 Eh      7.56 kcal/mol|
|  sn= 7 | S(rot)=       0.01190677 Eh      7.47 kcal/mol|
|  sn= 8 | S(rot)=       0.01178069 Eh      7.39 kcal/mol|
|  sn= 9 | S(rot)=       0.01166948 Eh      7.32 kcal/mol|
|  sn=10 | S(rot)=       0.01157000 Eh      7.26 kcal/mol|
|  sn=11 | S(rot)=       0.01148001 Eh      7.20 kcal/mol|
|  sn=12 | S(rot)=       0.01139785 Eh      7.15 kcal/mol|
 linear molecules ---------------------------------------
|  Dinfh | S(rot)=       0.00864977 Eh      5.43 kcal/mol|
|  Cinfv | S(rot)=       0.00930422 Eh      5.84 kcal/mol|
 --------------------------------------------------------

                             ****ORCA TERMINATED NORMALLY****
TOTAL RUN TIME: 0 days 0 hours 18 minutes 6 seconds 441 msec
