                         Program Version 6.0.1  -  RELEASE   -
|  1> ! pbe def2-sv(p) def2/J RI DEFGRID1 loosescf d4 GCP(DFT/SV(P)) printgap
|  2> %output
|  3>     printlevel normal
|  4> end
|  5> * xyz 0 1
|  6> C -3.5250283107 0.0002146037 3.70684e-05
|  7> C -2.8401027749 -0.9215531628 -0.7721074982
|  8> C -1.4549596518 -0.9153565376 -0.7669924933
|  9> C -0.7397935752 -5.3004e-06 5.80345e-05
| 10> C -1.4547903471 0.9154459278 0.7671877295
| 11> C -2.8399388781 0.9218424188 0.7722262994
| 12> Cl -0.5853870108 2.0510461661 1.7325013362
| 13> C 0.7397926137 -2.33068e-05 -7.2866e-06
| 14> C 1.4548814821 -0.9153883307 0.7671644753
| 15> C 2.8400186665 -0.921719922 0.7721959432
| 16> C 3.5250400964 -6.19154e-05 -5.35925e-05
| 17> C 2.8400296989 0.9215895229 -0.7722612787
| 18> C 1.4548594579 0.9153115838 -0.7671883284
| 19> Cl 0.5855888363 2.050972897 -1.732552659
| 20> Cl 0.5855178852 -2.0510886443 1.7324436735
| 21> Cl -0.5857248669 -2.0510374156 -1.7324976172
| 22> H -4.6038346788 0.0002221103 0.0002750264
| 23> H -3.369310852 -1.6410869677 -1.3757434356
| 24> H -3.3690046085 1.6412370504 1.376194625
| 25> H 3.3692184445 -1.6411562419 1.3759743925
| 26> H 4.6038474025 -3.59359e-05 -1.69152e-05
| 27> H 3.369164633 1.6410612113 -1.3760682564
| 28> *
| 29>
| 30>                          ****END OF INPUT****

CARTESIAN COORDINATES (ANGSTROEM)
---------------------------------
  C     -3.525028    0.000215    0.000037
  C     -2.840103   -0.921553   -0.772107
  C     -1.454960   -0.915357   -0.766992
  C     -0.739794   -0.000005    0.000058
  C     -1.454790    0.915446    0.767188
  C     -2.839939    0.921842    0.772226
  Cl    -0.585387    2.051046    1.732501
  C      0.739793   -0.000023   -0.000007
  C      1.454881   -0.915388    0.767164
  C      2.840019   -0.921720    0.772196
  C      3.525040   -0.000062   -0.000054
  C      2.840030    0.921590   -0.772261
  C      1.454859    0.915312   -0.767188
  Cl     0.585589    2.050973   -1.732553
  Cl     0.585518   -2.051089    1.732444
  Cl    -0.585725   -2.051037   -1.732498
  H     -4.603835    0.000222    0.000275
  H     -3.369311   -1.641087   -1.375743
  H     -3.369005    1.641237    1.376195
  H      3.369218   -1.641156    1.375974
  H      4.603847   -0.000036   -0.000017
  H      3.369165    1.641061   -1.376068

 Total Charge           Charge          ....    0
 Multiplicity           Mult            ....    1
 Number of Electrons    NEL             ....  146
 Basis Dimension        Dim             ....  252

ORBITAL ENERGIES
----------------

  NO   OCC          E(Eh)            E(eV)
   0   2.0000    -100.646775     -2738.7380
   1   2.0000    -100.646763     -2738.7377
   2   2.0000    -100.646759     -2738.7375
   3   2.0000    -100.646742     -2738.7371
   4   2.0000      -9.963974      -271.1335
   5   2.0000      -9.963924      -271.1322
   6   2.0000      -9.963919      -271.1320
   7   2.0000      -9.963877      -271.1309
   8   2.0000      -9.930440      -270.2210
   9   2.0000      -9.930405      -270.2201
  10   2.0000      -9.913218      -269.7524
  11   2.0000      -9.913216      -269.7523
  12   2.0000      -9.909459      -269.6501
  13   2.0000      -9.909455      -269.6500
  14   2.0000      -9.909454      -269.6499
  15   2.0000      -9.909450      -269.6499
  16   2.0000      -9.182603      -249.8713
  17   2.0000      -9.182594      -249.8711
  18   2.0000      -9.182584      -249.8708
  19   2.0000      -9.182570      -249.8704
  20   2.0000      -7.013925      -190.8586
  21   2.0000      -7.013922      -190.8585
  22   2.0000      -7.013920      -190.8585
  23   2.0000      -7.013913      -190.8583
  24   2.0000      -7.002663      -190.5521
  25   2.0000      -7.002657      -190.5520
  26   2.0000      -7.002653      -190.5519
  27   2.0000      -7.002645      -190.5517
  28   2.0000      -7.001884      -190.5310
  29   2.0000      -7.001879      -190.5308
  30   2.0000      -7.001879      -190.5308
  31   2.0000      -7.001871      -190.5306
  32   2.0000      -0.849323       -23.1113
  33   2.0000      -0.824101       -22.4249
  34   2.0000      -0.806961       -21.9585
  35   2.0000      -0.803251       -21.8576
  36   2.0000      -0.755611       -20.5612
  37   2.0000      -0.755490       -20.5579
  38   2.0000      -0.715633       -19.4734
  39   2.0000      -0.663701       -18.0602
  40   2.0000      -0.663589       -18.0572
  41   2.0000      -0.661633       -18.0039
  42   2.0000      -0.581849       -15.8329
  43   2.0000      -0.551834       -15.0162
  44   2.0000      -0.546557       -14.8726
  45   2.0000      -0.540838       -14.7170
  46   2.0000      -0.491003       -13.3609
  47   2.0000      -0.464143       -12.6300
  48   2.0000      -0.454619       -12.3708
  49   2.0000      -0.449573       -12.2335
  50   2.0000      -0.427439       -11.6312
  51   2.0000      -0.415259       -11.2998
  52   2.0000      -0.400961       -10.9107
  53   2.0000      -0.400904       -10.9091
  54   2.0000      -0.398245       -10.8368
  55   2.0000      -0.376686       -10.2501
  56   2.0000      -0.375426       -10.2159
  57   2.0000      -0.355899        -9.6845
  58   2.0000      -0.340168        -9.2564
  59   2.0000      -0.339146        -9.2286
  60   2.0000      -0.338384        -9.2079
  61   2.0000      -0.330869        -9.0034
  62   2.0000      -0.318225        -8.6593
  63   2.0000      -0.291005        -7.9187
  64   2.0000      -0.286024        -7.7831
  65   2.0000      -0.277759        -7.5582
  66   2.0000      -0.276987        -7.5372
  67   2.0000      -0.271877        -7.3982
  68   2.0000      -0.270386        -7.3576
  69   2.0000      -0.235481        -6.4078
  70   2.0000      -0.228947        -6.2300
  71   2.0000      -0.222621        -6.0578
  72   2.0000      -0.221997        -6.0408
  73   0.0000      -0.062160        -1.6915
  74   0.0000      -0.055234        -1.5030
  75   0.0000      -0.049925        -1.3585
  76   0.0000      -0.049671        -1.3516
  77   0.0000      -0.017390        -0.4732

MULLIKEN ATOMIC CHARGES
-----------------------
   0 C :   -0.035432
   1 C :   -0.087639
   2 C :    0.075681
   3 C :    0.007229
   4 C :    0.075676
   5 C :   -0.087665
   6 Cl:   -0.057011
   7 C :    0.007227
   8 C :    0.075719
   9 C :   -0.087689
  10 C :   -0.035435
  11 C :   -0.087640
  12 C :    0.075665
  13 Cl:   -0.057013
  14 Cl:   -0.057023
  15 Cl:   -0.057042
  16 H :    0.068675
  17 H :    0.048757
  18 H :    0.048762
  19 H :    0.048762
  20 H :    0.068675
  21 H :    0.048761
Sum of atomic charges:    0.0000000

LOEWDIN ATOMIC CHARGES
----------------------
   0 C :   -0.107504
   1 C :   -0.141137
   2 C :   -0.118376
   3 C :   -0.083620
   4 C :   -0.118412
   5 C :   -0.141138
   6 Cl:    0.155403
   7 C :   -0.083617
   8 C :   -0.118398
   9 C :   -0.141140
  10 C :   -0.107506
  11 C :   -0.141137
  12 C :   -0.118412
  13 Cl:    0.155398
  14 Cl:    0.155382
  15 Cl:    0.155342
  16 H :    0.132637
  17 H :    0.133403
  18 H :    0.133397
  19 H :    0.133401
  20 H :    0.132637
  21 H :    0.133398

  Mayer bond orders larger than 0.100000
B(  0-C ,  1-C ) :   1.3349 B(  0-C ,  5-C ) :   1.3350 B(  0-C , 16-H ) :   0.9576
B(  1-C ,  2-C ) :   1.3687 B(  1-C , 17-H ) :   0.9699 B(  2-C ,  3-C ) :   1.4251
B(  2-C , 15-Cl) :   1.0412 B(  3-C ,  4-C ) :   1.4251 B(  3-C ,  7-C ) :   0.9686
B(  4-C ,  5-C ) :   1.3687 B(  4-C ,  6-Cl) :   1.0412 B(  5-C , 18-H ) :   0.9698
B(  7-C ,  8-C ) :   1.4251 B(  7-C , 12-C ) :   1.4251 B(  8-C ,  9-C ) :   1.3687
B(  8-C , 14-Cl) :   1.0412 B(  9-C , 10-C ) :   1.3349 B(  9-C , 19-H ) :   0.9699
B( 10-C , 11-C ) :   1.3350 B( 10-C , 20-H ) :   0.9576 B( 11-C , 12-C ) :   1.3686
B( 11-C , 21-H ) :   0.9698 B( 12-C , 13-Cl) :   1.0412

Dispersion correction           -0.043243855
FINAL SINGLE POINT ENERGY     -2299.411628486130

DIPOLE MOMENT
-------------

Method             : SCF
Type of density    : Electron Density
Multiplicity       :   1
Irrep              :   0
Energy             : -2299.4416037109513127 Eh
Relativity type    :
Basis              : AO
                                X                 Y                 Z
Electronic contribution:     -0.000098838      -0.000272495      -0.000541854
Nuclear contribution   :      0.000082294       0.000369925       0.000718678
                        -----------------------------------------
Total Dipole Moment    :     -0.000016544       0.000097429       0.000176824
                        -----------------------------------------
Magnitude (a.u.)       :      0.000202566
Magnitude (Debye)      :      0.000514881

Rotational constants in cm-1:             0.014302             0.011804             0.010365
Rotational constants in MHz :           428.757008           353.863188           310.723151

                             ****ORCA TERMINATED NORMALLY****
TOTAL RUN TIME: 0 days 0 hours 0 minutes 19 seconds 574 msec
