                         Program Version 6.0.1  -  RELEASE   -
|  1> ! pbe def2-sv(p) def2/J RI DEFGRID1 loosescf d4 GCP(DFT/SV(P)) printgap
|  2> %output
|  3>     printlevel normal
|  4> end
|  5> * xyz 0 1
|  6> C 1.5130079825 0.0284858958 0.5144905333
|  7> C 0.7211338355 0.0960366525 -0.5492624779
|  8> C -0.7211404731 -0.0956212025 -0.5493507377
|  9> C -1.5129818224 -0.0289253429 0.5145237756
| 10> H 2.5759106084 0.1812274729 0.4383757026
| 11> H 1.1333395015 -0.1923164455 1.4975377698
| 12> H 1.1575194034 0.2921426106 -1.5210119284
| 13> H -1.1577129988 -0.2900646374 -1.521377206
| 14> H -2.5759475549 -0.181149793 0.4381278077
| 15> H -1.1333416059 0.1904467627 1.4977480613
| 16> *
| 17>
| 18>                          ****END OF INPUT****

CARTESIAN COORDINATES (ANGSTROEM)
---------------------------------
  C      1.513008    0.028486    0.514491
  C      0.721134    0.096037   -0.549262
  C     -0.721140   -0.095621   -0.549351
  C     -1.512982   -0.028925    0.514524
  H      2.575911    0.181227    0.438376
  H      1.133340   -0.192316    1.497538
  H      1.157519    0.292143   -1.521012
  H     -1.157713   -0.290065   -1.521377
  H     -2.575948   -0.181150    0.438128
  H     -1.133342    0.190447    1.497748

 Total Charge           Charge          ....    0
 Multiplicity           Mult            ....    1
 Number of Electrons    NEL             ....   30
 Basis Dimension        Dim             ....   68

ORBITAL ENERGIES
----------------

  NO   OCC          E(Eh)            E(eV)
   0   2.0000      -9.896928      -269.3091
   1   2.0000      -9.896912      -269.3087
   2   2.0000      -9.883721      -268.9497
   3   2.0000      -9.883682      -268.9487
   4   2.0000      -0.726734       -19.7754
   5   2.0000      -0.652097       -17.7445
   6   2.0000      -0.557099       -15.1594
   7   2.0000      -0.470783       -12.8107
   8   2.0000      -0.444180       -12.0867
   9   2.0000      -0.393823       -10.7165
  10   2.0000      -0.373350       -10.1594
  11   2.0000      -0.321264        -8.7420
  12   2.0000      -0.307094        -8.3565
  13   2.0000      -0.288657        -7.8548
  14   2.0000      -0.208520        -5.6741
  15   0.0000      -0.065363        -1.7786
  16   0.0000       0.043168         1.1747
  17   0.0000       0.053700         1.4613
  18   0.0000       0.066914         1.8208
  19   0.0000       0.090241         2.4556

MULLIKEN ATOMIC CHARGES
-----------------------
   0 C :   -0.196338
   1 C :   -0.076261
   2 C :   -0.076288
   3 C :   -0.196290
   4 H :    0.102897
   5 H :    0.100663
   6 H :    0.069040
   7 H :    0.069041
   8 H :    0.102899
   9 H :    0.100636
Sum of atomic charges:   -0.0000000

LOEWDIN ATOMIC CHARGES
----------------------
   0 C :   -0.231418
   1 C :   -0.137923
   2 C :   -0.137914
   3 C :   -0.231419
   4 H :    0.124691
   5 H :    0.121321
   6 H :    0.123326
   7 H :    0.123323
   8 H :    0.124691
   9 H :    0.121324

  Mayer bond orders larger than 0.100000
B(  0-C ,  1-C ) :   1.9912 B(  0-C ,  3-C ) :   0.1239 B(  0-C ,  4-H ) :   0.9224
B(  0-C ,  5-H ) :   0.9138 B(  1-C ,  2-C ) :   1.1359 B(  1-C ,  6-H ) :   0.9318
B(  2-C ,  3-C ) :   1.9912 B(  2-C ,  7-H ) :   0.9317 B(  3-C ,  8-H ) :   0.9224
B(  3-C ,  9-H ) :   0.9138

Dispersion correction           -0.006017920
FINAL SINGLE POINT ENERGY      -155.605274390064

DIPOLE MOMENT
-------------

Method             : SCF
Type of density    : Electron Density
Multiplicity       :   1
Irrep              :   0
Energy             :  -155.6342823666394111 Eh
Relativity type    :
Basis              : AO
                                X                 Y                 Z
Electronic contribution:      0.000173019      -0.000073482      -0.814753214
Nuclear contribution   :     -0.000218261       0.000268288       0.778115083
                        -----------------------------------------
Total Dipole Moment    :     -0.000045242       0.000194805      -0.036638132
                        -----------------------------------------
Magnitude (a.u.)       :      0.036638678
Magnitude (Debye)      :      0.093128117

Rotational constants in cm-1:             0.715623             0.194433             0.153940
Rotational constants in MHz :         21453.826949          5828.943601          4615.000361

                             ****ORCA TERMINATED NORMALLY****
TOTAL RUN TIME: 0 days 0 hours 0 minutes 10 seconds 420 msec
