                         Program Version 6.0.1  -  RELEASE   -
|  1> ! r2scan-3c def2/J RI DEFGRID2 scfconv6 printgap
|  2> %output
|  3>     printlevel normal
|  4> end
|  5> * xyz 0 1
|  6> C -2.555769208 -0.7157098505 -0.3163877463
|  7> C -1.1795952322 -0.3077742364 0.2234932913
|  8> H -1.2193337934 -0.2754222425 1.3274706985
|  9> C -0.7339014433 1.0646444508 -0.3007963365
| 10> H -0.7525202079 1.0608904698 -1.3963633653
| 11> C 0.6995763087 1.3395088125 0.1748956856
| 12> H 0.6980674804 1.4326851948 1.2769867344
| 13> C 1.6300533414 0.1817101599 -0.2077404052
| 14> H 1.6828866417 0.1305178886 -1.3095711673
| 15> C 1.0449571113 -1.1454415395 0.3157573319
| 16> H 1.0405687097 -1.127915563 1.4166433593
| 17> O -0.2706201683 -1.3080515648 -0.1844571694
| 18> O 1.7759051891 -2.2476817698 -0.0456479233
| 19> O 2.9039589425 0.3597040785 0.3404144934
| 20> O 1.2104810497 2.5213684076 -0.3949747772
| 21> O -1.593069199 2.1083981746 0.084067891
| 22> O -3.0246164573 -1.8788421459 0.3009814585
| 23> H -2.4726124205 -0.8498305759 -1.4034775218
| 24> H -3.2826756026 0.0714627369 -0.107377451
| 25> H 1.8339678616 -2.2909625517 -1.0085390127
| 26> H 3.1850955907 1.2594254261 0.1287699234
| 27> H 0.488435785 3.161633611 -0.4407491337
| 28> H -1.7201021345 2.0800584 1.0407791648
| 29> H -2.3430117105 -2.5555389475 0.2020607424
| 30> *
| 31>
| 32>                          ****END OF INPUT****

CARTESIAN COORDINATES (ANGSTROEM)
---------------------------------
  C     -2.555769   -0.715710   -0.316388
  C     -1.179595   -0.307774    0.223493
  H     -1.219334   -0.275422    1.327471
  C     -0.733901    1.064644   -0.300796
  H     -0.752520    1.060890   -1.396363
  C      0.699576    1.339509    0.174896
  H      0.698067    1.432685    1.276987
  C      1.630053    0.181710   -0.207740
  H      1.682887    0.130518   -1.309571
  C      1.044957   -1.145442    0.315757
  H      1.040569   -1.127916    1.416643
  O     -0.270620   -1.308052   -0.184457
  O      1.775905   -2.247682   -0.045648
  O      2.903959    0.359704    0.340414
  O      1.210481    2.521368   -0.394975
  O     -1.593069    2.108398    0.084068
  O     -3.024616   -1.878842    0.300981
  H     -2.472612   -0.849831   -1.403478
  H     -3.282676    0.071463   -0.107377
  H      1.833968   -2.290963   -1.008539
  H      3.185096    1.259425    0.128770
  H      0.488436    3.161634   -0.440749
  H     -1.720102    2.080058    1.040779
  H     -2.343012   -2.555539    0.202061

 Total Charge           Charge          ....    0
 Multiplicity           Mult            ....    1
 Number of Electrons    NEL             ....   96
 Basis Dimension        Dim             ....  318

ORBITAL ENERGIES
----------------

  NO   OCC          E(Eh)            E(eV)
   0   2.0000     -18.984145      -516.5848
   1   2.0000     -18.980793      -516.4936
   2   2.0000     -18.971590      -516.2432
   3   2.0000     -18.969879      -516.1966
   4   2.0000     -18.960914      -515.9527
   5   2.0000     -18.954439      -515.7765
   6   2.0000     -10.146619      -276.1035
   7   2.0000     -10.105409      -274.9821
   8   2.0000     -10.103973      -274.9431
   9   2.0000     -10.101292      -274.8701
  10   2.0000     -10.098033      -274.7814
  11   2.0000     -10.086567      -274.4694
  12   2.0000      -1.060623       -28.8610
  13   2.0000      -1.031131       -28.0585
  14   2.0000      -1.014054       -27.5938
  15   2.0000      -1.002280       -27.2734
  16   2.0000      -0.994157       -27.0524
  17   2.0000      -0.986906       -26.8551
  18   2.0000      -0.761675       -20.7262
  19   2.0000      -0.743556       -20.2332
  20   2.0000      -0.663997       -18.0683
  21   2.0000      -0.630068       -17.1450
  22   2.0000      -0.600800       -16.3486
  23   2.0000      -0.586461       -15.9584
  24   2.0000      -0.535434       -14.5699
  25   2.0000      -0.517488       -14.0816
  26   2.0000      -0.502829       -13.6827
  27   2.0000      -0.483867       -13.1667
  28   2.0000      -0.477390       -12.9905
  29   2.0000      -0.463794       -12.6205
  30   2.0000      -0.444073       -12.0839
  31   2.0000      -0.441873       -12.0240
  32   2.0000      -0.421339       -11.4652
  33   2.0000      -0.402525       -10.9533
  34   2.0000      -0.388613       -10.5747
  35   2.0000      -0.381081       -10.3697
  36   2.0000      -0.355526        -9.6744
  37   2.0000      -0.349754        -9.5173
  38   2.0000      -0.337193        -9.1755
  39   2.0000      -0.328789        -8.9468
  40   2.0000      -0.317604        -8.6424
  41   2.0000      -0.314040        -8.5455
  42   2.0000      -0.287166        -7.8142
  43   2.0000      -0.270183        -7.3521
  44   2.0000      -0.264515        -7.1978
  45   2.0000      -0.249343        -6.7850
  46   2.0000      -0.247092        -6.7237
  47   2.0000      -0.234293        -6.3754
  48   0.0000       0.020281         0.5519
  49   0.0000       0.041468         1.1284
  50   0.0000       0.061271         1.6673
  51   0.0000       0.069242         1.8842
  52   0.0000       0.077471         2.1081

MULLIKEN ATOMIC CHARGES
-----------------------
   0 C :   -0.254904
   1 C :   -0.067463
   2 H :    0.181641
   3 C :   -0.088331
   4 H :    0.176475
   5 C :    0.015807
   6 H :    0.168044
   7 C :    0.084258
   8 H :    0.158898
   9 C :   -0.162363
  10 H :    0.155386
  11 O :   -0.198396
  12 O :   -0.346628
  13 O :   -0.416857
  14 O :   -0.439327
  15 O :   -0.420468
  16 O :   -0.410790
  17 H :    0.142020
  18 H :    0.156200
  19 H :    0.311987
  20 H :    0.317708
  21 H :    0.314133
  22 H :    0.305955
  23 H :    0.317014
Sum of atomic charges:    0.0000000

LOEWDIN ATOMIC CHARGES
----------------------
   0 C :    0.041686
   1 C :    0.102908
   2 H :    0.182076
   3 C :    0.097284
   4 H :    0.200961
   5 C :    0.096666
   6 H :    0.179747
   7 C :    0.116056
   8 H :    0.180916
   9 C :    0.300281
  10 H :    0.199401
  11 O :   -0.689533
  12 O :   -0.459096
  13 O :   -0.552530
  14 O :   -0.580797
  15 O :   -0.579045
  16 O :   -0.586058
  17 H :    0.169604
  18 H :    0.189680
  19 H :    0.277512
  20 H :    0.282861
  21 H :    0.282035
  22 H :    0.272663
  23 H :    0.274724

  Mayer bond orders larger than 0.100000
B(  0-C ,  1-C ) :   0.9421 B(  0-C , 16-O ) :   1.0056 B(  0-C , 17-H ) :   0.9948
B(  0-C , 18-H ) :   0.9658 B(  1-C ,  2-H ) :   0.9606 B(  1-C ,  3-C ) :   0.8504
B(  1-C , 11-O ) :   0.7879 B(  3-C ,  4-H ) :   0.9493 B(  3-C ,  5-C ) :   0.8762
B(  3-C , 15-O ) :   0.9746 B(  5-C ,  6-H ) :   0.9822 B(  5-C ,  7-C ) :   0.8742
B(  5-C , 14-O ) :   0.8926 B(  7-C ,  8-H ) :   0.9453 B(  7-C ,  9-C ) :   0.8560
B(  7-C , 13-O ) :   0.8814 B(  9-C , 10-H ) :   0.9996 B(  9-C , 11-O ) :   0.9119
B(  9-C , 12-O ) :   1.1467 B( 12-O , 19-H ) :   0.8768 B( 13-O , 20-H ) :   0.8769
B( 14-O , 21-H ) :   0.8709 B( 15-O , 22-H ) :   0.8845 B( 16-O , 23-H ) :   0.8732

Dispersion correction           -0.008011396
FINAL SINGLE POINT ENERGY      -687.075981826415

DIPOLE MOMENT
-------------

Method             : SCF
Type of density    : Electron Density
Multiplicity       :   1
Irrep              :   0
Energy             :  -687.0873672969137260 Eh
Relativity type    :
Basis              : AO
                                X                 Y                 Z
Electronic contribution:      2.512133302      -1.191042673       0.071820545
Nuclear contribution   :     -2.669479349       1.960752345      -0.254977640
                        -----------------------------------------
Total Dipole Moment    :     -0.157346046       0.769709672      -0.183157095
                        -----------------------------------------
Magnitude (a.u.)       :      0.806695283
Magnitude (Debye)      :      2.050456457

Rotational constants in cm-1:             0.038991             0.026188             0.016406
Rotational constants in MHz :          1168.909364           785.098807           491.846562

                             ****ORCA TERMINATED NORMALLY****
TOTAL RUN TIME: 0 days 0 hours 0 minutes 43 seconds 171 msec
