                         Program Version 6.0.0  -   RELEASE  -
|  1> ! r2SCAN-3c DEF2-TZVP FREQ
|  2> * xyzfile 0 1 censo.xyz
|  3>
|  4>                          ****END OF INPUT****

CARTESIAN COORDINATES (ANGSTROEM)
---------------------------------
  C     -2.184025   -0.071543   -0.215410
  C     -0.794479    0.012943    0.402428
  C      0.097383   -1.229812    0.111263
  C      1.480604   -0.682725   -0.314595
  C      1.481265    0.777303    0.158464
  C      0.036565    1.207569   -0.098308
  H     -2.745171   -0.927128    0.176677
  H     -2.767846    0.832986   -0.009755
  H     -2.113420   -0.186711   -1.303662
  H     -0.902228    0.114964    1.490121
  H      0.179070   -1.859832    1.002720
  H     -0.344324   -1.848573   -0.677407
  H      2.312404   -1.266000    0.091840
  H      1.570360   -0.702903   -1.406883
  H      1.696828    0.826980    1.233700
  H      2.221131    1.394945   -0.360862
  H     -0.239086    2.145817    0.394597
  H     -0.120392    1.337039   -1.178440

 Total Charge           Charge          ....    0
 Multiplicity           Mult            ....    1
 Number of Electrons    NEL             ....   48
 Basis Dimension        Dim             ....  258

ORBITAL ENERGIES
----------------

  NO   OCC          E(Eh)            E(eV)
   0   2.0000     -10.028618      -272.8926
   1   2.0000     -10.020577      -272.6738
   2   2.0000     -10.020457      -272.6705
   3   2.0000     -10.018747      -272.6240
   4   2.0000     -10.018740      -272.6238
   5   2.0000     -10.015156      -272.5262
   6   2.0000      -0.799534       -21.7564
   7   2.0000      -0.706933       -19.2366
   8   2.0000      -0.668887       -18.2013
   9   2.0000      -0.614111       -16.7108
  10   2.0000      -0.533988       -14.5306
  11   2.0000      -0.512629       -13.9493
  12   2.0000      -0.448992       -12.2177
  13   2.0000      -0.428827       -11.6690
  14   2.0000      -0.393264       -10.7013
  15   2.0000      -0.379005       -10.3132
  16   2.0000      -0.370673       -10.0865
  17   2.0000      -0.340176        -9.2567
  18   2.0000      -0.303712        -8.2644
  19   2.0000      -0.301173        -8.1953
  20   2.0000      -0.293430        -7.9846
  21   2.0000      -0.290534        -7.9058
  22   2.0000      -0.282342        -7.6829
  23   2.0000      -0.275108        -7.4861
  24   0.0000       0.038713         1.0534
  25   0.0000       0.059358         1.6152
  26   0.0000       0.069015         1.8780
  27   0.0000       0.090750         2.4694
  28   0.0000       0.108443         2.9509

MULLIKEN ATOMIC CHARGES
-----------------------
   0 C :   -0.345369
   1 C :    0.017048
   2 C :   -0.195865
   3 C :   -0.160104
   4 C :   -0.139874
   5 C :   -0.184391
   6 H :    0.107346
   7 H :    0.103819
   8 H :    0.095150
   9 H :    0.049460
  10 H :    0.086914
  11 H :    0.080748
  12 H :    0.086012
  13 H :    0.076592
  14 H :    0.074799
  15 H :    0.087310
  16 H :    0.088418
  17 H :    0.071987
Sum of atomic charges:    0.0000000

LOEWDIN ATOMIC CHARGES
----------------------
   0 C :   -0.292257
   1 C :   -0.274350
   2 C :   -0.225531
   3 C :   -0.254471
   4 C :   -0.258990
   5 C :   -0.237510
   6 H :    0.119237
   7 H :    0.119221
   8 H :    0.118432
   9 H :    0.144761
  10 H :    0.129397
  11 H :    0.130770
  12 H :    0.126466
  13 H :    0.131279
  14 H :    0.132625
  15 H :    0.127146
  16 H :    0.128840
  17 H :    0.134934

  Mayer bond orders larger than 0.100000
B(  0-C ,  1-C ) :   0.9508 B(  0-C ,  6-H ) :   0.9791 B(  0-C ,  7-H ) :   0.9787
B(  0-C ,  8-H ) :   0.9711 B(  1-C ,  2-C ) :   0.9782 B(  1-C ,  5-C ) :   0.9975
B(  1-C ,  9-H ) :   0.9634 B(  2-C ,  3-C ) :   1.0023 B(  2-C , 10-H ) :   0.9675
B(  2-C , 11-H ) :   0.9699 B(  3-C ,  4-C ) :   0.9961 B(  3-C , 12-H ) :   0.9663
B(  3-C , 13-H ) :   0.9657 B(  4-C ,  5-C ) :   0.9836 B(  4-C , 14-H ) :   0.9651
B(  4-C , 15-H ) :   0.9646 B(  5-C , 16-H ) :   0.9614 B(  5-C , 17-H ) :   0.9611

Dispersion correction           -0.004639551
FINAL SINGLE POINT ENERGY      -235.803244770849

DIPOLE MOMENT
-------------

Method             : SCF
Type of density    : Electron Density
Multiplicity       :   1
Irrep              :   0
Energy             :  -235.8059815798106342 Eh
Relativity type    :
Basis              : AO
                                X                 Y                 Z
Electronic contribution:      1.208841600       0.145361135       0.549829504
Nuclear contribution   :     -1.194803651      -0.133265271      -0.510150747
                        -----------------------------------------
Total Dipole Moment    :      0.014037949       0.012095864       0.039678757
                        -----------------------------------------
Magnitude (a.u.)       :      0.043792439
Magnitude (Debye)      :      0.111311533

VIBRATIONAL FREQUENCIES
-----------------------

Scaling factor for frequencies =  1.000000000  (already applied!)

     0:       0.00 cm**-1
     1:       0.00 cm**-1
     2:       0.00 cm**-1
     3:       0.00 cm**-1
     4:       0.00 cm**-1
     5:       0.00 cm**-1
     6:      16.64 cm**-1
     7:     251.27 cm**-1
     8:     272.63 cm**-1
     9:     323.37 cm**-1
    10:     429.38 cm**-1
    11:     545.21 cm**-1
    12:     591.69 cm**-1
    13:     773.05 cm**-1
    14:     835.46 cm**-1
    15:     861.26 cm**-1
    16:     894.68 cm**-1
    17:     911.22 cm**-1
    18:     921.55 cm**-1
    19:     982.00 cm**-1
    20:    1001.33 cm**-1
    21:    1021.29 cm**-1
    22:    1034.19 cm**-1
    23:    1092.10 cm**-1
    24:    1155.49 cm**-1
    25:    1186.02 cm**-1
    26:    1219.54 cm**-1
    27:    1239.46 cm**-1
    28:    1266.55 cm**-1
    29:    1298.34 cm**-1
    30:    1319.28 cm**-1
    31:    1325.71 cm**-1
    32:    1337.23 cm**-1
    33:    1341.78 cm**-1
    34:    1368.69 cm**-1
    35:    1399.92 cm**-1
    36:    1479.47 cm**-1
    37:    1485.06 cm**-1
    38:    1485.61 cm**-1
    39:    1490.14 cm**-1
    40:    1495.02 cm**-1
    41:    1508.44 cm**-1
    42:    2989.05 cm**-1
    43:    2991.85 cm**-1
    44:    3000.43 cm**-1
    45:    3005.40 cm**-1
    46:    3013.22 cm**-1
    47:    3023.37 cm**-1
    48:    3057.18 cm**-1
    49:    3060.99 cm**-1
    50:    3066.30 cm**-1
    51:    3068.67 cm**-1
    52:    3070.57 cm**-1
    53:    3080.99 cm**-1

IR SPECTRUM
-----------

 Mode   freq       eps      Int      T**2         TX        TY        TZ
       cm**-1   L/(mol*cm) km/mol    a.u.
----------------------------------------------------------------------------
  6:     16.64   0.000002    0.01  0.000030  (-0.004950  0.002254  0.000507)
  7:    251.27   0.000001    0.01  0.000001  (-0.000717 -0.000943 -0.000071)
  8:    272.63   0.000001    0.00  0.000001  (-0.000287  0.000928 -0.000238)
  9:    323.37   0.000009    0.05  0.000009  (-0.000579  0.002685 -0.001044)
 10:    429.38   0.000016    0.08  0.000012  (-0.000809 -0.000109  0.003307)
 11:    545.21   0.000162    0.82  0.000093  (-0.001171 -0.001017 -0.009500)
 12:    591.69   0.000027    0.14  0.000014  (-0.000391  0.002014 -0.003189)
 13:    773.05   0.000100    0.50  0.000040  (-0.002114  0.004312 -0.004146)
 14:    835.46   0.000113    0.57  0.000042  (-0.005704  0.003094 -0.000189)
 15:    861.26   0.000132    0.67  0.000048  ( 0.002355  0.002450 -0.006037)
 16:    894.68   0.000150    0.76  0.000052  (-0.005837  0.003242  0.002762)
 17:    911.22   0.000110    0.56  0.000038  ( 0.006111  0.000213  0.000481)
 18:    921.55   0.000155    0.78  0.000053  (-0.001606 -0.007047 -0.000596)
 19:    982.00   0.000501    2.53  0.000159  ( 0.005350  0.010749 -0.003886)
 20:   1001.33   0.000241    1.22  0.000075  ( 0.002900 -0.007088 -0.004045)
 21:   1021.29   0.000051    0.26  0.000015  (-0.003488  0.001764  0.000410)
 22:   1034.19   0.000032    0.16  0.000010  (-0.000963 -0.001728 -0.002388)
 23:   1092.10   0.000064    0.32  0.000018  (-0.004151  0.000275 -0.000939)
 24:   1155.49   0.000318    1.61  0.000086  (-0.000295 -0.009249 -0.000560)
 25:   1186.02   0.000036    0.18  0.000009  ( 0.003037 -0.000409 -0.000144)
 26:   1219.54   0.000032    0.16  0.000008  (-0.002573 -0.000519 -0.001157)
 27:   1239.46   0.000050    0.25  0.000013  (-0.002815 -0.002050 -0.000755)
 28:   1266.55   0.000276    1.39  0.000068  (-0.000909 -0.007625 -0.003006)
 29:   1298.34   0.000042    0.21  0.000010  ( 0.000114  0.002293  0.002182)
 30:   1319.28   0.000031    0.16  0.000007  ( 0.000993 -0.001086 -0.002280)
 31:   1325.71   0.000171    0.86  0.000040  (-0.004905  0.002954 -0.002719)
 32:   1337.23   0.000053    0.27  0.000012  ( 0.003141  0.000864 -0.001286)
 33:   1341.78   0.000118    0.59  0.000027  ( 0.002588 -0.004489  0.000707)
 34:   1368.69   0.000465    2.35  0.000106  ( 0.010159  0.000707  0.001494)
 35:   1399.92   0.000618    3.12  0.000138  (-0.007617 -0.000798 -0.008891)
 36:   1479.47   0.000387    1.96  0.000082  (-0.007563  0.004622 -0.001769)
 37:   1485.06   0.000712    3.60  0.000150  ( 0.002595 -0.000186  0.011952)
 38:   1485.61   0.001178    5.95  0.000247  (-0.004790 -0.014972 -0.000613)
 39:   1490.14   0.000392    1.98  0.000082  (-0.002621  0.008149 -0.002977)
 40:   1495.02   0.001419    7.17  0.000296  (-0.004851  0.001454  0.016450)
 41:   1508.44   0.000641    3.24  0.000133  ( 0.006296 -0.003034 -0.009149)
 42:   2989.05   0.002728   13.79  0.000285  (-0.003230 -0.016559  0.000447)
 43:   2991.85   0.007300   36.89  0.000761  (-0.025942  0.005894 -0.007330)
 44:   3000.43   0.002556   12.92  0.000266  (-0.004921 -0.009596  0.012229)
 45:   3005.40   0.010917   55.17  0.001134  (-0.023523 -0.002644 -0.023942)
 46:   3013.22   0.005099   25.77  0.000528  (-0.015298 -0.001105  0.017113)
 47:   3023.37   0.010225   51.67  0.001055  ( 0.003045  0.031550  0.007118)
 48:   3057.18   0.001601    8.09  0.000163  ( 0.008950 -0.002941 -0.008639)
 49:   3060.99   0.005165   26.10  0.000527  ( 0.009076  0.021071 -0.000465)
 50:   3066.30   0.006191   31.29  0.000630  ( 0.022135 -0.004701 -0.010863)
 51:   3068.67   0.011576   58.50  0.001177  ( 0.014458 -0.025849 -0.017322)
 52:   3070.57   0.006742   34.07  0.000685  (-0.010996 -0.018779  0.014549)
 53:   3080.99   0.019315   97.61  0.001956  (-0.006631  0.007211 -0.043132)

--------------------------
THERMOCHEMISTRY AT 298.15K
--------------------------

Temperature         ...   298.15 K
Pressure            ...     1.00 atm
Total Mass          ...    84.16 AMU
Quasi RRHO          ...     True
Cut-Off Frequency   ...     1.00 cm^-1

Throughout the following assumptions are being made:
  (1) The electronic state is orbitally nondegenerate
  (2) There are no thermally accessible electronically excited states
  (3) Hindered rotations indicated by low frequency modes are not
      treated as such but are treated as vibrations and this may
      cause some error
  (4) All equations used are the standard statistical mechanics
      equations for an ideal gas
  (5) All vibrations are strictly harmonic

freq.      16.64  E(vib)   ...       0.57
freq.     251.27  E(vib)   ...       0.30
freq.     272.63  E(vib)   ...       0.29
freq.     323.37  E(vib)   ...       0.25
freq.     429.38  E(vib)   ...       0.18
freq.     545.21  E(vib)   ...       0.12
freq.     591.69  E(vib)   ...       0.10
freq.     773.05  E(vib)   ...       0.05
freq.     835.46  E(vib)   ...       0.04
freq.     861.26  E(vib)   ...       0.04
freq.     894.68  E(vib)   ...       0.03
freq.     911.22  E(vib)   ...       0.03
freq.     921.55  E(vib)   ...       0.03
freq.     982.00  E(vib)   ...       0.02
freq.    1001.33  E(vib)   ...       0.02
freq.    1021.29  E(vib)   ...       0.02
freq.    1034.19  E(vib)   ...       0.02
freq.    1092.10  E(vib)   ...       0.02
freq.    1155.49  E(vib)   ...       0.01
freq.    1186.02  E(vib)   ...       0.01
freq.    1219.54  E(vib)   ...       0.01
freq.    1239.46  E(vib)   ...       0.01
freq.    1266.55  E(vib)   ...       0.01
freq.    1298.34  E(vib)   ...       0.01
freq.    1319.28  E(vib)   ...       0.01
freq.    1325.71  E(vib)   ...       0.01
freq.    1337.23  E(vib)   ...       0.01
freq.    1341.78  E(vib)   ...       0.01
freq.    1368.69  E(vib)   ...       0.01
freq.    1399.92  E(vib)   ...       0.00
freq.    1479.47  E(vib)   ...       0.00
freq.    1485.06  E(vib)   ...       0.00
freq.    1485.61  E(vib)   ...       0.00
freq.    1490.14  E(vib)   ...       0.00
freq.    1495.02  E(vib)   ...       0.00
freq.    1508.44  E(vib)   ...       0.00
freq.    2989.05  E(vib)   ...       0.00
freq.    2991.85  E(vib)   ...       0.00
freq.    3000.43  E(vib)   ...       0.00
freq.    3005.40  E(vib)   ...       0.00
freq.    3013.22  E(vib)   ...       0.00
freq.    3023.37  E(vib)   ...       0.00
freq.    3057.18  E(vib)   ...       0.00
freq.    3060.99  E(vib)   ...       0.00
freq.    3066.30  E(vib)   ...       0.00
freq.    3068.67  E(vib)   ...       0.00
freq.    3070.57  E(vib)   ...       0.00
freq.    3080.99  E(vib)   ...       0.00

------------
INNER ENERGY
------------

The inner energy is: U= E(el) + E(ZPE) + E(vib) + E(rot) + E(trans)
    E(el)   - is the total energy from the electronic structure calculation
              = E(kin-el) + E(nuc-el) + E(el-el) + E(nuc-nuc)
    E(ZPE)  - the the zero temperature vibrational energy from the frequency calculation
    E(vib)  - the the finite temperature correction to E(ZPE) due to population
              of excited vibrational states
    E(rot)  - is the rotational thermal energy
    E(trans)- is the translational thermal energy

Summary of contributions to the inner energy U:
Electronic energy                ...   -235.80324477 Eh
Zero point energy                ...      0.16764598 Eh     105.20 kcal/mol
Thermal vibrational correction   ...      0.00359832 Eh       2.26 kcal/mol
Thermal rotational correction    ...      0.00141627 Eh       0.89 kcal/mol
Thermal translational correction ...      0.00141627 Eh       0.89 kcal/mol
-----------------------------------------------------------------------
Total thermal energy                   -235.62916793 Eh

Summary of corrections to the electronic energy:
(perhaps to be used in another calculation)
Total thermal correction                  0.00643087 Eh       4.04 kcal/mol
Non-thermal (ZPE) correction              0.16764598 Eh     105.20 kcal/mol
-----------------------------------------------------------------------
Total correction                          0.17407684 Eh     109.23 kcal/mol

--------
ENTHALPY
--------

The enthalpy is H = U + kB*T
                kB is Boltzmann's constant
Total thermal energy              ...   -235.62916793 Eh
Thermal Enthalpy correction       ...      0.00094421 Eh       0.59 kcal/mol
-----------------------------------------------------------------------
Total Enthalpy                    ...   -235.62822372 Eh

Note: Only C1 symmetry has been detected, increase convergence thresholds
      if your molecule has a higher symmetry. Symmetry factor of 1.0 is
      used for the rotational entropy correction.

Note: Rotational entropy computed according to Herzberg
Infrared and Raman Spectra, Chapter V,1, Van Nostrand Reinhold, 1945
Point Group:  C1, Symmetry Number:   1
Rotational constants in cm-1:     0.202668     0.099562     0.075696

Vibrational entropy computed according to the QRRHO of S. Grimme
Chem.Eur.J. 2012 18 9955 using a reference frequency of 100.0 cm-1

-------
ENTROPY
-------

The entropy contributions are T*S = T*(S(el)+S(vib)+S(rot)+S(trans))
     S(el)   - electronic entropy
     S(vib)  - vibrational entropy
     S(rot)  - rotational entropy
     S(trans)- translational entropy
The entropies will be listed as multiplied by the temperature to get
units of energy

Electronic entropy                ...      0.00000000 Eh      0.00 kcal/mol
Vibrational entropy               ...      0.00615815 Eh      3.86 kcal/mol
Rotational entropy                ...      0.01257193 Eh      7.89 kcal/mol
Translational entropy             ...      0.01862704 Eh     11.69 kcal/mol
-----------------------------------------------------------------------
Final entropy term                ...      0.03735712 Eh     23.44 kcal/mol

In case the symmetry of your molecule has not been determined correctly
or in case you have a reason to use a different symmetry number we print
out the resulting rotational entropy values for sn=1,12:

 non-linear molecules -----------------------------------
|  sn= 1 | S(rot)=       0.01257193 Eh      7.89 kcal/mol|
|  sn= 2 | S(rot)=       0.01191748 Eh      7.48 kcal/mol|
|  sn= 3 | S(rot)=       0.01153464 Eh      7.24 kcal/mol|
|  sn= 4 | S(rot)=       0.01126302 Eh      7.07 kcal/mol|
|  sn= 5 | S(rot)=       0.01105233 Eh      6.94 kcal/mol|
|  sn= 6 | S(rot)=       0.01088019 Eh      6.83 kcal/mol|
|  sn= 7 | S(rot)=       0.01073464 Eh      6.74 kcal/mol|
|  sn= 8 | S(rot)=       0.01060856 Eh      6.66 kcal/mol|
|  sn= 9 | S(rot)=       0.01049736 Eh      6.59 kcal/mol|
|  sn=10 | S(rot)=       0.01039788 Eh      6.52 kcal/mol|
|  sn=11 | S(rot)=       0.01030789 Eh      6.47 kcal/mol|
|  sn=12 | S(rot)=       0.01022573 Eh      6.42 kcal/mol|

                             ****ORCA TERMINATED NORMALLY****
TOTAL RUN TIME: 0 days 0 hours 12 minutes 6 seconds 533 msec
