                         Program Version 6.0.0  -   RELEASE  -
|  1> ! r2SCAN-3c DEF2-TZVP FREQ
|  2> * xyzfile 0 1 vacuum_censo.xyz
|  3>
|  4>                          ****END OF INPUT****

CARTESIAN COORDINATES (ANGSTROEM)
---------------------------------
  C     -2.174764    0.078010   -0.239482
  C     -0.798909   -0.011289    0.410382
  C      0.035552   -1.213340   -0.073163
  C      1.483312   -0.773923    0.151344
  C      1.465074    0.677972   -0.343429
  C      0.104858    1.229946    0.139799
  H     -2.762467   -0.827671   -0.054122
  H     -2.743485    0.931800    0.143787
  H     -2.078163    0.199262   -1.324824
  H     -0.934462   -0.111882    1.495095
  H     -0.229538   -2.142141    0.442241
  H     -0.135025   -1.370711   -1.147320
  H      1.721028   -0.805510    1.222627
  H      2.215705   -1.397647   -0.370636
  H      2.315196    1.267374    0.012369
  H      1.503238    0.681231   -1.439181
  H      0.226376    1.820106    1.053700
  H     -0.347506    1.892333   -0.605760

 Total Charge           Charge          ....    0
 Multiplicity           Mult            ....    1
 Number of Electrons    NEL             ....   48
 Basis Dimension        Dim             ....  258

ORBITAL ENERGIES
----------------

  NO   OCC          E(Eh)            E(eV)
   0   2.0000     -10.028856      -272.8990
   1   2.0000     -10.020643      -272.6756
   2   2.0000     -10.020519      -272.6722
   3   2.0000     -10.018800      -272.6254
   4   2.0000     -10.018769      -272.6246
   5   2.0000     -10.015047      -272.5233
   6   2.0000      -0.799254       -21.7488
   7   2.0000      -0.706871       -19.2349
   8   2.0000      -0.668965       -18.2035
   9   2.0000      -0.614023       -16.7084
  10   2.0000      -0.534420       -14.5423
  11   2.0000      -0.512168       -13.9368
  12   2.0000      -0.449063       -12.2196
  13   2.0000      -0.429409       -11.6848
  14   2.0000      -0.392599       -10.6832
  15   2.0000      -0.378741       -10.3061
  16   2.0000      -0.370479       -10.0813
  17   2.0000      -0.340681        -9.2704
  18   2.0000      -0.304028        -8.2730
  19   2.0000      -0.301135        -8.1943
  20   2.0000      -0.292756        -7.9663
  21   2.0000      -0.290708        -7.9106
  22   2.0000      -0.282731        -7.6935
  23   2.0000      -0.274879        -7.4798
  24   0.0000       0.038880         1.0580
  25   0.0000       0.059423         1.6170
  26   0.0000       0.069529         1.8920
  27   0.0000       0.090559         2.4642
  28   0.0000       0.107827         2.9341

MULLIKEN ATOMIC CHARGES
-----------------------
   0 C :   -0.348160
   1 C :    0.018653
   2 C :   -0.185380
   3 C :   -0.140295
   4 C :   -0.161490
   5 C :   -0.194261
   6 H :    0.104081
   7 H :    0.107395
   8 H :    0.095489
   9 H :    0.049607
  10 H :    0.088617
  11 H :    0.072299
  12 H :    0.075060
  13 H :    0.087573
  14 H :    0.086482
  15 H :    0.076139
  16 H :    0.086456
  17 H :    0.081736
Sum of atomic charges:    0.0000000

LOEWDIN ATOMIC CHARGES
----------------------
   0 C :   -0.292529
   1 C :   -0.272020
   2 C :   -0.237234
   3 C :   -0.258910
   4 C :   -0.255302
   5 C :   -0.225821
   6 H :    0.119110
   7 H :    0.118852
   8 H :    0.118360
   9 H :    0.144349
  10 H :    0.128611
  11 H :    0.134827
  12 H :    0.132689
  13 H :    0.127118
  14 H :    0.126421
  15 H :    0.131494
  16 H :    0.129572
  17 H :    0.130413

  Mayer bond orders larger than 0.100000
B(  0-C ,  1-C ) :   0.9527 B(  0-C ,  6-H ) :   0.9788 B(  0-C ,  7-H ) :   0.9791
B(  0-C ,  8-H ) :   0.9712 B(  1-C ,  2-C ) :   0.9984 B(  1-C ,  5-C ) :   0.9755
B(  1-C ,  9-H ) :   0.9645 B(  2-C ,  3-C ) :   0.9844 B(  2-C , 10-H ) :   0.9615
B(  2-C , 11-H ) :   0.9611 B(  3-C ,  4-C ) :   0.9942 B(  3-C , 12-H ) :   0.9654
B(  3-C , 13-H ) :   0.9645 B(  4-C ,  5-C ) :   1.0032 B(  4-C , 14-H ) :   0.9661
B(  4-C , 15-H ) :   0.9655 B(  5-C , 16-H ) :   0.9676 B(  5-C , 17-H ) :   0.9700

Dispersion correction           -0.004642257
FINAL SINGLE POINT ENERGY      -235.803181749026

DIPOLE MOMENT
-------------

Method             : SCF
Type of density    : Electron Density
Multiplicity       :   1
Irrep              :   0
Energy             :  -235.8059155184504050 Eh
Relativity type    :
Basis              : AO
                                X                 Y                 Z
Electronic contribution:      1.204011811      -0.141198219       0.571924574
Nuclear contribution   :     -1.188420069       0.129974081      -0.532554129
                        -----------------------------------------
Total Dipole Moment    :      0.015591742      -0.011224138       0.039370444
                        -----------------------------------------
Magnitude (a.u.)       :      0.043807712
Magnitude (Debye)      :      0.111350354

VIBRATIONAL FREQUENCIES
-----------------------

Scaling factor for frequencies =  1.000000000  (already applied!)

     0:       0.00 cm**-1
     1:       0.00 cm**-1
     2:       0.00 cm**-1
     3:       0.00 cm**-1
     4:       0.00 cm**-1
     5:       0.00 cm**-1
     6:      -9.08 cm**-1 ***imaginary mode***
     7:     254.03 cm**-1
     8:     270.05 cm**-1
     9:     325.73 cm**-1
    10:     426.22 cm**-1
    11:     546.08 cm**-1
    12:     589.53 cm**-1
    13:     768.20 cm**-1
    14:     838.20 cm**-1
    15:     859.69 cm**-1
    16:     892.92 cm**-1
    17:     910.59 cm**-1
    18:     919.56 cm**-1
    19:     982.10 cm**-1
    20:     999.03 cm**-1
    21:    1019.47 cm**-1
    22:    1034.76 cm**-1
    23:    1087.51 cm**-1
    24:    1154.62 cm**-1
    25:    1183.62 cm**-1
    26:    1218.14 cm**-1
    27:    1240.30 cm**-1
    28:    1262.33 cm**-1
    29:    1299.14 cm**-1
    30:    1320.96 cm**-1
    31:    1325.91 cm**-1
    32:    1337.01 cm**-1
    33:    1341.25 cm**-1
    34:    1367.40 cm**-1
    35:    1398.16 cm**-1
    36:    1479.72 cm**-1
    37:    1485.11 cm**-1
    38:    1486.13 cm**-1
    39:    1490.15 cm**-1
    40:    1494.00 cm**-1
    41:    1508.03 cm**-1
    42:    2990.70 cm**-1
    43:    2995.06 cm**-1
    44:    3000.86 cm**-1
    45:    3005.75 cm**-1
    46:    3013.74 cm**-1
    47:    3024.41 cm**-1
    48:    3059.26 cm**-1
    49:    3063.08 cm**-1
    50:    3068.21 cm**-1
    51:    3071.58 cm**-1
    52:    3076.31 cm**-1
    53:    3081.38 cm**-1

IR SPECTRUM
-----------

 Mode   freq       eps      Int      T**2         TX        TY        TZ
       cm**-1   L/(mol*cm) km/mol    a.u.
----------------------------------------------------------------------------
  7:    254.03   0.000001    0.00  0.000001  (-0.000692  0.000819 -0.000054)
  8:    270.05   0.000001    0.00  0.000001  (-0.000380 -0.000789 -0.000386)
  9:    325.73   0.000009    0.04  0.000008  (-0.000672 -0.002675 -0.000915)
 10:    426.22   0.000015    0.08  0.000011  ( 0.000981 -0.000292 -0.003199)
 11:    546.08   0.000182    0.92  0.000104  ( 0.001260 -0.000826  0.010095)
 12:    589.53   0.000024    0.12  0.000013  ( 0.001164  0.002348  0.002402)
 13:    768.20   0.000090    0.45  0.000037  ( 0.002084  0.003792  0.004225)
 14:    838.20   0.000131    0.66  0.000049  (-0.006256 -0.003064  0.000290)
 15:    859.69   0.000128    0.65  0.000047  (-0.001663  0.002930  0.005934)
 16:    892.92   0.000131    0.66  0.000046  ( 0.005314  0.002738 -0.003146)
 17:    910.59   0.000127    0.64  0.000043  (-0.006484 -0.001188  0.000084)
 18:    919.56   0.000180    0.91  0.000061  ( 0.002590 -0.007315  0.000950)
 19:    982.10   0.000506    2.56  0.000161  (-0.005072  0.011069  0.003561)
 20:    999.03   0.000247    1.25  0.000077  ( 0.002945  0.007017 -0.004388)
 21:   1019.47   0.000044    0.22  0.000013  ( 0.003367  0.001393 -0.000307)
 22:   1034.76   0.000024    0.12  0.000007  (-0.000920  0.001457 -0.002053)
 23:   1087.51   0.000066    0.33  0.000019  (-0.004223 -0.000227 -0.001025)
 24:   1154.62   0.000322    1.63  0.000087  ( 0.000434 -0.009291  0.000782)
 25:   1183.62   0.000031    0.16  0.000008  (-0.002780 -0.000715 -0.000127)
 26:   1218.14   0.000021    0.11  0.000005  (-0.002106  0.000352 -0.000958)
 27:   1240.30   0.000079    0.40  0.000020  (-0.003391  0.002631 -0.001206)
 28:   1262.33   0.000263    1.33  0.000065  ( 0.000278  0.007570 -0.002779)
 29:   1299.14   0.000041    0.21  0.000010  ( 0.000386  0.002385 -0.002019)
 30:   1320.96   0.000021    0.11  0.000005  (-0.000813 -0.000842  0.001922)
 31:   1325.91   0.000162    0.82  0.000038  ( 0.004949  0.002452  0.002747)
 32:   1337.01   0.000054    0.27  0.000013  ( 0.003195 -0.001124 -0.001067)
 33:   1341.25   0.000108    0.55  0.000025  ( 0.002696  0.004113  0.000963)
 34:   1367.40   0.000476    2.41  0.000109  (-0.010288  0.000842 -0.001469)
 35:   1398.16   0.000628    3.17  0.000140  (-0.007405  0.000762 -0.009208)
 36:   1479.72   0.000366    1.85  0.000077  (-0.007873 -0.003823 -0.000710)
 37:   1485.11   0.001154    5.83  0.000243  (-0.005119  0.013317 -0.006244)
 38:   1486.13   0.000889    4.49  0.000187  (-0.001191 -0.008580 -0.010562)
 39:   1490.15   0.000289    1.46  0.000061  ( 0.002272  0.007071  0.002315)
 40:   1494.00   0.001465    7.40  0.000306  ( 0.005413  0.001221 -0.016590)
 41:   1508.03   0.000582    2.94  0.000120  ( 0.006203  0.002652 -0.008659)
 42:   2990.70   0.003024   15.28  0.000316  ( 0.002654  0.017564 -0.000047)
 43:   2995.06   0.006353   32.11  0.000662  (-0.025195 -0.000732 -0.005159)
 44:   3000.86   0.002534   12.80  0.000263  ( 0.002766 -0.009011 -0.013215)
 45:   3005.75   0.010698   54.06  0.001111  (-0.024651  0.000305 -0.022426)
 46:   3013.74   0.005906   29.85  0.000612  ( 0.010481  0.003255 -0.022161)
 47:   3024.41   0.009652   48.78  0.000996  (-0.006355  0.030829 -0.002269)
 48:   3059.26   0.002098   10.60  0.000214  (-0.006731 -0.007609  0.010529)
 49:   3063.08   0.005350   27.04  0.000545  ( 0.006778 -0.022281  0.001652)
 50:   3068.21   0.006733   34.03  0.000685  ( 0.023618 -0.001102 -0.011218)
 51:   3071.58   0.010951   55.34  0.001113  (-0.019486 -0.020231  0.017988)
 52:   3076.31   0.007170   36.23  0.000727  (-0.005598  0.024431  0.009955)
 53:   3081.38   0.018999   96.01  0.001924  ( 0.007223  0.005863  0.042867)

--------------------------
THERMOCHEMISTRY AT 298.15K
--------------------------

Temperature         ...   298.15 K
Pressure            ...     1.00 atm
Total Mass          ...    84.16 AMU
Quasi RRHO          ...     True
Cut-Off Frequency   ...     1.00 cm^-1

Throughout the following assumptions are being made:
  (1) The electronic state is orbitally nondegenerate
  (2) There are no thermally accessible electronically excited states
  (3) Hindered rotations indicated by low frequency modes are not
      treated as such but are treated as vibrations and this may
      cause some error
  (4) All equations used are the standard statistical mechanics
      equations for an ideal gas
  (5) All vibrations are strictly harmonic

freq.     254.03  E(vib)   ...       0.30
freq.     270.05  E(vib)   ...       0.29
freq.     325.73  E(vib)   ...       0.24
freq.     426.22  E(vib)   ...       0.18
freq.     546.08  E(vib)   ...       0.12
freq.     589.53  E(vib)   ...       0.10
freq.     768.20  E(vib)   ...       0.06
freq.     838.20  E(vib)   ...       0.04
freq.     859.69  E(vib)   ...       0.04
freq.     892.92  E(vib)   ...       0.03
freq.     910.59  E(vib)   ...       0.03
freq.     919.56  E(vib)   ...       0.03
freq.     982.10  E(vib)   ...       0.02
freq.     999.03  E(vib)   ...       0.02
freq.    1019.47  E(vib)   ...       0.02
freq.    1034.76  E(vib)   ...       0.02
freq.    1087.51  E(vib)   ...       0.02
freq.    1154.62  E(vib)   ...       0.01
freq.    1183.62  E(vib)   ...       0.01
freq.    1218.14  E(vib)   ...       0.01
freq.    1240.30  E(vib)   ...       0.01
freq.    1262.33  E(vib)   ...       0.01
freq.    1299.14  E(vib)   ...       0.01
freq.    1320.96  E(vib)   ...       0.01
freq.    1325.91  E(vib)   ...       0.01
freq.    1337.01  E(vib)   ...       0.01
freq.    1341.25  E(vib)   ...       0.01
freq.    1367.40  E(vib)   ...       0.01
freq.    1398.16  E(vib)   ...       0.00
freq.    1479.72  E(vib)   ...       0.00
freq.    1485.11  E(vib)   ...       0.00
freq.    1486.13  E(vib)   ...       0.00
freq.    1490.15  E(vib)   ...       0.00
freq.    1494.00  E(vib)   ...       0.00
freq.    1508.03  E(vib)   ...       0.00
freq.    2990.70  E(vib)   ...       0.00
freq.    2995.06  E(vib)   ...       0.00
freq.    3000.86  E(vib)   ...       0.00
freq.    3005.75  E(vib)   ...       0.00
freq.    3013.74  E(vib)   ...       0.00
freq.    3024.41  E(vib)   ...       0.00
freq.    3059.26  E(vib)   ...       0.00
freq.    3063.08  E(vib)   ...       0.00
freq.    3068.21  E(vib)   ...       0.00
freq.    3071.58  E(vib)   ...       0.00
freq.    3076.31  E(vib)   ...       0.00
freq.    3081.38  E(vib)   ...       0.00

------------
INNER ENERGY
------------

The inner energy is: U= E(el) + E(ZPE) + E(vib) + E(rot) + E(trans)
    E(el)   - is the total energy from the electronic structure calculation
              = E(kin-el) + E(nuc-el) + E(el-el) + E(nuc-nuc)
    E(ZPE)  - the the zero temperature vibrational energy from the frequency calculation
    E(vib)  - the the finite temperature correction to E(ZPE) due to population
              of excited vibrational states
    E(rot)  - is the rotational thermal energy
    E(trans)- is the translational thermal energy

Summary of contributions to the inner energy U:
Electronic energy                ...   -235.80318175 Eh
Zero point energy                ...      0.16759567 Eh     105.17 kcal/mol
Thermal vibrational correction   ...      0.00269540 Eh       1.69 kcal/mol
Thermal rotational correction    ...      0.00141627 Eh       0.89 kcal/mol
Thermal translational correction ...      0.00141627 Eh       0.89 kcal/mol
-----------------------------------------------------------------------
Total thermal energy                   -235.63005814 Eh

Summary of corrections to the electronic energy:
(perhaps to be used in another calculation)
Total thermal correction                  0.00552794 Eh       3.47 kcal/mol
Non-thermal (ZPE) correction              0.16759567 Eh     105.17 kcal/mol
-----------------------------------------------------------------------
Total correction                          0.17312361 Eh     108.64 kcal/mol

--------
ENTHALPY
--------

The enthalpy is H = U + kB*T
                kB is Boltzmann's constant
Total thermal energy              ...   -235.63005814 Eh
Thermal Enthalpy correction       ...      0.00094421 Eh       0.59 kcal/mol
-----------------------------------------------------------------------
Total Enthalpy                    ...   -235.62911393 Eh

Note: Only C1 symmetry has been detected, increase convergence thresholds
      if your molecule has a higher symmetry. Symmetry factor of 1.0 is
      used for the rotational entropy correction.

Note: Rotational entropy computed according to Herzberg
Infrared and Raman Spectra, Chapter V,1, Van Nostrand Reinhold, 1945
Point Group:  C1, Symmetry Number:   1
Rotational constants in cm-1:     0.201179     0.099877     0.076041

Vibrational entropy computed according to the QRRHO of S. Grimme
Chem.Eur.J. 2012 18 9955 using a reference frequency of 100.0 cm-1

-------
ENTROPY
-------

The entropy contributions are T*S = T*(S(el)+S(vib)+S(rot)+S(trans))
     S(el)   - electronic entropy
     S(vib)  - vibrational entropy
     S(rot)  - rotational entropy
     S(trans)- translational entropy
The entropies will be listed as multiplied by the temperature to get
units of energy

Electronic entropy                ...      0.00000000 Eh      0.00 kcal/mol
Vibrational entropy               ...      0.00396053 Eh      2.49 kcal/mol
Rotational entropy                ...      0.01257177 Eh      7.89 kcal/mol
Translational entropy             ...      0.01862704 Eh     11.69 kcal/mol
-----------------------------------------------------------------------
Final entropy term                ...      0.03515935 Eh     22.06 kcal/mol

In case the symmetry of your molecule has not been determined correctly
or in case you have a reason to use a different symmetry number we print
out the resulting rotational entropy values for sn=1,12:

 non-linear molecules -----------------------------------
|  sn= 1 | S(rot)=       0.01257177 Eh      7.89 kcal/mol|
|  sn= 2 | S(rot)=       0.01191732 Eh      7.48 kcal/mol|
|  sn= 3 | S(rot)=       0.01153448 Eh      7.24 kcal/mol|
|  sn= 4 | S(rot)=       0.01126286 Eh      7.07 kcal/mol|
|  sn= 5 | S(rot)=       0.01105217 Eh      6.94 kcal/mol|
|  sn= 6 | S(rot)=       0.01088003 Eh      6.83 kcal/mol|
|  sn= 7 | S(rot)=       0.01073448 Eh      6.74 kcal/mol|
|  sn= 8 | S(rot)=       0.01060840 Eh      6.66 kcal/mol|
|  sn= 9 | S(rot)=       0.01049720 Eh      6.59 kcal/mol|
|  sn=10 | S(rot)=       0.01039772 Eh      6.52 kcal/mol|
|  sn=11 | S(rot)=       0.01030773 Eh      6.47 kcal/mol|
|  sn=12 | S(rot)=       0.01022557 Eh      6.42 kcal/mol|
 linear molecules ---------------------------------------

                             ****ORCA TERMINATED NORMALLY****
TOTAL RUN TIME: 0 days 0 hours 11 minutes 56 seconds 823 msec
