                         Program Version 6.0.1  -  RELEASE   -
|  1> ! pbe def2-sv(p) def2/J RI DEFGRID1 loosescf d4 GCP(DFT/SV(P)) printgap
|  2> %output
|  3>     printlevel normal
|  4> end
|  5> * xyz 0 1
|  6> C -2.0307996621 -1.443066889 -0.0761304701
|  7> C -1.0004039297 -0.5343501877 0.6156850614
|  8> H -1.4411551109 -0.1869438928 1.5598950349
|  9> C -0.6894064439 0.7117768259 -0.227942817
| 10> H -0.6419352493 0.4544897555 -1.3017936764
| 11> C 0.6741434764 1.2550905827 0.2117350134
| 12> H 0.6513646743 1.3977143688 1.3040140855
| 13> C 1.7635661001 0.2300772587 -0.1322334642
| 14> H 2.0025492092 0.3409925608 -1.2040128846
| 15> C 1.2572750795 -1.2114133821 0.1112662842
| 16> H 2.038969246 -1.7688481731 0.6374052581
| 17> O 0.1597280574 -1.2545499991 0.9868694252
| 18> O 1.0276807588 -1.8991084976 -1.0783873704
| 19> O 2.9178325367 0.4271865381 0.6366435229
| 20> O 0.9832441004 2.4644011338 -0.4327224521
| 21> O -1.6478948235 1.7212358284 -0.036852141
| 22> O -3.1816449847 -0.6635898608 -0.3420230528
| 23> H -2.2586975799 -2.2789435499 0.5944354936
| 24> H -1.6168024011 -1.8505506534 -1.0079989935
| 25> H 0.5004865278 -1.361107011 -1.6817081007
| 26> H 3.1746560962 1.3538814581 0.5500979184
| 27> H 0.1890496136 3.0129833412 -0.395159425
| 28> H -2.5189155507 1.317805648 -0.1543436123
| 29> H -3.8846974826 -1.2402690664 -0.6576405652
| 30> *
| 31>
| 32>                          ****END OF INPUT****

CARTESIAN COORDINATES (ANGSTROEM)
---------------------------------
  C     -2.030800   -1.443067   -0.076130
  C     -1.000404   -0.534350    0.615685
  H     -1.441155   -0.186944    1.559895
  C     -0.689406    0.711777   -0.227943
  H     -0.641935    0.454490   -1.301794
  C      0.674143    1.255091    0.211735
  H      0.651365    1.397714    1.304014
  C      1.763566    0.230077   -0.132233
  H      2.002549    0.340993   -1.204013
  C      1.257275   -1.211413    0.111266
  H      2.038969   -1.768848    0.637405
  O      0.159728   -1.254550    0.986869
  O      1.027681   -1.899108   -1.078387
  O      2.917833    0.427187    0.636644
  O      0.983244    2.464401   -0.432722
  O     -1.647895    1.721236   -0.036852
  O     -3.181645   -0.663590   -0.342023
  H     -2.258698   -2.278944    0.594435
  H     -1.616802   -1.850551   -1.007999
  H      0.500487   -1.361107   -1.681708
  H      3.174656    1.353881    0.550098
  H      0.189050    3.012983   -0.395159
  H     -2.518916    1.317806   -0.154344
  H     -3.884697   -1.240269   -0.657641

 Total Charge           Charge          ....    0
 Multiplicity           Mult            ....    1
 Number of Electrons    NEL             ....   96
 Basis Dimension        Dim             ....  192

ORBITAL ENERGIES
----------------

  NO   OCC          E(Eh)            E(eV)
   0   2.0000     -18.782278      -511.0918
   1   2.0000     -18.767982      -510.7027
   2   2.0000     -18.760993      -510.5126
   3   2.0000     -18.757642      -510.4214
   4   2.0000     -18.750507      -510.2272
   5   2.0000     -18.748430      -510.1707
   6   2.0000      -9.982686      -271.6427
   7   2.0000      -9.950850      -270.7764
   8   2.0000      -9.950301      -270.7615
   9   2.0000      -9.947497      -270.6851
  10   2.0000      -9.940052      -270.4826
  11   2.0000      -9.939880      -270.4779
  12   2.0000      -0.981693       -26.7132
  13   2.0000      -0.955208       -25.9925
  14   2.0000      -0.945690       -25.7335
  15   2.0000      -0.931034       -25.3347
  16   2.0000      -0.916147       -24.9296
  17   2.0000      -0.914340       -24.8805
  18   2.0000      -0.710212       -19.3258
  19   2.0000      -0.694185       -18.8897
  20   2.0000      -0.628117       -17.0919
  21   2.0000      -0.586896       -15.9703
  22   2.0000      -0.563858       -15.3433
  23   2.0000      -0.528681       -14.3862
  24   2.0000      -0.509703       -13.8697
  25   2.0000      -0.499010       -13.5787
  26   2.0000      -0.479241       -13.0408
  27   2.0000      -0.465279       -12.6609
  28   2.0000      -0.447039       -12.1645
  29   2.0000      -0.426852       -11.6152
  30   2.0000      -0.414645       -11.2831
  31   2.0000      -0.405617       -11.0374
  32   2.0000      -0.396077       -10.7778
  33   2.0000      -0.389489       -10.5985
  34   2.0000      -0.369228       -10.0472
  35   2.0000      -0.349091        -9.4993
  36   2.0000      -0.340335        -9.2610
  37   2.0000      -0.313379        -8.5275
  38   2.0000      -0.310489        -8.4488
  39   2.0000      -0.303175        -8.2498
  40   2.0000      -0.287643        -7.8272
  41   2.0000      -0.272935        -7.4269
  42   2.0000      -0.250920        -6.8279
  43   2.0000      -0.249226        -6.7818
  44   2.0000      -0.233046        -6.3415
  45   2.0000      -0.222950        -6.0668
  46   2.0000      -0.219062        -5.9610
  47   2.0000      -0.210889        -5.7386
  48   0.0000      -0.000969        -0.0264
  49   0.0000       0.007548         0.2054
  50   0.0000       0.038378         1.0443
  51   0.0000       0.051094         1.3903
  52   0.0000       0.059139         1.6093

MULLIKEN ATOMIC CHARGES
-----------------------
   0 C :    0.062633
   1 C :    0.029382
   2 H :    0.081027
   3 C :   -0.033947
   4 H :    0.037235
   5 C :    0.082314
   6 H :    0.059698
   7 C :    0.043024
   8 H :    0.062094
   9 C :    0.201870
  10 H :    0.085361
  11 O :   -0.297968
  12 O :   -0.399018
  13 O :   -0.411887
  14 O :   -0.424711
  15 O :   -0.428491
  16 O :   -0.450723
  17 H :    0.093781
  18 H :    0.060572
  19 H :    0.299285
  20 H :    0.308676
  21 H :    0.310592
  22 H :    0.313022
  23 H :    0.316180
Sum of atomic charges:    0.0000000

LOEWDIN ATOMIC CHARGES
----------------------
   0 C :   -0.129641
   1 C :   -0.072370
   2 H :    0.121480
   3 C :   -0.083978
   4 H :    0.090371
   5 C :   -0.075315
   6 H :    0.109310
   7 C :   -0.079389
   8 H :    0.103056
   9 C :    0.004008
  10 H :    0.122071
  11 O :   -0.133016
  12 O :   -0.300216
  13 O :   -0.313396
  14 O :   -0.325093
  15 O :   -0.323764
  16 O :   -0.341996
  17 H :    0.108495
  18 H :    0.093966
  19 H :    0.269108
  20 H :    0.290426
  21 H :    0.287818
  22 H :    0.281606
  23 H :    0.296457

  Mayer bond orders larger than 0.100000
B(  0-C ,  1-C ) :   1.0732 B(  0-C , 16-O ) :   1.0399 B(  0-C , 17-H ) :   0.9171
B(  0-C , 18-H ) :   0.9029 B(  1-C ,  2-H ) :   0.8784 B(  1-C ,  3-C ) :   0.9723
B(  1-C , 11-O ) :   1.0034 B(  3-C ,  4-H ) :   0.8797 B(  3-C ,  5-C ) :   1.0336
B(  3-C , 15-O ) :   1.0788 B(  5-C ,  6-H ) :   0.8533 B(  5-C ,  7-C ) :   1.0365
B(  5-C , 14-O ) :   1.0904 B(  7-C ,  8-H ) :   0.8888 B(  7-C ,  9-C ) :   0.9920
B(  7-C , 13-O ) :   1.0881 B(  9-C , 10-H ) :   0.8921 B(  9-C , 11-O ) :   1.0600
B(  9-C , 12-O ) :   1.0869 B( 12-O , 19-H ) :   0.8293 B( 13-O , 20-H ) :   0.8440
B( 14-O , 21-H ) :   0.8317 B( 15-O , 22-H ) :   0.8131 B( 16-O , 23-H ) :   0.8429

Dispersion correction           -0.024667239
FINAL SINGLE POINT ENERGY      -685.692040066428

DIPOLE MOMENT
-------------

Method             : SCF
Type of density    : Electron Density
Multiplicity       :   1
Irrep              :   0
Energy             :  -685.8238652705462073 Eh
Relativity type    :
Basis              : AO
                                X                 Y                 Z
Electronic contribution:      2.120992716       0.765436759       1.084156069
Nuclear contribution   :     -3.566021244      -0.747001461      -1.652133793
                        -----------------------------------------
Total Dipole Moment    :     -1.445028528       0.018435298      -0.567977724
                        -----------------------------------------
Magnitude (a.u.)       :      1.552754328
Magnitude (Debye)      :      3.946787844

Rotational constants in cm-1:             0.043378             0.026624             0.018830
Rotational constants in MHz :          1300.434535           798.164081           564.521621

                             ****ORCA TERMINATED NORMALLY****
TOTAL RUN TIME: 0 days 0 hours 0 minutes 9 seconds 243 msec
