                         Program Version 6.0.1  -  RELEASE   -
|  1> ! pbe def2-sv(p) def2/J RI DEFGRID1 loosescf d4 GCP(DFT/SV(P)) printgap
|  2> %output
|  3>     printlevel normal
|  4> end
|  5> * xyz 0 1
|  6> C -2.5442739021 -0.6960292791 -0.3691846201
|  7> C -1.1684912691 -0.3262623951 0.1993921425
|  8> H -1.232170292 -0.2568410875 1.2995474824
|  9> C -0.7005624971 1.0366973497 -0.3323962268
| 10> H -0.680759902 1.005285744 -1.433457285
| 11> C 0.7222951421 1.3230108406 0.1632963685
| 12> H 0.7089241058 1.4186005761 1.2623451688
| 13> C 1.6425657828 0.1600673592 -0.206603849
| 14> H 1.7029258169 0.0754379906 -1.3031549133
| 15> C 1.0386046502 -1.145704462 0.335092265
| 16> H 1.0185734524 -1.0927260563 1.4467826861
| 17> O -0.2562443204 -1.3437209816 -0.1568302342
| 18> O 1.8297271381 -2.2080947804 -0.0816899063
| 19> O 2.9129330777 0.4071578317 0.3410027991
| 20> O 1.1488016708 2.5329694073 -0.4130415833
| 21> O -1.59223239 2.0230510471 0.1133906871
| 22> O -3.1729853144 -1.7360246186 0.3261743725
| 23> H -2.4148544304 -1.0556504414 -1.3911449081
| 24> H -3.159231978 0.21256206 -0.3718113274
| 25> H 1.2478224307 -2.96635876 -0.212562972
| 26> H 3.4322920962 -0.4008171033 0.2496751064
| 27> H 2.0972241138 2.6071906374 -0.2516732283
| 28> H -1.1812476453 2.8771020212 -0.0745806254
| 29> H -3.3154896177 -1.4622058758 1.2395454073
| 30> *
| 31>
| 32>                          ****END OF INPUT****

CARTESIAN COORDINATES (ANGSTROEM)
---------------------------------
  C     -2.544274   -0.696029   -0.369185
  C     -1.168491   -0.326262    0.199392
  H     -1.232170   -0.256841    1.299547
  C     -0.700562    1.036697   -0.332396
  H     -0.680760    1.005286   -1.433457
  C      0.722295    1.323011    0.163296
  H      0.708924    1.418601    1.262345
  C      1.642566    0.160067   -0.206604
  H      1.702926    0.075438   -1.303155
  C      1.038605   -1.145704    0.335092
  H      1.018573   -1.092726    1.446783
  O     -0.256244   -1.343721   -0.156830
  O      1.829727   -2.208095   -0.081690
  O      2.912933    0.407158    0.341003
  O      1.148802    2.532969   -0.413042
  O     -1.592232    2.023051    0.113391
  O     -3.172985   -1.736025    0.326174
  H     -2.414854   -1.055650   -1.391145
  H     -3.159232    0.212562   -0.371811
  H      1.247822   -2.966359   -0.212563
  H      3.432292   -0.400817    0.249675
  H      2.097224    2.607191   -0.251673
  H     -1.181248    2.877102   -0.074581
  H     -3.315490   -1.462206    1.239545

 Total Charge           Charge          ....    0
 Multiplicity           Mult            ....    1
 Number of Electrons    NEL             ....   96
 Basis Dimension        Dim             ....  192

ORBITAL ENERGIES
----------------

  NO   OCC          E(Eh)            E(eV)
   0   2.0000     -18.780941      -511.0554
   1   2.0000     -18.767972      -510.7025
   2   2.0000     -18.763322      -510.5760
   3   2.0000     -18.759093      -510.4609
   4   2.0000     -18.755844      -510.3725
   5   2.0000     -18.745025      -510.0781
   6   2.0000      -9.991916      -271.8939
   7   2.0000      -9.950297      -270.7613
   8   2.0000      -9.946427      -270.6560
   9   2.0000      -9.945596      -270.6334
  10   2.0000      -9.943293      -270.5708
  11   2.0000      -9.929846      -270.2048
  12   2.0000      -0.995207       -27.0809
  13   2.0000      -0.952710       -25.9245
  14   2.0000      -0.942338       -25.6423
  15   2.0000      -0.927345       -25.2343
  16   2.0000      -0.922304       -25.0972
  17   2.0000      -0.917775       -24.9739
  18   2.0000      -0.710105       -19.3229
  19   2.0000      -0.696446       -18.9513
  20   2.0000      -0.617626       -16.8065
  21   2.0000      -0.585477       -15.9317
  22   2.0000      -0.564410       -15.3584
  23   2.0000      -0.535923       -14.5832
  24   2.0000      -0.518403       -14.1065
  25   2.0000      -0.486197       -13.2301
  26   2.0000      -0.477284       -12.9875
  27   2.0000      -0.460989       -12.5442
  28   2.0000      -0.454239       -12.3605
  29   2.0000      -0.437681       -11.9099
  30   2.0000      -0.416636       -11.3373
  31   2.0000      -0.398246       -10.8368
  32   2.0000      -0.393874       -10.7179
  33   2.0000      -0.384442       -10.4612
  34   2.0000      -0.363193        -9.8830
  35   2.0000      -0.352917        -9.6034
  36   2.0000      -0.334738        -9.1087
  37   2.0000      -0.324954        -8.8424
  38   2.0000      -0.315591        -8.5877
  39   2.0000      -0.300611        -8.1800
  40   2.0000      -0.290601        -7.9076
  41   2.0000      -0.273789        -7.4502
  42   2.0000      -0.253644        -6.9020
  43   2.0000      -0.248850        -6.7716
  44   2.0000      -0.232300        -6.3212
  45   2.0000      -0.226074        -6.1518
  46   2.0000      -0.213252        -5.8029
  47   2.0000      -0.210774        -5.7354
  48   0.0000       0.015380         0.4185
  49   0.0000       0.028232         0.7682
  50   0.0000       0.032741         0.8909
  51   0.0000       0.045769         1.2455
  52   0.0000       0.060764         1.6535

MULLIKEN ATOMIC CHARGES
-----------------------
   0 C :    0.092704
   1 C :    0.000435
   2 H :    0.041778
   3 C :    0.042603
   4 H :    0.060309
   5 C :    0.063134
   6 H :    0.054740
   7 C :    0.038257
   8 H :    0.057804
   9 C :    0.179889
  10 H :    0.039014
  11 O :   -0.304398
  12 O :   -0.399536
  13 O :   -0.425404
  14 O :   -0.425180
  15 O :   -0.416253
  16 O :   -0.429518
  17 H :    0.085012
  18 H :    0.095264
  19 H :    0.313471
  20 H :    0.314383
  21 H :    0.314779
  22 H :    0.313112
  23 H :    0.293602
Sum of atomic charges:   -0.0000000

LOEWDIN ATOMIC CHARGES
----------------------
   0 C :   -0.127555
   1 C :   -0.065121
   2 H :    0.099506
   3 C :   -0.067425
   4 H :    0.106868
   5 C :   -0.077137
   6 H :    0.103940
   7 C :   -0.093963
   8 H :    0.107158
   9 C :    0.000245
  10 H :    0.080569
  11 O :   -0.140467
  12 O :   -0.313054
  13 O :   -0.322940
  14 O :   -0.324576
  15 O :   -0.316688
  16 O :   -0.331129
  17 H :    0.119656
  18 H :    0.108281
  19 H :    0.294959
  20 H :    0.293040
  21 H :    0.292645
  22 H :    0.291283
  23 H :    0.281905

  Mayer bond orders larger than 0.100000
B(  0-C ,  1-C ) :   1.0392 B(  0-C , 16-O ) :   1.0836 B(  0-C , 17-H ) :   0.9042
B(  0-C , 18-H ) :   0.9158 B(  1-C ,  2-H ) :   0.8678 B(  1-C ,  3-C ) :   1.0013
B(  1-C , 11-O ) :   0.9902 B(  3-C ,  4-H ) :   0.8721 B(  3-C ,  5-C ) :   1.0221
B(  3-C , 15-O ) :   1.0617 B(  5-C ,  6-H ) :   0.8721 B(  5-C ,  7-C ) :   1.0108
B(  5-C , 14-O ) :   1.0824 B(  7-C ,  8-H ) :   0.8622 B(  7-C ,  9-C ) :   0.9905
B(  7-C , 13-O ) :   1.0645 B(  9-C , 10-H ) :   0.8837 B(  9-C , 11-O ) :   1.0266
B(  9-C , 12-O ) :   1.1443 B( 12-O , 19-H ) :   0.8353 B( 13-O , 20-H ) :   0.8370
B( 14-O , 21-H ) :   0.8358 B( 15-O , 22-H ) :   0.8350 B( 16-O , 23-H ) :   0.8549

Dispersion correction           -0.023581010
FINAL SINGLE POINT ENERGY      -685.698990453367

DIPOLE MOMENT
-------------

Method             : SCF
Type of density    : Electron Density
Multiplicity       :   1
Irrep              :   0
Energy             :  -685.8296698126189312 Eh
Relativity type    :
Basis              : AO
                                X                 Y                 Z
Electronic contribution:      2.122523710      -0.833085151      -0.103270331
Nuclear contribution   :     -1.653293878       0.897315641       0.433010266
                        -----------------------------------------
Total Dipole Moment    :      0.469229832       0.064230490       0.329739935
                        -----------------------------------------
Magnitude (a.u.)       :      0.577088049
Magnitude (Debye)      :      1.466841248

Rotational constants in cm-1:             0.039946             0.025518             0.016311
Rotational constants in MHz :          1197.537438           765.004404           488.989504

                             ****ORCA TERMINATED NORMALLY****
TOTAL RUN TIME: 0 days 0 hours 0 minutes 9 seconds 136 msec
