                         Program Version 6.0.0  -   RELEASE  -
|  1> ! r2SCAN-3c DEF2-TZVP FREQ
|  2> * xyzfile 0 1 censo.xyz
|  3>
|  4>                          ****END OF INPUT****

CARTESIAN COORDINATES (ANGSTROEM)
---------------------------------
  C     -2.415469    0.004975    0.000216
  C     -0.984810    0.529845   -0.000155
  C      0.033496   -0.624418   -0.000113
  C      1.410484   -0.161076   -0.001942
  C      2.543887    0.255877    0.001830
  H     -2.607873   -0.610676   -0.885076
  H     -2.607652   -0.610100    0.885946
  H     -3.134656    0.829447    0.000005
  H     -0.810909    1.156528   -0.881634
  H     -0.810468    1.157091    0.880839
  H     -0.132721   -1.259044   -0.879723
  H     -0.131850   -1.258430    0.880089
  H      3.548041    0.616148    0.000088

 Total Charge           Charge          ....    0
 Multiplicity           Mult            ....    1
 Number of Electrons    NEL             ....   38
 Basis Dimension        Dim             ....  203

ORBITAL ENERGIES
----------------

  NO   OCC          E(Eh)            E(eV)
   0   2.0000     -10.058545      -273.7069
   1   2.0000     -10.039219      -273.1810
   2   2.0000     -10.035576      -273.0819
   3   2.0000     -10.027677      -272.8670
   4   2.0000     -10.021785      -272.7066
   5   2.0000      -0.779755       -21.2182
   6   2.0000      -0.714597       -19.4452
   7   2.0000      -0.658521       -17.9193
   8   2.0000      -0.571571       -15.5532
   9   2.0000      -0.496216       -13.5027
  10   2.0000      -0.446233       -12.1426
  11   2.0000      -0.437567       -11.9068
  12   2.0000      -0.393969       -10.7204
  13   2.0000      -0.375658       -10.2222
  14   2.0000      -0.340598        -9.2681
  15   2.0000      -0.326112        -8.8740
  16   2.0000      -0.312570        -8.5055
  17   2.0000      -0.243573        -6.6280
  18   2.0000      -0.243374        -6.6225
  19   0.0000       0.017294         0.4706
  20   0.0000       0.022195         0.6040
  21   0.0000       0.047165         1.2834
  22   0.0000       0.083897         2.2830
  23   0.0000       0.092641         2.5209

MULLIKEN ATOMIC CHARGES
-----------------------
   0 C :   -0.322970
   1 C :   -0.114322
   2 C :   -0.362231
   3 C :   -0.091501
   4 C :   -0.015376
   5 H :    0.100287
   6 H :    0.100229
   7 H :    0.111968
   8 H :    0.093503
   9 H :    0.093644
  10 H :    0.111694
  11 H :    0.111264
  12 H :    0.183810
Sum of atomic charges:   -0.0000000

LOEWDIN ATOMIC CHARGES
----------------------
   0 C :   -0.309519
   1 C :   -0.272168
   2 C :   -0.245783
   3 C :   -0.122305
   4 C :   -0.117238
   5 H :    0.118325
   6 H :    0.118321
   7 H :    0.120301
   8 H :    0.136848
   9 H :    0.136846
  10 H :    0.155182
  11 H :    0.155194
  12 H :    0.125996

  Mayer bond orders larger than 0.100000
B(  0-C ,  1-C ) :   0.9662 B(  0-C ,  5-H ) :   0.9745 B(  0-C ,  6-H ) :   0.9744
B(  0-C ,  7-H ) :   0.9773 B(  1-C ,  2-C ) :   0.9774 B(  1-C ,  8-H ) :   0.9663
B(  1-C ,  9-H ) :   0.9660 B(  2-C ,  3-C ) :   1.2535 B(  2-C ,  4-C ) :  -0.1471
B(  2-C , 10-H ) :   0.9482 B(  2-C , 11-H ) :   0.9456 B(  3-C ,  4-C ) :   2.7287
B(  4-C , 12-H ) :   0.9399

Dispersion correction           -0.002655140
FINAL SINGLE POINT ENERGY      -195.223867000823

DIPOLE MOMENT
-------------

Method             : SCF
Type of density    : Electron Density
Multiplicity       :   1
Irrep              :   0
Energy             :  -195.2258382756975834 Eh
Relativity type    :
Basis              : AO
                                X                 Y                 Z
Electronic contribution:      5.935902519      -0.041870764      -0.001049864
Nuclear contribution   :     -6.309414253       0.010456159       0.000658970
                        -----------------------------------------
Total Dipole Moment    :     -0.373511734      -0.031414604      -0.000390893
                        -----------------------------------------
Magnitude (a.u.)       :      0.374830689
Magnitude (Debye)      :      0.952743897

VIBRATIONAL FREQUENCIES
-----------------------

Scaling factor for frequencies =  1.000000000  (already applied!)

     0:       0.00 cm**-1
     1:       0.00 cm**-1
     2:       0.00 cm**-1
     3:       0.00 cm**-1
     4:       0.00 cm**-1
     5:       0.00 cm**-1
     6:     103.67 cm**-1
     7:     160.28 cm**-1
     8:     258.72 cm**-1
     9:     347.20 cm**-1
    10:     348.87 cm**-1
    11:     507.06 cm**-1
    12:     661.57 cm**-1
    13:     667.48 cm**-1
    14:     751.55 cm**-1
    15:     874.63 cm**-1
    16:     879.24 cm**-1
    17:     973.44 cm**-1
    18:    1043.26 cm**-1
    19:    1107.14 cm**-1
    20:    1120.10 cm**-1
    21:    1257.08 cm**-1
    22:    1294.76 cm**-1
    23:    1321.11 cm**-1
    24:    1366.83 cm**-1
    25:    1403.35 cm**-1
    26:    1459.16 cm**-1
    27:    1484.82 cm**-1
    28:    1493.61 cm**-1
    29:    1499.22 cm**-1
    30:    2181.63 cm**-1
    31:    3000.47 cm**-1
    32:    3004.44 cm**-1
    33:    3022.88 cm**-1
    34:    3036.30 cm**-1
    35:    3062.61 cm**-1
    36:    3088.13 cm**-1
    37:    3088.58 cm**-1
    38:    3441.80 cm**-1

IR SPECTRUM
-----------

 Mode   freq       eps      Int      T**2         TX        TY        TZ
       cm**-1   L/(mol*cm) km/mol    a.u.
----------------------------------------------------------------------------
  6:    103.67   0.000007    0.03  0.000020  (-0.000037 -0.000078  0.004454)
  7:    160.28   0.000070    0.35  0.000137  (-0.000626  0.011673  0.000066)
  8:    258.72   0.000010    0.05  0.000012  ( 0.000026  0.000020  0.003518)
  9:    347.20   0.001353    6.84  0.001216  (-0.000266  0.001326  0.034848)
 10:    348.87   0.000268    1.36  0.000240  ( 0.006233 -0.013819  0.003208)
 11:    507.06   0.001143    5.78  0.000703  (-0.014924  0.021922  0.000008)
 12:    661.57   0.010891   55.04  0.005137  ( 0.000316  0.000951  0.071668)
 13:    667.48   0.010452   52.82  0.004887  ( 0.024190 -0.065581  0.000751)
 14:    751.55   0.000251    1.27  0.000104  ( 0.000041  0.000051 -0.010200)
 15:    874.63   0.000244    1.23  0.000087  (-0.000082 -0.000103 -0.009330)
 16:    879.24   0.000712    3.60  0.000253  ( 0.004418 -0.015271  0.000036)
 17:    973.44   0.000197    1.00  0.000063  ( 0.005900 -0.005329 -0.000009)
 18:   1043.26   0.000194    0.98  0.000058  (-0.007596 -0.000641 -0.000002)
 19:   1107.14   0.000388    1.96  0.000109  ( 0.010204 -0.002317 -0.000006)
 20:   1120.10   0.000000    0.00  0.000000  ( 0.000178  0.000049  0.000230)
 21:   1257.08   0.000004    0.02  0.000001  (-0.000106 -0.000036  0.000982)
 22:   1294.76   0.001251    6.32  0.000302  (-0.016698 -0.004769  0.000003)
 23:   1321.11   0.000004    0.02  0.000001  (-0.000047 -0.000006 -0.001001)
 24:   1366.83   0.000207    1.04  0.000047  ( 0.003063 -0.006146 -0.000001)
 25:   1403.35   0.000522    2.64  0.000116  (-0.009012 -0.005896  0.000003)
 26:   1459.16   0.000426    2.15  0.000091  (-0.002086  0.009315  0.000005)
 27:   1484.82   0.000213    1.08  0.000045  (-0.006324 -0.002190  0.000021)
 28:   1493.61   0.001709    8.64  0.000357  (-0.000007 -0.000018 -0.018895)
 29:   1499.22   0.001527    7.72  0.000318  (-0.001563  0.017759 -0.000016)
 30:   2181.63   0.002991   15.11  0.000428  (-0.020216 -0.004375 -0.000010)
 31:   3000.47   0.001237    6.25  0.000129  (-0.003369 -0.010828 -0.000050)
 32:   3004.44   0.006334   32.01  0.000658  ( 0.023478  0.010328  0.000013)
 33:   3022.88   0.006115   30.90  0.000631  ( 0.009202  0.023379  0.000008)
 34:   3036.30   0.000535    2.70  0.000055  ( 0.000020  0.000054 -0.007415)
 35:   3062.61   0.000044    0.22  0.000004  ( 0.000009 -0.000015  0.002114)
 36:   3088.13   0.011345   57.33  0.001146  (-0.000405  0.000882  0.033845)
 37:   3088.58   0.006365   32.17  0.000643  (-0.010459  0.023067 -0.001291)
 38:   3441.80   0.014244   71.98  0.001291  ( 0.034285  0.010772 -0.000045)

--------------------------
THERMOCHEMISTRY AT 298.15K
--------------------------

Temperature         ...   298.15 K
Pressure            ...     1.00 atm
Total Mass          ...    68.12 AMU
Quasi RRHO          ...     True
Cut-Off Frequency   ...     1.00 cm^-1

Throughout the following assumptions are being made:
  (1) The electronic state is orbitally nondegenerate
  (2) There are no thermally accessible electronically excited states
  (3) Hindered rotations indicated by low frequency modes are not
      treated as such but are treated as vibrations and this may
      cause some error
  (4) All equations used are the standard statistical mechanics
      equations for an ideal gas
  (5) All vibrations are strictly harmonic

freq.     103.67  E(vib)   ...       0.46
freq.     160.28  E(vib)   ...       0.39
freq.     258.72  E(vib)   ...       0.30
freq.     347.20  E(vib)   ...       0.23
freq.     348.87  E(vib)   ...       0.23
freq.     507.06  E(vib)   ...       0.14
freq.     661.57  E(vib)   ...       0.08
freq.     667.48  E(vib)   ...       0.08
freq.     751.55  E(vib)   ...       0.06
freq.     874.63  E(vib)   ...       0.04
freq.     879.24  E(vib)   ...       0.04
freq.     973.44  E(vib)   ...       0.03
freq.    1043.26  E(vib)   ...       0.02
freq.    1107.14  E(vib)   ...       0.02
freq.    1120.10  E(vib)   ...       0.01
freq.    1257.08  E(vib)   ...       0.01
freq.    1294.76  E(vib)   ...       0.01
freq.    1321.11  E(vib)   ...       0.01
freq.    1366.83  E(vib)   ...       0.01
freq.    1403.35  E(vib)   ...       0.00
freq.    1459.16  E(vib)   ...       0.00
freq.    1484.82  E(vib)   ...       0.00
freq.    1493.61  E(vib)   ...       0.00
freq.    1499.22  E(vib)   ...       0.00
freq.    2181.63  E(vib)   ...       0.00
freq.    3000.47  E(vib)   ...       0.00
freq.    3004.44  E(vib)   ...       0.00
freq.    3022.88  E(vib)   ...       0.00
freq.    3036.30  E(vib)   ...       0.00
freq.    3062.61  E(vib)   ...       0.00
freq.    3088.13  E(vib)   ...       0.00
freq.    3088.58  E(vib)   ...       0.00
freq.    3441.80  E(vib)   ...       0.00

------------
INNER ENERGY
------------

The inner energy is: U= E(el) + E(ZPE) + E(vib) + E(rot) + E(trans)
    E(el)   - is the total energy from the electronic structure calculation
              = E(kin-el) + E(nuc-el) + E(el-el) + E(nuc-nuc)
    E(ZPE)  - the the zero temperature vibrational energy from the frequency calculation
    E(vib)  - the the finite temperature correction to E(ZPE) due to population
              of excited vibrational states
    E(rot)  - is the rotational thermal energy
    E(trans)- is the translational thermal energy

Summary of contributions to the inner energy U:
Electronic energy                ...   -195.22386700 Eh
Zero point energy                ...      0.11233870 Eh      70.49 kcal/mol
Thermal vibrational correction   ...      0.00343203 Eh       2.15 kcal/mol
Thermal rotational correction    ...      0.00141627 Eh       0.89 kcal/mol
Thermal translational correction ...      0.00141627 Eh       0.89 kcal/mol
-----------------------------------------------------------------------
Total thermal energy                   -195.10526372 Eh

Summary of corrections to the electronic energy:
(perhaps to be used in another calculation)
Total thermal correction                  0.00626457 Eh       3.93 kcal/mol
Non-thermal (ZPE) correction              0.11233870 Eh      70.49 kcal/mol
-----------------------------------------------------------------------
Total correction                          0.11860328 Eh      74.42 kcal/mol

--------
ENTHALPY
--------

The enthalpy is H = U + kB*T
                kB is Boltzmann's constant
Total thermal energy              ...   -195.10526372 Eh
Thermal Enthalpy correction       ...      0.00094421 Eh       0.59 kcal/mol
-----------------------------------------------------------------------
Total Enthalpy                    ...   -195.10431952 Eh

Note: Only C1 symmetry has been detected, increase convergence thresholds
      if your molecule has a higher symmetry. Symmetry factor of 1.0 is
      used for the rotational entropy correction.

Note: Rotational entropy computed according to Herzberg
Infrared and Raman Spectra, Chapter V,1, Van Nostrand Reinhold, 1945
Point Group:  C1, Symmetry Number:   1
Rotational constants in cm-1:     0.781197     0.074679     0.070861

Vibrational entropy computed according to the QRRHO of S. Grimme
Chem.Eur.J. 2012 18 9955 using a reference frequency of 100.0 cm-1

-------
ENTROPY
-------

The entropy contributions are T*S = T*(S(el)+S(vib)+S(rot)+S(trans))
     S(el)   - electronic entropy
     S(vib)  - vibrational entropy
     S(rot)  - rotational entropy
     S(trans)- translational entropy
The entropies will be listed as multiplied by the temperature to get
units of energy

Electronic entropy                ...      0.00000000 Eh      0.00 kcal/mol
Vibrational entropy               ...      0.00572831 Eh      3.59 kcal/mol
Rotational entropy                ...      0.01210189 Eh      7.59 kcal/mol
Translational entropy             ...      0.01832752 Eh     11.50 kcal/mol
-----------------------------------------------------------------------
Final entropy term                ...      0.03615771 Eh     22.69 kcal/mol

In case the symmetry of your molecule has not been determined correctly
or in case you have a reason to use a different symmetry number we print
out the resulting rotational entropy values for sn=1,12:

 non-linear molecules -----------------------------------
|  sn= 1 | S(rot)=       0.01210189 Eh      7.59 kcal/mol|
|  sn= 2 | S(rot)=       0.01144743 Eh      7.18 kcal/mol|
|  sn= 3 | S(rot)=       0.01106460 Eh      6.94 kcal/mol|
|  sn= 4 | S(rot)=       0.01079298 Eh      6.77 kcal/mol|
|  sn= 5 | S(rot)=       0.01058229 Eh      6.64 kcal/mol|
|  sn= 6 | S(rot)=       0.01041014 Eh      6.53 kcal/mol|
|  sn= 7 | S(rot)=       0.01026460 Eh      6.44 kcal/mol|
|  sn= 8 | S(rot)=       0.01013852 Eh      6.36 kcal/mol|
|  sn= 9 | S(rot)=       0.01002731 Eh      6.29 kcal/mol|
|  sn=10 | S(rot)=       0.00992783 Eh      6.23 kcal/mol|
|  sn=11 | S(rot)=       0.00983784 Eh      6.17 kcal/mol|
|  sn=12 | S(rot)=       0.00975569 Eh      6.12 kcal/mol|
 linear molecules ---------------------------------------
|  Dinfh | S(rot)=       0.00782509 Eh      4.91 kcal/mol|
|  Cinfv | S(rot)=       0.00847955 Eh      5.32 kcal/mol|
 --------------------------------------------------------

-------------------
GIBBS FREE ENERGY
-------------------

The Gibbs free energy is G = H - T*S

Total enthalpy                    ...   -195.10431952 Eh
Total entropy correction          ...     -0.03615771 Eh    -22.69 kcal/mol
-----------------------------------------------------------------------

                             ****ORCA TERMINATED NORMALLY****
TOTAL RUN TIME: 0 days 0 hours 4 minutes 31 seconds 145 msec
