                         Program Version 6.0.0  -   RELEASE  -
|  1> ! r2SCAN-3c DEF2-TZVP FREQ
|  2> * xyzfile 0 1 vacuum_censo.xyz
|  3>
|  4>                          ****END OF INPUT****

CARTESIAN COORDINATES (ANGSTROEM)
---------------------------------
  C     -2.418885    0.007441    0.000009
  C     -0.983747    0.524812    0.000016
  C      0.037999   -0.627053    0.000153
  C      1.414227   -0.161804    0.000542
  C      2.542880    0.259237   -0.002249
  H     -2.617178   -0.607173    0.884793
  H     -3.135545    0.833718   -0.000147
  H     -2.617095   -0.607444   -0.884605
  H     -0.804807    1.154029   -0.878547
  H     -0.804864    1.154147    0.878501
  H     -0.129257   -1.263893   -0.878752
  H     -0.129504   -1.263936    0.878981
  H      3.541983    0.621832    0.001345

 Total Charge           Charge          ....    0
 Multiplicity           Mult            ....    1
 Number of Electrons    NEL             ....   38
 Basis Dimension        Dim             ....  203

ORBITAL ENERGIES
----------------

  NO   OCC          E(Eh)            E(eV)
   0   2.0000     -10.058615      -273.7088
   1   2.0000     -10.039305      -273.1834
   2   2.0000     -10.034973      -273.0655
   3   2.0000     -10.027878      -272.8724
   4   2.0000     -10.020835      -272.6808
   5   2.0000      -0.779307       -21.2060
   6   2.0000      -0.714761       -19.4496
   7   2.0000      -0.658917       -17.9300
   8   2.0000      -0.571831       -15.5603
   9   2.0000      -0.496857       -13.5202
  10   2.0000      -0.445276       -12.1166
  11   2.0000      -0.437881       -11.9153
  12   2.0000      -0.393746       -10.7144
  13   2.0000      -0.375215       -10.2101
  14   2.0000      -0.341403        -9.2900
  15   2.0000      -0.325945        -8.8694
  16   2.0000      -0.311972        -8.4892
  17   2.0000      -0.244198        -6.6450
  18   2.0000      -0.243871        -6.6361
  19   0.0000       0.017763         0.4833
  20   0.0000       0.022694         0.6175
  21   0.0000       0.047269         1.2862
  22   0.0000       0.083959         2.2846
  23   0.0000       0.092673         2.5217

MULLIKEN ATOMIC CHARGES
-----------------------
   0 C :   -0.323811
   1 C :   -0.115644
   2 C :   -0.363127
   3 C :   -0.093192
   4 C :   -0.011534
   5 H :    0.100596
   6 H :    0.112467
   7 H :    0.100574
   8 H :    0.093693
   9 H :    0.093580
  10 H :    0.111182
  11 H :    0.111521
  12 H :    0.183694
Sum of atomic charges:    0.0000000

LOEWDIN ATOMIC CHARGES
----------------------
   0 C :   -0.309379
   1 C :   -0.272166
   2 C :   -0.245709
   3 C :   -0.122398
   4 C :   -0.115461
   5 H :    0.118228
   6 H :    0.120290
   7 H :    0.118230
   8 H :    0.136752
   9 H :    0.136742
  10 H :    0.155088
  11 H :    0.155058
  12 H :    0.124726

  Mayer bond orders larger than 0.100000
B(  0-C ,  1-C ) :   0.9662 B(  0-C ,  5-H ) :   0.9745 B(  0-C ,  6-H ) :   0.9771
B(  0-C ,  7-H ) :   0.9744 B(  1-C ,  2-C ) :   0.9765 B(  1-C ,  8-H ) :   0.9664
B(  1-C ,  9-H ) :   0.9666 B(  2-C ,  3-C ) :   1.2543 B(  2-C ,  4-C ) :  -0.1501
B(  2-C , 10-H ) :   0.9466 B(  2-C , 11-H ) :   0.9485 B(  3-C ,  4-C ) :   2.7300
B(  4-C , 12-H ) :   0.9385

Dispersion correction           -0.002654003
FINAL SINGLE POINT ENERGY      -195.223935568474

DIPOLE MOMENT
-------------

Method             : SCF
Type of density    : Electron Density
Multiplicity       :   1
Irrep              :   0
Energy             :  -195.2259048082474919 Eh
Relativity type    :
Basis              : AO
                                X                 Y                 Z
Electronic contribution:      5.950753836      -0.045094843      -0.001671942
Nuclear contribution   :     -6.322647204       0.014117717       0.003321349
                        -----------------------------------------
Total Dipole Moment    :     -0.371893368      -0.030977126       0.001649407
                        -----------------------------------------
Magnitude (a.u.)       :      0.373184914
Magnitude (Debye)      :      0.948560667

VIBRATIONAL FREQUENCIES
-----------------------

Scaling factor for frequencies =  1.000000000  (already applied!)

     0:       0.00 cm**-1
     1:       0.00 cm**-1
     2:       0.00 cm**-1
     3:       0.00 cm**-1
     4:       0.00 cm**-1
     5:       0.00 cm**-1
     6:      98.78 cm**-1
     7:     147.64 cm**-1
     8:     251.90 cm**-1
     9:     339.34 cm**-1
    10:     346.15 cm**-1
    11:     503.09 cm**-1
    12:     636.44 cm**-1
    13:     642.81 cm**-1
    14:     749.08 cm**-1
    15:     873.81 cm**-1
    16:     877.53 cm**-1
    17:     972.50 cm**-1
    18:    1041.39 cm**-1
    19:    1106.13 cm**-1
    20:    1119.36 cm**-1
    21:    1255.96 cm**-1
    22:    1296.13 cm**-1
    23:    1321.65 cm**-1
    24:    1368.15 cm**-1
    25:    1403.59 cm**-1
    26:    1461.38 cm**-1
    27:    1485.47 cm**-1
    28:    1493.16 cm**-1
    29:    1499.54 cm**-1
    30:    2198.64 cm**-1
    31:    2993.93 cm**-1
    32:    3005.42 cm**-1
    33:    3024.18 cm**-1
    34:    3028.15 cm**-1
    35:    3060.92 cm**-1
    36:    3086.86 cm**-1
    37:    3090.31 cm**-1
    38:    3479.86 cm**-1

IR SPECTRUM
-----------

 Mode   freq       eps      Int      T**2         TX        TY        TZ
       cm**-1   L/(mol*cm) km/mol    a.u.
----------------------------------------------------------------------------
  6:     98.78   0.000000    0.00  0.000001  ( 0.000073  0.000097  0.001005)
  7:    147.64   0.000106    0.53  0.000224  ( 0.001829 -0.014844  0.000055)
  8:    251.90   0.000008    0.04  0.000010  (-0.000004 -0.000004  0.003216)
  9:    339.34   0.001447    7.31  0.001330  (-0.000046 -0.000253  0.036474)
 10:    346.15   0.000270    1.37  0.000244  ( 0.006389 -0.014234 -0.000564)
 11:    503.09   0.001237    6.25  0.000768  ( 0.015312 -0.023089 -0.000006)
 12:    636.44   0.010771   54.43  0.005281  (-0.000742 -0.000581  0.072665)
 13:    642.81   0.010282   51.96  0.004992  (-0.024508  0.066263  0.000265)
 14:    749.08   0.000326    1.65  0.000136  ( 0.000028  0.000049  0.011652)
 15:    873.81   0.000225    1.14  0.000080  ( 0.000068  0.000027 -0.008967)
 16:    877.53   0.000711    3.59  0.000253  (-0.004564  0.015230 -0.000022)
 17:    972.50   0.000196    0.99  0.000063  ( 0.005944 -0.005254 -0.000018)
 18:   1041.39   0.000182    0.92  0.000055  (-0.007346 -0.000842 -0.000004)
 19:   1106.13   0.000398    2.01  0.000112  ( 0.010306 -0.002489 -0.000002)
 20:   1119.36   0.000000    0.00  0.000000  ( 0.000106  0.000036 -0.000060)
 21:   1255.96   0.000004    0.02  0.000001  ( 0.000049  0.000014  0.001046)
 22:   1296.13   0.001267    6.41  0.000305  (-0.016818 -0.004722  0.000010)
 23:   1321.65   0.000004    0.02  0.000001  ( 0.000023  0.000001 -0.000989)
 24:   1368.15   0.000211    1.06  0.000048  (-0.003251  0.006123 -0.000005)
 25:   1403.59   0.000482    2.44  0.000107  ( 0.008675  0.005654  0.000000)
 26:   1461.38   0.000407    2.05  0.000087  ( 0.002017 -0.009097 -0.000005)
 27:   1485.47   0.000199    1.01  0.000042  ( 0.006193  0.001863  0.000004)
 28:   1493.16   0.001711    8.64  0.000358  (-0.000002  0.000001 -0.018908)
 29:   1499.54   0.001572    7.95  0.000327  ( 0.001410 -0.018034 -0.000002)
 30:   2198.64   0.003001   15.17  0.000426  (-0.020158 -0.004426  0.000045)
 31:   2993.93   0.002270   11.47  0.000237  (-0.006682 -0.013856  0.000024)
 32:   3005.42   0.005829   29.46  0.000605  ( 0.022734  0.009403 -0.000005)
 33:   3024.18   0.005719   28.90  0.000590  ( 0.008721  0.022672  0.000001)
 34:   3028.15   0.000729    3.69  0.000075  (-0.000001  0.000001 -0.008670)
 35:   3060.92   0.000049    0.25  0.000005  (-0.000004 -0.000004 -0.002244)
 36:   3086.86   0.011337   57.29  0.001146  (-0.000005 -0.000004 -0.033854)
 37:   3090.31   0.006282   31.75  0.000634  (-0.010523  0.022883  0.000004)
 38:   3479.86   0.014154   71.53  0.001269  ( 0.033956  0.010784  0.000091)

--------------------------
THERMOCHEMISTRY AT 298.15K
--------------------------

Temperature         ...   298.15 K
Pressure            ...     1.00 atm
Total Mass          ...    68.12 AMU
Quasi RRHO          ...     True
Cut-Off Frequency   ...     1.00 cm^-1

Throughout the following assumptions are being made:
  (1) The electronic state is orbitally nondegenerate
  (2) There are no thermally accessible electronically excited states
  (3) Hindered rotations indicated by low frequency modes are not
      treated as such but are treated as vibrations and this may
      cause some error
  (4) All equations used are the standard statistical mechanics
      equations for an ideal gas
  (5) All vibrations are strictly harmonic

freq.      98.78  E(vib)   ...       0.46
freq.     147.64  E(vib)   ...       0.41
freq.     251.90  E(vib)   ...       0.30
freq.     339.34  E(vib)   ...       0.23
freq.     346.15  E(vib)   ...       0.23
freq.     503.09  E(vib)   ...       0.14
freq.     636.44  E(vib)   ...       0.09
freq.     642.81  E(vib)   ...       0.09
freq.     749.08  E(vib)   ...       0.06
freq.     873.81  E(vib)   ...       0.04
freq.     877.53  E(vib)   ...       0.04
freq.     972.50  E(vib)   ...       0.03
freq.    1041.39  E(vib)   ...       0.02
freq.    1106.13  E(vib)   ...       0.02
freq.    1119.36  E(vib)   ...       0.01
freq.    1255.96  E(vib)   ...       0.01
freq.    1296.13  E(vib)   ...       0.01
freq.    1321.65  E(vib)   ...       0.01
freq.    1368.15  E(vib)   ...       0.01
freq.    1403.59  E(vib)   ...       0.00
freq.    1461.38  E(vib)   ...       0.00
freq.    1485.47  E(vib)   ...       0.00
freq.    1493.16  E(vib)   ...       0.00
freq.    1499.54  E(vib)   ...       0.00
freq.    2198.64  E(vib)   ...       0.00
freq.    2993.93  E(vib)   ...       0.00
freq.    3005.42  E(vib)   ...       0.00
freq.    3024.18  E(vib)   ...       0.00
freq.    3028.15  E(vib)   ...       0.00
freq.    3060.92  E(vib)   ...       0.00
freq.    3086.86  E(vib)   ...       0.00
freq.    3090.31  E(vib)   ...       0.00
freq.    3479.86  E(vib)   ...       0.00

------------
INNER ENERGY
------------

The inner energy is: U= E(el) + E(ZPE) + E(vib) + E(rot) + E(trans)
    E(el)   - is the total energy from the electronic structure calculation
              = E(kin-el) + E(nuc-el) + E(el-el) + E(nuc-nuc)
    E(ZPE)  - the the zero temperature vibrational energy from the frequency calculation
    E(vib)  - the the finite temperature correction to E(ZPE) due to population
              of excited vibrational states
    E(rot)  - is the rotational thermal energy
    E(trans)- is the translational thermal energy

Summary of contributions to the inner energy U:
Electronic energy                ...   -195.22393557 Eh
Zero point energy                ...      0.11222083 Eh      70.42 kcal/mol
Thermal vibrational correction   ...      0.00351252 Eh       2.20 kcal/mol
Thermal rotational correction    ...      0.00141627 Eh       0.89 kcal/mol
Thermal translational correction ...      0.00141627 Eh       0.89 kcal/mol
-----------------------------------------------------------------------
Total thermal energy                   -195.10536967 Eh

Summary of corrections to the electronic energy:
(perhaps to be used in another calculation)
Total thermal correction                  0.00634506 Eh       3.98 kcal/mol
Non-thermal (ZPE) correction              0.11222083 Eh      70.42 kcal/mol
-----------------------------------------------------------------------
Total correction                          0.11856590 Eh      74.40 kcal/mol

--------
ENTHALPY
--------

The enthalpy is H = U + kB*T
                kB is Boltzmann's constant
Total thermal energy              ...   -195.10536967 Eh
Thermal Enthalpy correction       ...      0.00094421 Eh       0.59 kcal/mol
-----------------------------------------------------------------------
Total Enthalpy                    ...   -195.10442546 Eh

Note: Only C1 symmetry has been detected, increase convergence thresholds
      if your molecule has a higher symmetry. Symmetry factor of 1.0 is
      used for the rotational entropy correction.

Note: Rotational entropy computed according to Herzberg
Infrared and Raman Spectra, Chapter V,1, Van Nostrand Reinhold, 1945
Point Group:  C1, Symmetry Number:   1
Rotational constants in cm-1:     0.781046     0.074591     0.070771

Vibrational entropy computed according to the QRRHO of S. Grimme
Chem.Eur.J. 2012 18 9955 using a reference frequency of 100.0 cm-1

-------
ENTROPY
-------

The entropy contributions are T*S = T*(S(el)+S(vib)+S(rot)+S(trans))
     S(el)   - electronic entropy
     S(vib)  - vibrational entropy
     S(rot)  - rotational entropy
     S(trans)- translational entropy
The entropies will be listed as multiplied by the temperature to get
units of energy

Electronic entropy                ...      0.00000000 Eh      0.00 kcal/mol
Vibrational entropy               ...      0.00589975 Eh      3.70 kcal/mol
Rotational entropy                ...      0.01210314 Eh      7.59 kcal/mol
Translational entropy             ...      0.01832752 Eh     11.50 kcal/mol
-----------------------------------------------------------------------
Final entropy term                ...      0.03633040 Eh     22.80 kcal/mol

In case the symmetry of your molecule has not been determined correctly
or in case you have a reason to use a different symmetry number we print
out the resulting rotational entropy values for sn=1,12:

 non-linear molecules -----------------------------------
|  sn= 1 | S(rot)=       0.01210314 Eh      7.59 kcal/mol|
|  sn= 2 | S(rot)=       0.01144868 Eh      7.18 kcal/mol|
|  sn= 3 | S(rot)=       0.01106585 Eh      6.94 kcal/mol|
|  sn= 4 | S(rot)=       0.01079422 Eh      6.77 kcal/mol|
|  sn= 5 | S(rot)=       0.01058353 Eh      6.64 kcal/mol|
|  sn= 6 | S(rot)=       0.01041139 Eh      6.53 kcal/mol|
|  sn= 7 | S(rot)=       0.01026584 Eh      6.44 kcal/mol|
|  sn= 8 | S(rot)=       0.01013977 Eh      6.36 kcal/mol|
|  sn= 9 | S(rot)=       0.01002856 Eh      6.29 kcal/mol|
|  sn=10 | S(rot)=       0.00992908 Eh      6.23 kcal/mol|
|  sn=11 | S(rot)=       0.00983909 Eh      6.17 kcal/mol|
|  sn=12 | S(rot)=       0.00975693 Eh      6.12 kcal/mol|
 linear molecules ---------------------------------------
|  Dinfh | S(rot)=       0.00782629 Eh      4.91 kcal/mol|
|  Cinfv | S(rot)=       0.00848075 Eh      5.32 kcal/mol|
 --------------------------------------------------------

-------------------
GIBBS FREE ENERGY
-------------------

The Gibbs free energy is G = H - T*S

Total enthalpy                    ...   -195.10442546 Eh
Total entropy correction          ...     -0.03633040 Eh    -22.80 kcal/mol
-----------------------------------------------------------------------

                             ****ORCA TERMINATED NORMALLY****
TOTAL RUN TIME: 0 days 0 hours 4 minutes 23 seconds 116 msec
