                         Program Version 6.0.1  -  RELEASE   -
|  1> ! r2scan-3c def2/J RI DEFGRID2 scfconv6 printgap
|  2> %output
|  3>     printlevel normal
|  4> end
|  5> * xyz 0 1
|  6> C -3.5548442248 -0.2574109747 -0.4373542192
|  7> O -2.1846554004 -0.0842829375 -0.7754262189
|  8> C -1.3136714318 0.0784906861 0.2299678962
|  9> O -1.6269910926 0.1087758495 1.3908040933
| 10> C 0.0998095275 0.1848273978 -0.2980734852
| 11> C 0.7552967243 -1.1983361312 -0.1729228593
| 12> C 2.2030243038 -1.1463707506 -0.649612606
| 13> C 2.9923257198 -0.1163721765 0.1518819505
| 14> C 2.3461172585 1.2596341829 0.0270558184
| 15> C 0.8968522034 1.217754718 0.4995420132
| 16> H -4.1416737851 0.2608744105 -1.1931649671
| 17> H -3.7487445078 0.1567126606 0.5537904445
| 18> H -3.7980094282 -1.321552716 -0.4407516953
| 19> H 0.0539833606 0.4671490278 -1.3536210468
| 20> H 0.723379803 -1.5083615075 0.8738660878
| 21> H 0.1919749434 -1.9259595601 -0.761312339
| 22> H 2.6579895817 -2.1330087596 -0.5419893729
| 23> H 2.2271168896 -0.8793674237 -1.7086721156
| 24> H 3.0113650106 -0.413112496 1.2026614901
| 25> H 4.0234718757 -0.0777570705 -0.2051351945
| 26> H 2.9030708031 1.9883467281 0.6189496911
| 27> H 2.3783560744 1.5814979262 -1.0166912728
| 28> H 0.8549561746 0.948720314 1.5564591996
| 29> H 0.4378023152 2.2022618576 0.3872886431
| 30> *
| 31>
| 32>                          ****END OF INPUT****

CARTESIAN COORDINATES (ANGSTROEM)
---------------------------------
  C     -3.554844   -0.257411   -0.437354
  O     -2.184655   -0.084283   -0.775426
  C     -1.313671    0.078491    0.229968
  O     -1.626991    0.108776    1.390804
  C      0.099810    0.184827   -0.298073
  C      0.755297   -1.198336   -0.172923
  C      2.203024   -1.146371   -0.649613
  C      2.992326   -0.116372    0.151882
  C      2.346117    1.259634    0.027056
  C      0.896852    1.217755    0.499542
  H     -4.141674    0.260874   -1.193165
  H     -3.748745    0.156713    0.553790
  H     -3.798009   -1.321553   -0.440752
  H      0.053983    0.467149   -1.353621
  H      0.723380   -1.508362    0.873866
  H      0.191975   -1.925960   -0.761312
  H      2.657990   -2.133009   -0.541989
  H      2.227117   -0.879367   -1.708672
  H      3.011365   -0.413112    1.202661
  H      4.023472   -0.077757   -0.205135
  H      2.903071    1.988347    0.618950
  H      2.378356    1.581498   -1.016691
  H      0.854956    0.948720    1.556459
  H      0.437802    2.202262    0.387289

 Total Charge           Charge          ....    0
 Multiplicity           Mult            ....    1
 Number of Electrons    NEL             ....   78
 Basis Dimension        Dim             ....  270

ORBITAL ENERGIES
----------------

  NO   OCC          E(Eh)            E(eV)
   0   2.0000     -18.996779      -516.9286
   1   2.0000     -18.930696      -515.1304
   2   2.0000     -10.149158      -276.1726
   3   2.0000     -10.081846      -274.3410
   4   2.0000     -10.044417      -273.3225
   5   2.0000     -10.032919      -273.0096
   6   2.0000     -10.027684      -272.8672
   7   2.0000     -10.026182      -272.8263
   8   2.0000     -10.025490      -272.8075
   9   2.0000     -10.024592      -272.7830
  10   2.0000      -1.070892       -29.1405
  11   2.0000      -0.981415       -26.7057
  12   2.0000      -0.809412       -22.0252
  13   2.0000      -0.736167       -20.0321
  14   2.0000      -0.712918       -19.3995
  15   2.0000      -0.688577       -18.7371
  16   2.0000      -0.594102       -16.1663
  17   2.0000      -0.579977       -15.7820
  18   2.0000      -0.536854       -14.6085
  19   2.0000      -0.517561       -14.0835
  20   2.0000      -0.477309       -12.9882
  21   2.0000      -0.450620       -12.2620
  22   2.0000      -0.444775       -12.1030
  23   2.0000      -0.434453       -11.8221
  24   2.0000      -0.411884       -11.2079
  25   2.0000      -0.409152       -11.1336
  26   2.0000      -0.398685       -10.8488
  27   2.0000      -0.379223       -10.3192
  28   2.0000      -0.357738        -9.7345
  29   2.0000      -0.351458        -9.5637
  30   2.0000      -0.334785        -9.1100
  31   2.0000      -0.321138        -8.7386
  32   2.0000      -0.318821        -8.6756
  33   2.0000      -0.315517        -8.5857
  34   2.0000      -0.294541        -8.0149
  35   2.0000      -0.281385        -7.6569
  36   2.0000      -0.272267        -7.4088
  37   2.0000      -0.270364        -7.3570
  38   2.0000      -0.236332        -6.4309
  39   0.0000      -0.012745        -0.3468
  40   0.0000       0.066485         1.8092
  41   0.0000       0.092529         2.5179
  42   0.0000       0.100047         2.7224
  43   0.0000       0.108233         2.9452

MULLIKEN ATOMIC CHARGES
-----------------------
   0 C :   -0.308169
   1 O :   -0.194459
   2 C :    0.377621
   3 O :   -0.433257
   4 C :   -0.097444
   5 C :   -0.335933
   6 C :   -0.277663
   7 C :   -0.294379
   8 C :   -0.269195
   9 C :   -0.349475
  10 H :    0.146727
  11 H :    0.181709
  12 H :    0.148592
  13 H :    0.182080
  14 H :    0.171285
  15 H :    0.147124
  16 H :    0.148050
  17 H :    0.146645
  18 H :    0.145722
  19 H :    0.148461
  20 H :    0.147971
  21 H :    0.144170
  22 H :    0.177749
  23 H :    0.146068
Sum of atomic charges:   -0.0000000

LOEWDIN ATOMIC CHARGES
----------------------
   0 C :   -0.049615
   1 O :   -0.604501
   2 C :    0.363536
   3 O :   -0.429086
   4 C :   -0.155622
   5 C :   -0.267647
   6 C :   -0.299352
   7 C :   -0.303614
   8 C :   -0.300470
   9 C :   -0.273786
  10 H :    0.173538
  11 H :    0.190608
  12 H :    0.170809
  13 H :    0.182350
  14 H :    0.167839
  15 H :    0.163063
  16 H :    0.157116
  17 H :    0.155780
  18 H :    0.156076
  19 H :    0.155344
  20 H :    0.156932
  21 H :    0.155009
  22 H :    0.173059
  23 H :    0.162632

  Mayer bond orders larger than 0.100000
B(  0-C ,  1-O ) :   0.8468 B(  0-C , 10-H ) :   0.9692 B(  0-C , 11-H ) :   0.9700
B(  0-C , 12-H ) :   0.9610 B(  1-O ,  2-C ) :   1.0370 B(  2-C ,  3-O ) :   1.8531
B(  2-C ,  4-C ) :   0.9553 B(  4-C ,  5-C ) :   0.9290 B(  4-C ,  9-C ) :   0.9000
B(  4-C , 13-H ) :   0.9554 B(  5-C ,  6-C ) :   0.8941 B(  5-C , 14-H ) :   0.9950
B(  5-C , 15-H ) :   0.9302 B(  6-C ,  7-C ) :   0.9215 B(  6-C , 16-H ) :   0.9435
B(  6-C , 17-H ) :   0.9954 B(  7-C ,  8-C ) :   0.9161 B(  7-C , 18-H ) :   0.9935
B(  7-C , 19-H ) :   0.9509 B(  8-C ,  9-C ) :   0.8896 B(  8-C , 20-H ) :   0.9449
B(  8-C , 21-H ) :   0.9907 B(  9-C , 22-H ) :   0.9957 B(  9-C , 23-H ) :   0.9435

Dispersion correction           -0.007530664
FINAL SINGLE POINT ENERGY      -463.636120101126

DIPOLE MOMENT
-------------

Method             : SCF
Type of density    : Electron Density
Multiplicity       :   1
Irrep              :   0
Energy             :  -463.6417514948515191 Eh
Relativity type    :
Basis              : AO
                                X                 Y                 Z
Electronic contribution:     -7.168562227       0.513547351       1.220699961
Nuclear contribution   :      7.237773631      -0.612782207      -1.893781714
                        -----------------------------------------
Total Dipole Moment    :      0.069211404      -0.099234856      -0.673081752
                        -----------------------------------------
Magnitude (a.u.)       :      0.683869008
Magnitude (Debye)      :      1.738256877

Rotational constants in cm-1:             0.102660             0.024408             0.022392
Rotational constants in MHz :          3077.671804           731.740708           671.292854

                             ****ORCA TERMINATED NORMALLY****
TOTAL RUN TIME: 0 days 0 hours 0 minutes 23 seconds 913 msec
