                         Program Version 6.0.1  -  RELEASE   -
|  1> ! pbe def2-sv(p) def2/J RI DEFGRID1 loosescf d4 GCP(DFT/SV(P)) printgap
|  2> %output
|  3>     printlevel normal
|  4> end
|  5> * xyz 0 1
|  6> C -2.4715018178 -0.5015995621 -0.2874038483
|  7> C -1.0501999183 -0.2113417828 0.1814310518
|  8> H -1.0037221802 -0.4184572563 1.2616166291
|  9> C -0.6359245031 1.2600459567 -0.0646181617
| 10> H -1.2218050741 1.6805742594 -0.8895414022
| 11> C 0.8556458491 1.3081188778 -0.4745645183
| 12> H 1.2308403935 2.3183406536 -0.2801452153
| 13> C 1.6527349071 0.3027508828 0.3788233987
| 14> H 2.7002948415 0.3092351607 0.0511437094
| 15> C 1.0997960008 -1.1222521748 0.1241801135
| 16> H 1.0023304229 -1.6447103802 1.1034960062
| 17> O -0.1643053234 -1.0897809582 -0.4924636996
| 18> O 1.9720740244 -1.7942743765 -0.7140575079
| 19> O 1.5309310214 0.6842934821 1.7305422406
| 20> O 1.0410400939 1.0741373853 -1.8389403704
| 21> O -0.9005814324 2.0612263939 1.0510124305
| 22> O -2.9101172067 -1.6928733885 0.321497213
| 23> H -2.4686980166 -0.5933860495 -1.3812114074
| 24> H -3.1058976304 0.3451363953 0.0068729122
| 25> H 1.5184142094 -2.5721184973 -1.0619456711
| 26> H 2.1394519717 0.162825168 2.2652565427
| 27> H 0.7705521712 0.1645302983 -2.0274182202
| 28> H -0.2566838365 1.8329893363 1.7366542676
| 29> H -3.7903235071 -1.9065885038 -0.0049618014
| 30> *
| 31>
| 32>                          ****END OF INPUT****

CARTESIAN COORDINATES (ANGSTROEM)
---------------------------------
  C     -2.471502   -0.501600   -0.287404
  C     -1.050200   -0.211342    0.181431
  H     -1.003722   -0.418457    1.261617
  C     -0.635925    1.260046   -0.064618
  H     -1.221805    1.680574   -0.889541
  C      0.855646    1.308119   -0.474565
  H      1.230840    2.318341   -0.280145
  C      1.652735    0.302751    0.378823
  H      2.700295    0.309235    0.051144
  C      1.099796   -1.122252    0.124180
  H      1.002330   -1.644710    1.103496
  O     -0.164305   -1.089781   -0.492464
  O      1.972074   -1.794274   -0.714058
  O      1.530931    0.684293    1.730542
  O      1.041040    1.074137   -1.838940
  O     -0.900581    2.061226    1.051012
  O     -2.910117   -1.692873    0.321497
  H     -2.468698   -0.593386   -1.381211
  H     -3.105898    0.345136    0.006873
  H      1.518414   -2.572118   -1.061946
  H      2.139452    0.162825    2.265257
  H      0.770552    0.164530   -2.027418
  H     -0.256684    1.832989    1.736654
  H     -3.790324   -1.906589   -0.004962

 Total Charge           Charge          ....    0
 Multiplicity           Mult            ....    1
 Number of Electrons    NEL             ....   96
 Basis Dimension        Dim             ....  192

ORBITAL ENERGIES
----------------

  NO   OCC          E(Eh)            E(eV)
   0   2.0000     -18.779957      -511.0286
   1   2.0000     -18.778811      -510.9974
   2   2.0000     -18.772071      -510.8140
   3   2.0000     -18.748565      -510.1744
   4   2.0000     -18.741879      -509.9925
   5   2.0000     -18.737987      -509.8866
   6   2.0000      -9.994972      -271.9770
   7   2.0000      -9.947610      -270.6882
   8   2.0000      -9.942469      -270.5483
   9   2.0000      -9.937998      -270.4267
  10   2.0000      -9.936012      -270.3726
  11   2.0000      -9.933523      -270.3049
  12   2.0000      -0.996957       -27.1286
  13   2.0000      -0.952981       -25.9319
  14   2.0000      -0.935721       -25.4623
  15   2.0000      -0.925971       -25.1970
  16   2.0000      -0.917909       -24.9776
  17   2.0000      -0.916183       -24.9306
  18   2.0000      -0.698158       -18.9978
  19   2.0000      -0.691013       -18.8034
  20   2.0000      -0.621852       -16.9215
  21   2.0000      -0.586422       -15.9574
  22   2.0000      -0.561034       -15.2665
  23   2.0000      -0.525720       -14.3056
  24   2.0000      -0.514547       -14.0015
  25   2.0000      -0.487414       -13.2632
  26   2.0000      -0.476785       -12.9740
  27   2.0000      -0.471684       -12.8352
  28   2.0000      -0.463699       -12.6179
  29   2.0000      -0.424541       -11.5523
  30   2.0000      -0.414276       -11.2730
  31   2.0000      -0.395422       -10.7600
  32   2.0000      -0.381673       -10.3859
  33   2.0000      -0.375046       -10.2055
  34   2.0000      -0.361170        -9.8279
  35   2.0000      -0.353428        -9.6173
  36   2.0000      -0.334886        -9.1127
  37   2.0000      -0.320302        -8.7159
  38   2.0000      -0.314491        -8.5577
  39   2.0000      -0.291108        -7.9214
  40   2.0000      -0.282667        -7.6918
  41   2.0000      -0.274992        -7.4829
  42   2.0000      -0.256472        -6.9790
  43   2.0000      -0.248348        -6.7579
  44   2.0000      -0.244313        -6.6481
  45   2.0000      -0.221270        -6.0211
  46   2.0000      -0.212563        -5.7841
  47   2.0000      -0.194193        -5.2843
  48   0.0000       0.007319         0.1992
  49   0.0000       0.025654         0.6981
  50   0.0000       0.030651         0.8341
  51   0.0000       0.054188         1.4745
  52   0.0000       0.056391         1.5345

MULLIKEN ATOMIC CHARGES
-----------------------
   0 C :    0.046979
   1 C :    0.029660
   2 H :    0.059698
   3 C :    0.064268
   4 H :    0.068017
   5 C :    0.028554
   6 H :    0.081945
   7 C :    0.020765
   8 H :    0.090239
   9 C :    0.174567
  10 H :    0.045206
  11 O :   -0.316028
  12 O :   -0.380967
  13 O :   -0.424558
  14 O :   -0.411749
  15 O :   -0.426559
  16 O :   -0.430582
  17 H :    0.070840
  18 H :    0.090640
  19 H :    0.307430
  20 H :    0.313419
  21 H :    0.294711
  22 H :    0.304462
  23 H :    0.299043
Sum of atomic charges:    0.0000000

LOEWDIN ATOMIC CHARGES
----------------------
   0 C :   -0.125002
   1 C :   -0.066732
   2 H :    0.109994
   3 C :   -0.075335
   4 H :    0.115774
   5 C :   -0.071376
   6 H :    0.121099
   7 C :   -0.090285
   8 H :    0.117341
   9 C :   -0.006392
  10 H :    0.079566
  11 O :   -0.155056
  12 O :   -0.295933
  13 O :   -0.313865
  14 O :   -0.308316
  15 O :   -0.315288
  16 O :   -0.343785
  17 H :    0.101415
  18 H :    0.107240
  19 H :    0.290584
  20 H :    0.293737
  21 H :    0.269438
  22 H :    0.274732
  23 H :    0.286445

  Mayer bond orders larger than 0.100000
B(  0-C ,  1-C ) :   1.0688 B(  0-C , 16-O ) :   1.1045 B(  0-C , 17-H ) :   0.8996
B(  0-C , 18-H ) :   0.9176 B(  1-C ,  2-H ) :   0.8625 B(  1-C ,  3-C ) :   0.9607
B(  1-C , 11-O ) :   0.9954 B(  3-C ,  4-H ) :   0.8898 B(  3-C ,  5-C ) :   0.9780
B(  3-C , 15-O ) :   1.0426 B(  5-C ,  6-H ) :   0.8906 B(  5-C ,  7-C ) :   1.0102
B(  5-C , 14-O ) :   1.0645 B(  7-C ,  8-H ) :   0.8926 B(  7-C ,  9-C ) :   0.9280
B(  7-C , 13-O ) :   1.0299 B(  9-C , 10-H ) :   0.8985 B(  9-C , 11-O ) :   1.0196
B(  9-C , 12-O ) :   1.1526 B( 12-O , 19-H ) :   0.8391 B( 13-O , 20-H ) :   0.8411
B( 14-O , 21-H ) :   0.8314 B( 15-O , 22-H ) :   0.8257 B( 16-O , 23-H ) :   0.8524

Dispersion correction           -0.024772246
FINAL SINGLE POINT ENERGY      -685.690883111010

DIPOLE MOMENT
-------------

Method             : SCF
Type of density    : Electron Density
Multiplicity       :   1
Irrep              :   0
Energy             :  -685.8227746720416462 Eh
Relativity type    :
Basis              : AO
                                X                 Y                 Z
Electronic contribution:      2.201706920      -0.769726480      -0.395638916
Nuclear contribution   :     -2.323153698      -0.312961698       0.732453568
                        -----------------------------------------
Total Dipole Moment    :     -0.121446778      -1.082688178       0.336814652
                        -----------------------------------------
Magnitude (a.u.)       :      1.140353945
Magnitude (Debye)      :      2.898549376

Rotational constants in cm-1:             0.038215             0.027107             0.021826
Rotational constants in MHz :          1145.660612           812.659335           654.327334

                             ****ORCA TERMINATED NORMALLY****
TOTAL RUN TIME: 0 days 0 hours 0 minutes 9 seconds 164 msec
