                         Program Version 6.0.1  -  RELEASE   -
|  1> ! pbe def2-sv(p) def2/J RI DEFGRID1 loosescf d4 GCP(DFT/SV(P)) printgap
|  2> %output
|  3>     printlevel normal
|  4> end
|  5> * xyz 0 1
|  6> C -1.715506747 -1.4051436908 -0.4691137246
|  7> C -1.1067683829 -0.5117488784 0.6312663967
|  8> H -1.8176257074 -0.4540404256 1.4669907959
|  9> C -0.8680835458 0.9315455452 0.1127209545
| 10> H -1.1963473072 0.9894622019 -0.9328684374
| 11> C 0.6228426874 1.2648327286 0.2019501641
| 12> H 0.9160744714 1.3775782869 1.2544244172
| 13> C 1.4470364533 0.1159374567 -0.4032577508
| 14> H 1.1297256042 -0.0602248344 -1.4445440561
| 15> C 1.1963150905 -1.1685832726 0.4015699974
| 16> H 2.0260598527 -1.2963744037 1.1130482453
| 17> O 0.0515112057 -1.0848318164 1.2162516558
| 18> O 1.1329824176 -2.2361652301 -0.4905162896
| 19> O 2.8126792433 0.4239858621 -0.3604129147
| 20> O 0.9585639569 2.4851460813 -0.4096423246
| 21> O -1.6653637901 1.8724787341 0.7850630783
| 22> O -2.8306303094 -0.8111593414 -1.0762896028
| 23> H -1.9706975751 -2.3793509497 -0.0282303621
| 24> H -0.9881828935 -1.5662367417 -1.2668455787
| 25> H 1.0677794483 -3.0620188899 0.0034131851
| 26> H 2.8943645492 1.3759852419 -0.522263122
| 27> H 0.4946364483 2.556433426 -1.2526826664
| 28> H -1.3184302618 2.0067890202 1.6751496208
| 29> H -3.4806035732 -0.5837980048 -0.4012581893
| 30> *
| 31>
| 32>                          ****END OF INPUT****

CARTESIAN COORDINATES (ANGSTROEM)
---------------------------------
  C     -1.715507   -1.405144   -0.469114
  C     -1.106768   -0.511749    0.631266
  H     -1.817626   -0.454040    1.466991
  C     -0.868084    0.931546    0.112721
  H     -1.196347    0.989462   -0.932868
  C      0.622843    1.264833    0.201950
  H      0.916074    1.377578    1.254424
  C      1.447036    0.115937   -0.403258
  H      1.129726   -0.060225   -1.444544
  C      1.196315   -1.168583    0.401570
  H      2.026060   -1.296374    1.113048
  O      0.051511   -1.084832    1.216252
  O      1.132982   -2.236165   -0.490516
  O      2.812679    0.423986   -0.360413
  O      0.958564    2.485146   -0.409642
  O     -1.665364    1.872479    0.785063
  O     -2.830630   -0.811159   -1.076290
  H     -1.970698   -2.379351   -0.028230
  H     -0.988183   -1.566237   -1.266846
  H      1.067779   -3.062019    0.003413
  H      2.894365    1.375985   -0.522263
  H      0.494636    2.556433   -1.252683
  H     -1.318430    2.006789    1.675150
  H     -3.480604   -0.583798   -0.401258

 Total Charge           Charge          ....    0
 Multiplicity           Mult            ....    1
 Number of Electrons    NEL             ....   96
 Basis Dimension        Dim             ....  192

ORBITAL ENERGIES
----------------

  NO   OCC          E(Eh)            E(eV)
   0   2.0000     -18.774691      -510.8853
   1   2.0000     -18.768011      -510.7035
   2   2.0000     -18.764889      -510.6186
   3   2.0000     -18.755372      -510.3596
   4   2.0000     -18.754659      -510.3402
   5   2.0000     -18.746226      -510.1108
   6   2.0000      -9.987372      -271.7702
   7   2.0000      -9.949402      -270.7370
   8   2.0000      -9.947536      -270.6862
   9   2.0000      -9.946955      -270.6704
  10   2.0000      -9.941940      -270.5339
  11   2.0000      -9.931312      -270.2447
  12   2.0000      -0.985382       -26.8136
  13   2.0000      -0.955447       -25.9990
  14   2.0000      -0.936999       -25.4970
  15   2.0000      -0.929985       -25.3062
  16   2.0000      -0.918634       -24.9973
  17   2.0000      -0.916902       -24.9502
  18   2.0000      -0.705546       -19.1989
  19   2.0000      -0.693389       -18.8681
  20   2.0000      -0.624129       -16.9834
  21   2.0000      -0.590502       -16.0684
  22   2.0000      -0.577598       -15.7172
  23   2.0000      -0.527983       -14.3672
  24   2.0000      -0.505586       -13.7577
  25   2.0000      -0.496483       -13.5100
  26   2.0000      -0.479396       -13.0450
  27   2.0000      -0.460072       -12.5192
  28   2.0000      -0.444025       -12.0825
  29   2.0000      -0.438615       -11.9353
  30   2.0000      -0.414482       -11.2786
  31   2.0000      -0.402161       -10.9433
  32   2.0000      -0.387089       -10.5332
  33   2.0000      -0.373406       -10.1609
  34   2.0000      -0.363756        -9.8983
  35   2.0000      -0.357144        -9.7184
  36   2.0000      -0.338087        -9.1998
  37   2.0000      -0.320225        -8.7138
  38   2.0000      -0.304950        -8.2981
  39   2.0000      -0.292081        -7.9479
  40   2.0000      -0.289450        -7.8763
  41   2.0000      -0.268671        -7.3109
  42   2.0000      -0.260363        -7.0848
  43   2.0000      -0.244120        -6.6429
  44   2.0000      -0.238387        -6.4868
  45   2.0000      -0.236489        -6.4352
  46   2.0000      -0.215847        -5.8735
  47   2.0000      -0.202599        -5.5130
  48   0.0000       0.018578         0.5055
  49   0.0000       0.024840         0.6759
  50   0.0000       0.027393         0.7454
  51   0.0000       0.029270         0.7965
  52   0.0000       0.046549         1.2667

MULLIKEN ATOMIC CHARGES
-----------------------
   0 C :    0.010762
   1 C :    0.002084
   2 H :    0.058422
   3 C :    0.046265
   4 H :    0.068966
   5 C :    0.039096
   6 H :    0.056176
   7 C :    0.011951
   8 H :    0.057813
   9 C :    0.221939
  10 H :    0.072694
  11 O :   -0.309837
  12 O :   -0.383500
  13 O :   -0.409370
  14 O :   -0.410563
  15 O :   -0.410692
  16 O :   -0.421075
  17 H :    0.074681
  18 H :    0.116100
  19 H :    0.301502
  20 H :    0.301212
  21 H :    0.304265
  22 H :    0.300095
  23 H :    0.301015
Sum of atomic charges:    0.0000000

LOEWDIN ATOMIC CHARGES
----------------------
   0 C :   -0.147582
   1 C :   -0.079501
   2 H :    0.110389
   3 C :   -0.085382
   4 H :    0.116509
   5 C :   -0.087594
   6 H :    0.114436
   7 C :   -0.085752
   8 H :    0.102980
   9 C :    0.001803
  10 H :    0.106687
  11 O :   -0.146304
  12 O :   -0.298600
  13 O :   -0.317535
  14 O :   -0.306277
  15 O :   -0.313123
  16 O :   -0.325096
  17 H :    0.096628
  18 H :    0.118355
  19 H :    0.286000
  20 H :    0.279334
  21 H :    0.289339
  22 H :    0.284564
  23 H :    0.285723

  Mayer bond orders larger than 0.100000
B(  0-C ,  1-C ) :   1.0323 B(  0-C , 16-O ) :   1.0486 B(  0-C , 17-H ) :   0.9138
B(  0-C , 18-H ) :   0.9053 B(  1-C ,  2-H ) :   0.8929 B(  1-C ,  3-C ) :   0.9529
B(  1-C , 11-O ) :   1.0277 B(  3-C ,  4-H ) :   0.8651 B(  3-C ,  5-C ) :   1.0249
B(  3-C , 15-O ) :   1.0440 B(  5-C ,  6-H ) :   0.8523 B(  5-C ,  7-C ) :   1.0023
B(  5-C , 14-O ) :   1.0470 B(  7-C ,  8-H ) :   0.8736 B(  7-C ,  9-C ) :   0.9824
B(  7-C , 13-O ) :   1.1036 B(  9-C , 10-H ) :   0.8848 B(  9-C , 11-O ) :   1.0482
B(  9-C , 12-O ) :   1.1299 B( 12-O , 19-H ) :   0.8410 B( 13-O , 20-H ) :   0.8247
B( 14-O , 21-H ) :   0.8461 B( 15-O , 22-H ) :   0.8510 B( 16-O , 23-H ) :   0.8480

Dispersion correction           -0.024656928
FINAL SINGLE POINT ENERGY      -685.688605536693

DIPOLE MOMENT
-------------

Method             : SCF
Type of density    : Electron Density
Multiplicity       :   1
Irrep              :   0
Energy             :  -685.8194854538055552 Eh
Relativity type    :
Basis              : AO
                                X                 Y                 Z
Electronic contribution:      1.713834232       0.853204808       0.884365896
Nuclear contribution   :     -2.097736396      -1.018421796      -0.319882899
                        -----------------------------------------
Total Dipole Moment    :     -0.383902164      -0.165216989       0.564482998
                        -----------------------------------------
Magnitude (a.u.)       :      0.702366414
Magnitude (Debye)      :      1.785273546

Rotational constants in cm-1:             0.037047             0.029380             0.019671
Rotational constants in MHz :          1110.648425           880.804214           589.719308

                             ****ORCA TERMINATED NORMALLY****
TOTAL RUN TIME: 0 days 0 hours 0 minutes 7 seconds 836 msec
