                         Program Version 6.0.1  -  RELEASE   -
|  1> ! pbe def2-sv(p) def2/J RI DEFGRID1 loosescf d4 GCP(DFT/SV(P)) printgap
|  2> %output
|  3>     printlevel normal
|  4> end
|  5> * xyz 0 1
|  6> C -2.4459971731 -0.838222782 0.0947144972
|  7> C -1.046750173 -0.4889851763 0.6031168119
|  8> H -0.9702539925 -0.748923409 1.6713710854
|  9> C -0.7504811146 1.023136955 0.4698450859
| 10> H -1.6226385787 1.5269011567 0.0318770264
| 11> C 0.4487424235 1.231191137 -0.4754788651
| 12> H 0.7590706521 2.2850779829 -0.4470693002
| 13> C 1.6422101963 0.3828118864 0.0260048939
| 14> H 2.4445865739 0.4233074359 -0.7185496011
| 15> C 1.2074656141 -1.1005795176 0.1987883362
| 16> H 1.3709344671 -1.3968135436 1.2486310313
| 17> O -0.1527540734 -1.2754551792 -0.1487524654
| 18> O 1.9425466175 -1.9767223253 -0.571947526
| 19> O 2.1820439409 0.9140053458 1.2055322985
| 20> O 0.1063816795 0.9528988943 -1.8030563686
| 21> O -0.4952658916 1.5199461238 1.7704329262
| 22> O -2.5669770906 -0.3505095775 -1.2231299386
| 23> H -3.1954867105 -0.3797271794 0.7535441647
| 24> H -2.5550194187 -1.9280020603 0.1205909098
| 25> H 1.7109112591 -1.8335298286 -1.4985856117
| 26> H 1.4649597058 1.0017771053 1.8529708162
| 27> H -0.5043197703 0.199970616 -1.8125132499
| 28> H -0.398114121 2.4786194894 1.7257473711
| 29> H -3.3730472676 -0.6972904888 -1.6180646334
| 30> *
| 31>
| 32>                          ****END OF INPUT****

CARTESIAN COORDINATES (ANGSTROEM)
---------------------------------
  C     -2.445997   -0.838223    0.094714
  C     -1.046750   -0.488985    0.603117
  H     -0.970254   -0.748923    1.671371
  C     -0.750481    1.023137    0.469845
  H     -1.622639    1.526901    0.031877
  C      0.448742    1.231191   -0.475479
  H      0.759071    2.285078   -0.447069
  C      1.642210    0.382812    0.026005
  H      2.444587    0.423307   -0.718550
  C      1.207466   -1.100580    0.198788
  H      1.370934   -1.396814    1.248631
  O     -0.152754   -1.275455   -0.148752
  O      1.942547   -1.976722   -0.571948
  O      2.182044    0.914005    1.205532
  O      0.106382    0.952899   -1.803056
  O     -0.495266    1.519946    1.770433
  O     -2.566977   -0.350510   -1.223130
  H     -3.195487   -0.379727    0.753544
  H     -2.555019   -1.928002    0.120591
  H      1.710911   -1.833530   -1.498586
  H      1.464960    1.001777    1.852971
  H     -0.504320    0.199971   -1.812513
  H     -0.398114    2.478619    1.725747
  H     -3.373047   -0.697290   -1.618065

 Total Charge           Charge          ....    0
 Multiplicity           Mult            ....    1
 Number of Electrons    NEL             ....   96
 Basis Dimension        Dim             ....  192

ORBITAL ENERGIES
----------------

  NO   OCC          E(Eh)            E(eV)
   0   2.0000     -18.780728      -511.0496
   1   2.0000     -18.775665      -510.9118
   2   2.0000     -18.773707      -510.8585
   3   2.0000     -18.751841      -510.2635
   4   2.0000     -18.740056      -509.9429
   5   2.0000     -18.734601      -509.7944
   6   2.0000      -9.979920      -271.5674
   7   2.0000      -9.958027      -270.9717
   8   2.0000      -9.952079      -270.8098
   9   2.0000      -9.951613      -270.7972
  10   2.0000      -9.937246      -270.4062
  11   2.0000      -9.926266      -270.1074
  12   2.0000      -0.987681       -26.8762
  13   2.0000      -0.955523       -26.0011
  14   2.0000      -0.949843       -25.8465
  15   2.0000      -0.922491       -25.1023
  16   2.0000      -0.916427       -24.9372
  17   2.0000      -0.909866       -24.7587
  18   2.0000      -0.711271       -19.3547
  19   2.0000      -0.678296       -18.4574
  20   2.0000      -0.622416       -16.9368
  21   2.0000      -0.593243       -16.1430
  22   2.0000      -0.565380       -15.3848
  23   2.0000      -0.528302       -14.3758
  24   2.0000      -0.513334       -13.9685
  25   2.0000      -0.491699       -13.3798
  26   2.0000      -0.477286       -12.9876
  27   2.0000      -0.473984       -12.8978
  28   2.0000      -0.447862       -12.1870
  29   2.0000      -0.441920       -12.0253
  30   2.0000      -0.413692       -11.2571
  31   2.0000      -0.400684       -10.9032
  32   2.0000      -0.381855       -10.3908
  33   2.0000      -0.376601       -10.2478
  34   2.0000      -0.356972        -9.7137
  35   2.0000      -0.349993        -9.5238
  36   2.0000      -0.335751        -9.1363
  37   2.0000      -0.324633        -8.8337
  38   2.0000      -0.309938        -8.4338
  39   2.0000      -0.301933        -8.2160
  40   2.0000      -0.288899        -7.8613
  41   2.0000      -0.272699        -7.4205
  42   2.0000      -0.252088        -6.8597
  43   2.0000      -0.246983        -6.7207
  44   2.0000      -0.243097        -6.6150
  45   2.0000      -0.234223        -6.3735
  46   2.0000      -0.215731        -5.8703
  47   2.0000      -0.184907        -5.0316
  48   0.0000       0.005833         0.1587
  49   0.0000       0.009828         0.2674
  50   0.0000       0.041529         1.1301
  51   0.0000       0.049326         1.3422
  52   0.0000       0.063691         1.7331

MULLIKEN ATOMIC CHARGES
-----------------------
   0 C :    0.046756
   1 C :    0.025666
   2 H :    0.077163
   3 C :   -0.019369
   4 H :    0.091036
   5 C :    0.026783
   6 H :    0.062673
   7 C :    0.055731
   8 H :    0.070561
   9 C :    0.206006
  10 H :    0.052126
  11 O :   -0.302863
  12 O :   -0.380683
  13 O :   -0.431141
  14 O :   -0.425075
  15 O :   -0.415908
  16 O :   -0.434955
  17 H :    0.087574
  18 H :    0.092080
  19 H :    0.297707
  20 H :    0.287836
  21 H :    0.306590
  22 H :    0.311078
  23 H :    0.312630
Sum of atomic charges:    0.0000000

LOEWDIN ATOMIC CHARGES
----------------------
   0 C :   -0.121951
   1 C :   -0.064343
   2 H :    0.114971
   3 C :   -0.083265
   4 H :    0.111896
   5 C :   -0.083913
   6 H :    0.107880
   7 C :   -0.094336
   8 H :    0.118497
   9 C :    0.002049
  10 H :    0.097609
  11 O :   -0.152781
  12 O :   -0.288311
  13 O :   -0.321935
  14 O :   -0.318155
  15 O :   -0.308723
  16 O :   -0.330985
  17 H :    0.104945
  18 H :    0.110151
  19 H :    0.284141
  20 H :    0.262967
  21 H :    0.267428
  22 H :    0.291161
  23 H :    0.295003

  Mayer bond orders larger than 0.100000
B(  0-C ,  1-C ) :   1.0679 B(  0-C , 16-O ) :   1.0648 B(  0-C , 17-H ) :   0.9168
B(  0-C , 18-H ) :   0.9128 B(  1-C ,  2-H ) :   0.8734 B(  1-C ,  3-C ) :   0.9782
B(  1-C , 11-O ) :   1.0342 B(  3-C ,  4-H ) :   0.8963 B(  3-C ,  5-C ) :   1.0083
B(  3-C , 15-O ) :   1.0176 B(  5-C ,  6-H ) :   0.8946 B(  5-C ,  7-C ) :   0.9448
B(  5-C , 14-O ) :   1.0740 B(  7-C ,  8-H ) :   0.8946 B(  7-C ,  9-C ) :   0.9503
B(  7-C , 13-O ) :   1.0515 B(  9-C , 10-H ) :   0.8862 B(  9-C , 11-O ) :   0.9976
B(  9-C , 12-O ) :   1.1395 B( 12-O , 19-H ) :   0.8451 B( 13-O , 20-H ) :   0.8123
B( 14-O , 21-H ) :   0.8066 B( 15-O , 20-H ) :   0.1116 B( 15-O , 22-H ) :   0.8385
B( 16-O , 23-H ) :   0.8436

Dispersion correction           -0.025440982
FINAL SINGLE POINT ENERGY      -685.691243986737

DIPOLE MOMENT
-------------

Method             : SCF
Type of density    : Electron Density
Multiplicity       :   1
Irrep              :   0
Energy             :  -685.8244639009840284 Eh
Relativity type    :
Basis              : AO
                                X                 Y                 Z
Electronic contribution:      2.676111290      -0.714134800      -1.112148994
Nuclear contribution   :     -4.552352385       0.870583437       1.217535150
                        -----------------------------------------
Total Dipole Moment    :     -1.876241095       0.156448637       0.105386156
                        -----------------------------------------
Magnitude (a.u.)       :      1.885699622
Magnitude (Debye)      :      4.793067527

Rotational constants in cm-1:             0.040512             0.028615             0.023501
Rotational constants in MHz :          1214.507644           857.860709           704.549090

                             ****ORCA TERMINATED NORMALLY****
TOTAL RUN TIME: 0 days 0 hours 0 minutes 13 seconds 370 msec
