                         Program Version 6.0.1  -  RELEASE   -
|  1> ! r2scan-3c def2/J RI DEFGRID2 scfconv6 printgap
|  2> %output
|  3>     printlevel normal
|  4> end
|  5> * xyz 0 1
|  6> C -2.1167267416 1.0822084706 -0.6096637374
|  7> C -1.6407197065 -0.2593434522 -0.0507523429
|  8> C -1.7425423628 -0.261433713 1.4718538121
|  9> C -0.2797608984 -0.7192512296 -0.6123086566
| 10> C 1.0684811279 -0.1160241315 -0.1573239886
| 11> C 2.1140458106 -0.5734509158 -1.1865231768
| 12> C 1.0723077696 1.4120887952 -0.1272377139
| 13> C 1.5027255212 -0.6514765823 1.2106113194
| 14> H -2.0010106243 1.1117534506 -1.6908579791
| 15> H -3.1716365421 1.2208834922 -0.3789396729
| 16> H -1.5705621863 1.9157021722 -0.1809024939
| 17> H -2.350457067 -1.0140443119 -0.4174538586
| 18> H -1.3889886799 -1.2041452748 1.881835496
| 19> H -1.1683657582 0.5520297315 1.906970641
| 20> H -2.7815388462 -0.1295781952 1.7695628194
| 21> H -0.2097538928 -1.7962124175 -0.4329229235
| 22> H -0.3434250149 -0.5866222632 -1.6961942217
| 23> H 3.1079454493 -0.2406869236 -0.8949498664
| 24> H 1.8941679641 -0.1628138313 -2.1698052464
| 25> H 2.1278709455 -1.6585747659 -1.2641180103
| 26> H 0.4517966534 1.7928737294 0.6786175282
| 27> H 0.7157990133 1.8173576131 -1.070756736
| 28> H 2.0864489099 1.7732824616 0.0361100762
| 29> H 1.4830103258 -1.7392305925 1.2206258576
| 30> H 0.8629932333 -0.2889579791 2.0075681447
| 31> H 2.5201349726 -0.3300300725 1.4266438869
| 32> *
| 33>
| 34>                          ****END OF INPUT****

CARTESIAN COORDINATES (ANGSTROEM)
---------------------------------
  C     -2.116727    1.082208   -0.609664
  C     -1.640720   -0.259343   -0.050752
  C     -1.742542   -0.261434    1.471854
  C     -0.279761   -0.719251   -0.612309
  C      1.068481   -0.116024   -0.157324
  C      2.114046   -0.573451   -1.186523
  C      1.072308    1.412089   -0.127238
  C      1.502726   -0.651477    1.210611
  H     -2.001011    1.111753   -1.690858
  H     -3.171637    1.220883   -0.378940
  H     -1.570562    1.915702   -0.180902
  H     -2.350457   -1.014044   -0.417454
  H     -1.388989   -1.204145    1.881835
  H     -1.168366    0.552030    1.906971
  H     -2.781539   -0.129578    1.769563
  H     -0.209754   -1.796212   -0.432923
  H     -0.343425   -0.586622   -1.696194
  H      3.107945   -0.240687   -0.894950
  H      1.894168   -0.162814   -2.169805
  H      2.127871   -1.658575   -1.264118
  H      0.451797    1.792874    0.678618
  H      0.715799    1.817358   -1.070757
  H      2.086449    1.773282    0.036110
  H      1.483010   -1.739231    1.220626
  H      0.862993   -0.288958    2.007568
  H      2.520135   -0.330030    1.426644

 Total Charge           Charge          ....    0
 Multiplicity           Mult            ....    1
 Number of Electrons    NEL             ....   66
 Basis Dimension        Dim             ....  242

ORBITAL ENERGIES
----------------

  NO   OCC          E(Eh)            E(eV)
   0   2.0000     -10.039694      -273.1940
   1   2.0000     -10.031788      -272.9788
   2   2.0000     -10.018249      -272.6104
   3   2.0000     -10.013021      -272.4681
   4   2.0000     -10.011670      -272.4314
   5   2.0000     -10.011195      -272.4185
   6   2.0000     -10.010591      -272.4020
   7   2.0000     -10.009734      -272.3787
   8   2.0000      -0.794058       -21.6074
   9   2.0000      -0.750781       -20.4298
  10   2.0000      -0.653740       -17.7892
  11   2.0000      -0.653581       -17.7848
  12   2.0000      -0.641742       -17.4627
  13   2.0000      -0.639822       -17.4104
  14   2.0000      -0.536220       -14.5913
  15   2.0000      -0.486918       -13.2497
  16   2.0000      -0.435592       -11.8531
  17   2.0000      -0.423121       -11.5137
  18   2.0000      -0.413498       -11.2518
  19   2.0000      -0.397498       -10.8165
  20   2.0000      -0.388609       -10.5746
  21   2.0000      -0.381326       -10.3764
  22   2.0000      -0.360298        -9.8042
  23   2.0000      -0.349755        -9.5173
  24   2.0000      -0.339357        -9.2344
  25   2.0000      -0.328477        -8.9383
  26   2.0000      -0.327095        -8.9007
  27   2.0000      -0.320689        -8.7264
  28   2.0000      -0.303029        -8.2458
  29   2.0000      -0.295307        -8.0357
  30   2.0000      -0.281813        -7.6685
  31   2.0000      -0.275320        -7.4918
  32   2.0000      -0.260950        -7.1008
  33   0.0000       0.067794         1.8448
  34   0.0000       0.104336         2.8391
  35   0.0000       0.111001         3.0205
  36   0.0000       0.120901         3.2899
  37   0.0000       0.125011         3.4017

MULLIKEN ATOMIC CHARGES
-----------------------
   0 C :   -0.498840
   1 C :   -0.008883
   2 C :   -0.522873
   3 C :   -0.328436
   4 C :    0.168636
   5 C :   -0.497002
   6 C :   -0.533555
   7 C :   -0.513344
   8 H :    0.148638
   9 H :    0.144589
  10 H :    0.153460
  11 H :    0.144705
  12 H :    0.154360
  13 H :    0.150009
  14 H :    0.145121
  15 H :    0.153594
  16 H :    0.149727
  17 H :    0.152876
  18 H :    0.153838
  19 H :    0.152277
  20 H :    0.154315
  21 H :    0.162062
  22 H :    0.149257
  23 H :    0.158149
  24 H :    0.158359
  25 H :    0.148960
Sum of atomic charges:    0.0000000

LOEWDIN ATOMIC CHARGES
----------------------
   0 C :   -0.420064
   1 C :   -0.240232
   2 C :   -0.417757
   3 C :   -0.291443
   4 C :   -0.206022
   5 C :   -0.411181
   6 C :   -0.406396
   7 C :   -0.408815
   8 H :    0.152671
   9 H :    0.151948
  10 H :    0.153811
  11 H :    0.156923
  12 H :    0.154773
  13 H :    0.149161
  14 H :    0.152880
  15 H :    0.163212
  16 H :    0.163890
  17 H :    0.154035
  18 H :    0.155011
  19 H :    0.157109
  20 H :    0.152659
  21 H :    0.158543
  22 H :    0.156567
  23 H :    0.156167
  24 H :    0.157264
  25 H :    0.155284

  Mayer bond orders larger than 0.100000
B(  0-C ,  1-C ) :   0.9188 B(  0-C ,  8-H ) :   0.9819 B(  0-C ,  9-H ) :   0.9719
B(  0-C , 10-H ) :   0.9717 B(  1-C ,  2-C ) :   0.8749 B(  1-C ,  3-C ) :   0.9150
B(  1-C , 11-H ) :   0.9754 B(  2-C , 12-H ) :   0.9729 B(  2-C , 13-H ) :   0.9845
B(  2-C , 14-H ) :   0.9689 B(  3-C ,  4-C ) :   0.8681 B(  3-C , 15-H ) :   0.9696
B(  3-C , 16-H ) :   0.9798 B(  4-C ,  5-C ) :   0.9353 B(  4-C ,  6-C ) :   0.8944
B(  4-C ,  7-C ) :   0.9275 B(  5-C , 17-H ) :   0.9781 B(  5-C , 18-H ) :   0.9763
B(  5-C , 19-H ) :   0.9746 B(  6-C , 20-H ) :   0.9777 B(  6-C , 21-H ) :   0.9736
B(  6-C , 22-H ) :   0.9712 B(  7-C , 23-H ) :   0.9827 B(  7-C , 24-H ) :   0.9621
B(  7-C , 25-H ) :   0.9762

Dispersion correction           -0.008253098
FINAL SINGLE POINT ENERGY      -315.582357092251

DIPOLE MOMENT
-------------

Method             : SCF
Type of density    : Electron Density
Multiplicity       :   1
Irrep              :   0
Energy             :  -315.5871871746058446 Eh
Relativity type    :
Basis              : AO
                                X                 Y                 Z
Electronic contribution:     -0.292823680      -1.010221922      -0.704326590
Nuclear contribution   :      0.248077007       0.969107855       0.685827527
                        -----------------------------------------
Total Dipole Moment    :     -0.044746673      -0.041114067      -0.018499063
                        -----------------------------------------
Magnitude (a.u.)       :      0.063520443
Magnitude (Debye)      :      0.161456134

Rotational constants in cm-1:             0.094440             0.044915             0.040562
Rotational constants in MHz :          2831.232838          1346.511369          1216.022290

                             ****ORCA TERMINATED NORMALLY****
TOTAL RUN TIME: 0 days 0 hours 0 minutes 27 seconds 751 msec
