                         Program Version 6.0.1  -  RELEASE   -
|  1> ! pbe def2-sv(p) def2/J RI DEFGRID1 loosescf d4 GCP(DFT/SV(P)) printgap
|  2> %output
|  3>     printlevel normal
|  4> end
|  5> * xyz 0 1
|  6> C -2.5892529361 -0.6968860656 -0.6230129439
|  7> C -1.4664153216 -0.0177605343 0.1264805523
|  8> O -1.4917017477 0.1039844884 1.3246120199
|  9> C -0.3501209783 0.5265153961 -0.7538655577
| 10> C 0.5055612641 -0.6056460645 -1.3445497781
| 11> C 1.3275083077 -1.2975073368 -0.2625473191
| 12> C 2.2495849128 -0.290148181 0.4157805584
| 13> C 1.4266156738 0.8306606101 1.0405237468
| 14> C 0.5503846997 1.5163875939 -0.005347938
| 15> H -3.3140274662 -1.0949725986 0.0822933115
| 16> H -3.0802529331 0.0254817887 -1.2718860075
| 17> H -2.2079764172 -1.5030297466 -1.243851455
| 18> H -0.8371485393 1.0506192348 -1.5855156981
| 19> H -0.1238946556 -1.3307696798 -1.8634579229
| 20> H 1.1838105016 -0.1705880543 -2.0830649738
| 21> H 0.659670898 -1.7362409291 0.481930804
| 22> H 1.9137067491 -2.1044158601 -0.708324596
| 23> H 2.8444338415 -0.7867262349 1.1846754343
| 24> H 2.9380945205 0.1257752686 -0.3248511921
| 25> H 0.7905303111 0.420072113 1.8241777559
| 26> H 2.0882142355 1.5707030158 1.4958508659
| 27> H -0.071904635 2.2696256044 0.4818477457
| 28> H 1.1871304905 2.0235729249 -0.7351891639
| 29> *
| 30>
| 31>                          ****END OF INPUT****

CARTESIAN COORDINATES (ANGSTROEM)
---------------------------------
  C     -2.589253   -0.696886   -0.623013
  C     -1.466415   -0.017761    0.126481
  O     -1.491702    0.103984    1.324612
  C     -0.350121    0.526515   -0.753866
  C      0.505561   -0.605646   -1.344550
  C      1.327508   -1.297507   -0.262547
  C      2.249585   -0.290148    0.415781
  C      1.426616    0.830661    1.040524
  C      0.550385    1.516388   -0.005348
  H     -3.314027   -1.094973    0.082293
  H     -3.080253    0.025482   -1.271886
  H     -2.207976   -1.503030   -1.243851
  H     -0.837149    1.050619   -1.585516
  H     -0.123895   -1.330770   -1.863458
  H      1.183811   -0.170588   -2.083065
  H      0.659671   -1.736241    0.481931
  H      1.913707   -2.104416   -0.708325
  H      2.844434   -0.786726    1.184675
  H      2.938095    0.125775   -0.324851
  H      0.790530    0.420072    1.824178
  H      2.088214    1.570703    1.495851
  H     -0.071905    2.269626    0.481848
  H      1.187130    2.023573   -0.735189

 Total Charge           Charge          ....    0
 Multiplicity           Mult            ....    1
 Number of Electrons    NEL             ....   70
 Basis Dimension        Dim             ....  154

ORBITAL ENERGIES
----------------

  NO   OCC          E(Eh)            E(eV)
   0   2.0000     -18.744442      -510.0622
   1   2.0000      -9.973714      -271.3986
   2   2.0000      -9.900303      -269.4009
   3   2.0000      -9.894551      -269.2444
   4   2.0000      -9.887588      -269.0550
   5   2.0000      -9.883634      -268.9474
   6   2.0000      -9.881431      -268.8874
   7   2.0000      -9.878497      -268.8076
   8   2.0000      -9.871228      -268.6098
   9   2.0000      -0.945060       -25.7164
  10   2.0000      -0.759440       -20.6654
  11   2.0000      -0.691732       -18.8230
  12   2.0000      -0.666818       -18.1451
  13   2.0000      -0.653201       -17.7745
  14   2.0000      -0.558960       -15.2101
  15   2.0000      -0.541279       -14.7290
  16   2.0000      -0.508699       -13.8424
  17   2.0000      -0.451304       -12.2806
  18   2.0000      -0.439807       -11.9677
  19   2.0000      -0.417701       -11.3662
  20   2.0000      -0.412508       -11.2249
  21   2.0000      -0.392334       -10.6759
  22   2.0000      -0.380713       -10.3597
  23   2.0000      -0.374521       -10.1912
  24   2.0000      -0.358714        -9.7611
  25   2.0000      -0.343557        -9.3487
  26   2.0000      -0.333836        -9.0841
  27   2.0000      -0.329404        -8.9635
  28   2.0000      -0.317084        -8.6283
  29   2.0000      -0.316592        -8.6149
  30   2.0000      -0.300548        -8.1783
  31   2.0000      -0.280021        -7.6198
  32   2.0000      -0.260818        -7.0972
  33   2.0000      -0.258950        -7.0464
  34   2.0000      -0.195627        -5.3233
  35   0.0000      -0.051023        -1.3884
  36   0.0000       0.023678         0.6443
  37   0.0000       0.050855         1.3838
  38   0.0000       0.062496         1.7006
  39   0.0000       0.074508         2.0275

MULLIKEN ATOMIC CHARGES
-----------------------
   0 C :   -0.251234
   1 C :    0.009314
   2 O :   -0.154314
   3 C :   -0.172995
   4 C :   -0.143715
   5 C :   -0.156635
   6 C :   -0.154634
   7 C :   -0.161375
   8 C :   -0.098571
   9 H :    0.115456
  10 H :    0.121475
  11 H :    0.124736
  12 H :    0.079365
  13 H :    0.088573
  14 H :    0.082934
  15 H :    0.091754
  16 H :    0.085948
  17 H :    0.084911
  18 H :    0.068958
  19 H :    0.103200
  20 H :    0.079885
  21 H :    0.085636
  22 H :    0.071327
Sum of atomic charges:   -0.0000000

LOEWDIN ATOMIC CHARGES
----------------------
   0 C :   -0.363418
   1 C :    0.050814
   2 O :   -0.115593
   3 C :   -0.171458
   4 C :   -0.208530
   5 C :   -0.228504
   6 C :   -0.225186
   7 C :   -0.233752
   8 C :   -0.212206
   9 H :    0.132894
  10 H :    0.142140
  11 H :    0.137707
  12 H :    0.128096
  13 H :    0.112600
  14 H :    0.119212
  15 H :    0.118219
  16 H :    0.117161
  17 H :    0.116334
  18 H :    0.110133
  19 H :    0.123586
  20 H :    0.114942
  21 H :    0.120425
  22 H :    0.114382

  Mayer bond orders larger than 0.100000
B(  0-C ,  1-C ) :   1.0739 B(  0-C ,  9-H ) :   0.9346 B(  0-C , 10-H ) :   0.9245
B(  0-C , 11-H ) :   0.9245 B(  1-C ,  2-O ) :   2.1814 B(  1-C ,  3-C ) :   0.9108
B(  3-C ,  4-C ) :   1.0662 B(  3-C ,  8-C ) :   1.0857 B(  3-C , 12-H ) :   0.8760
B(  4-C ,  5-C ) :   1.1285 B(  4-C , 13-H ) :   0.9141 B(  4-C , 14-H ) :   0.9085
B(  5-C ,  6-C ) :   1.1305 B(  5-C , 15-H ) :   0.9098 B(  5-C , 16-H ) :   0.9178
B(  6-C ,  7-C ) :   1.1334 B(  6-C , 17-H ) :   0.9196 B(  6-C , 18-H ) :   0.9159
B(  7-C ,  8-C ) :   1.1306 B(  7-C , 19-H ) :   0.9050 B(  7-C , 20-H ) :   0.9163
B(  8-C , 21-H ) :   0.9135 B(  8-C , 22-H ) :   0.9124

Dispersion correction           -0.022834419
FINAL SINGLE POINT ENERGY      -387.608214586584

DIPOLE MOMENT
-------------

Method             : SCF
Type of density    : Electron Density
Multiplicity       :   1
Irrep              :   0
Energy             :  -387.6859103191043232 Eh
Relativity type    :
Basis              : AO
                                X                 Y                 Z
Electronic contribution:     -3.668098856       1.039453088       3.059668956
Nuclear contribution   :      3.702758593      -1.162621571      -3.981975205
                        -----------------------------------------
Total Dipole Moment    :      0.034659737      -0.123168483      -0.922306249
                        -----------------------------------------
Magnitude (a.u.)       :      0.931139403
Magnitude (Debye)      :      2.366768273

Rotational constants in cm-1:             0.086632             0.044139             0.038235
Rotational constants in MHz :          2597.151267          1323.247152          1146.261238

                             ****ORCA TERMINATED NORMALLY****
TOTAL RUN TIME: 0 days 0 hours 0 minutes 11 seconds 699 msec
