                         Program Version 6.0.1  -  RELEASE   -
|  1> ! pbe def2-sv(p) def2/J RI DEFGRID1 loosescf d4 GCP(DFT/SV(P)) printgap
|  2> %output
|  3>     printlevel normal
|  4> end
|  5> * xyz 0 1
|  6> C -3.0837173659 -0.015335787 -0.7091912313
|  7> O -2.3257228715 -0.1707431759 0.4680206462
|  8> C -0.9549062812 -0.0814934205 0.2654972329
|  9> C -0.2100690063 -1.2254306923 0.0088104371
| 10> C 1.157663157 -1.1433779002 -0.1552841689
| 11> C 1.8119344401 0.0860095754 -0.0701265496
| 12> C 1.0548218149 1.2305987056 0.181834895
| 13> C -0.312834982 1.1476251049 0.3459428584
| 14> N 3.188184929 0.1583876074 -0.1601956757
| 15> H -4.1286019484 -0.101593718 -0.4155102086
| 16> H -2.8456786438 -0.793715485 -1.4441943554
| 17> H -2.9135492092 0.9655050459 -1.1691919032
| 18> H -0.711388366 -2.1798461751 -0.0523084254
| 19> H 1.733652714 -2.0372432413 -0.3485393622
| 20> H 1.5506843298 2.1883782935 0.2518762798
| 21> H -0.8935028047 2.0356427407 0.5467391452
| 22> H 3.6470461853 -0.6136733533 -0.6155106215
| 23> H 3.5745608152 1.0625594689 -0.3773120881
| 24> *
| 25>
| 26>                          ****END OF INPUT****

CARTESIAN COORDINATES (ANGSTROEM)
---------------------------------
  C     -3.083717   -0.015336   -0.709191
  O     -2.325723   -0.170743    0.468021
  C     -0.954906   -0.081493    0.265497
  C     -0.210069   -1.225431    0.008810
  C      1.157663   -1.143378   -0.155284
  C      1.811934    0.086010   -0.070127
  C      1.054822    1.230599    0.181835
  C     -0.312835    1.147625    0.345943
  N      3.188185    0.158388   -0.160196
  H     -4.128602   -0.101594   -0.415510
  H     -2.845679   -0.793715   -1.444194
  H     -2.913549    0.965505   -1.169192
  H     -0.711388   -2.179846   -0.052308
  H      1.733653   -2.037243   -0.348539
  H      1.550684    2.188378    0.251876
  H     -0.893503    2.035643    0.546739
  H      3.647046   -0.613673   -0.615511
  H      3.574561    1.062559   -0.377312

 Total Charge           Charge          ....    0
 Multiplicity           Mult            ....    1
 Number of Electrons    NEL             ....   66
 Basis Dimension        Dim             ....  144

ORBITAL ENERGIES
----------------

  NO   OCC          E(Eh)            E(eV)
   0   2.0000     -18.751743      -510.2609
   1   2.0000     -13.995147      -380.8273
   2   2.0000      -9.927914      -270.1523
   3   2.0000      -9.923791      -270.0401
   4   2.0000      -9.922978      -270.0180
   5   2.0000      -9.883209      -268.9358
   6   2.0000      -9.883169      -268.9347
   7   2.0000      -9.882638      -268.9202
   8   2.0000      -9.882537      -268.9175
   9   2.0000      -0.936819       -25.4921
  10   2.0000      -0.835157       -22.7258
  11   2.0000      -0.751792       -20.4573
  12   2.0000      -0.666569       -18.1383
  13   2.0000      -0.654175       -17.8010
  14   2.0000      -0.600341       -16.3361
  15   2.0000      -0.553337       -15.0571
  16   2.0000      -0.523215       -14.2374
  17   2.0000      -0.475031       -12.9263
  18   2.0000      -0.468813       -12.7570
  19   2.0000      -0.447445       -12.1756
  20   2.0000      -0.402464       -10.9516
  21   2.0000      -0.398351       -10.8397
  22   2.0000      -0.386935       -10.5290
  23   2.0000      -0.374225       -10.1832
  24   2.0000      -0.365645        -9.9497
  25   2.0000      -0.353512        -9.6195
  26   2.0000      -0.334267        -9.0959
  27   2.0000      -0.301479        -8.2037
  28   2.0000      -0.292364        -7.9556
  29   2.0000      -0.254828        -6.9342
  30   2.0000      -0.223572        -6.0837
  31   2.0000      -0.207617        -5.6495
  32   2.0000      -0.166864        -4.5406
  33   0.0000      -0.027938        -0.7602
  34   0.0000      -0.005354        -0.1457
  35   0.0000       0.032358         0.8805
  36   0.0000       0.054465         1.4821
  37   0.0000       0.064825         1.7640

MULLIKEN ATOMIC CHARGES
-----------------------
   0 C :   -0.075696
   1 O :   -0.309724
   2 C :    0.219146
   3 C :   -0.122644
   4 C :   -0.133903
   5 C :    0.180524
   6 C :   -0.133909
   7 C :   -0.122974
   8 N :   -0.341773
   9 H :    0.112097
  10 H :    0.084943
  11 H :    0.084972
  12 H :    0.036845
  13 H :    0.021962
  14 H :    0.021690
  15 H :    0.037015
  16 H :    0.220713
  17 H :    0.220716
Sum of atomic charges:   -0.0000000

LOEWDIN ATOMIC CHARGES
----------------------
   0 C :   -0.199269
   1 O :   -0.137602
   2 C :    0.000113
   3 C :   -0.131002
   4 C :   -0.158578
   5 C :   -0.012769
   6 C :   -0.158456
   7 C :   -0.131143
   8 N :   -0.319177
   9 H :    0.113420
  10 H :    0.097180
  11 H :    0.097047
  12 H :    0.127370
  13 H :    0.118654
  14 H :    0.118594
  15 H :    0.127312
  16 H :    0.224160
  17 H :    0.224146

  Mayer bond orders larger than 0.100000
B(  0-C ,  1-O ) :   0.9999 B(  0-C ,  9-H ) :   0.9621 B(  0-C , 10-H ) :   0.9427
B(  0-C , 11-H ) :   0.9428 B(  1-O ,  2-C ) :   1.0209 B(  2-C ,  3-C ) :   1.3696
B(  2-C ,  7-C ) :   1.3688 B(  3-C ,  4-C ) :   1.3427 B(  3-C , 12-H ) :   0.9621
B(  4-C ,  5-C ) :   1.3203 B(  4-C , 13-H ) :   0.9612 B(  5-C ,  6-C ) :   1.3194
B(  5-C ,  8-N ) :   1.2268 B(  6-C ,  7-C ) :   1.3434 B(  6-C , 14-H ) :   0.9614
B(  7-C , 15-H ) :   0.9615 B(  8-N , 16-H ) :   0.8839 B(  8-N , 17-H ) :   0.8839

Dispersion correction           -0.017637707
FINAL SINGLE POINT ENERGY      -401.244167737831

DIPOLE MOMENT
-------------

Method             : SCF
Type of density    : Electron Density
Multiplicity       :   1
Irrep              :   0
Energy             :  -401.3038368952315409 Eh
Relativity type    :
Basis              : AO
                                X                 Y                 Z
Electronic contribution:      1.685704493      -0.329942615       2.534755354
Nuclear contribution   :     -0.942733306       0.491828972      -3.393825239
                        -----------------------------------------
Total Dipole Moment    :      0.742971187       0.161886357      -0.859069885
                        -----------------------------------------
Magnitude (a.u.)       :      1.147263895
Magnitude (Debye)      :      2.916113073

Rotational constants in cm-1:             0.157905             0.033152             0.028922
Rotational constants in MHz :          4733.861077           993.863735           867.065010

                             ****ORCA TERMINATED NORMALLY****
TOTAL RUN TIME: 0 days 0 hours 0 minutes 10 seconds 573 msec
