                         Program Version 6.0.1  -  RELEASE   -
|  1> ! r2scan-3c def2/J RI DEFGRID2 scfconv6 printgap
|  2> %output
|  3>     printlevel normal
|  4> end
|  5> * xyz 0 1
|  6> C -2.3697778043 0.066876412 -0.1222456654
|  7> C -0.921321656 0.4766103215 0.1165080454
|  8> C 0.0029166683 -0.7029507117 0.1518935188
|  9> C 1.320578103 -0.6326745047 0.0353719383
| 10> C 2.0840479375 0.641428327 -0.1516386551
| 11> H -2.4653667566 -0.4539160819 -1.0728148718
| 12> H -3.0168396908 0.9412967933 -0.143534025
| 13> H -2.7154369597 -0.5956512597 0.668726564
| 14> H -0.6024836656 1.1700245174 -0.6665562392
| 15> H -0.8481286169 1.0160577778 1.0672219244
| 16> H -0.4699527031 -1.6647896745 0.2963712125
| 17> H 1.90744009 -1.5393407499 0.0850518695
| 18> H 1.6858802109 1.2108921666 -0.991323696
| 19> H 3.1360481384 0.4422306274 -0.3354055841
| 20> H 2.0012024323 1.2691872342 0.7360777438
| 21> *
| 22>
| 23>                          ****END OF INPUT****

CARTESIAN COORDINATES (ANGSTROEM)
---------------------------------
  C     -2.369778    0.066876   -0.122246
  C     -0.921322    0.476610    0.116508
  C      0.002917   -0.702951    0.151894
  C      1.320578   -0.632675    0.035372
  C      2.084048    0.641428   -0.151639
  H     -2.465367   -0.453916   -1.072815
  H     -3.016840    0.941297   -0.143534
  H     -2.715437   -0.595651    0.668727
  H     -0.602484    1.170025   -0.666556
  H     -0.848129    1.016058    1.067222
  H     -0.469953   -1.664790    0.296371
  H      1.907440   -1.539341    0.085052
  H      1.685880    1.210892   -0.991324
  H      3.136048    0.442231   -0.335406
  H      2.001202    1.269187    0.736078

 Total Charge           Charge          ....    0
 Multiplicity           Mult            ....    1
 Number of Electrons    NEL             ....   40
 Basis Dimension        Dim             ....  145

ORBITAL ENERGIES
----------------

  NO   OCC          E(Eh)            E(eV)
   0   2.0000     -10.028425      -272.8873
   1   2.0000     -10.021852      -272.7085
   2   2.0000     -10.021607      -272.7018
   3   2.0000     -10.018730      -272.6235
   4   2.0000     -10.017835      -272.5992
   5   2.0000      -0.772986       -21.0340
   6   2.0000      -0.718202       -19.5433
   7   2.0000      -0.646069       -17.5804
   8   2.0000      -0.581722       -15.8294
   9   2.0000      -0.495791       -13.4912
  10   2.0000      -0.439581       -11.9616
  11   2.0000      -0.415594       -11.3089
  12   2.0000      -0.397661       -10.8209
  13   2.0000      -0.378879       -10.3098
  14   2.0000      -0.349296        -9.5048
  15   2.0000      -0.338887        -9.2216
  16   2.0000      -0.322774        -8.7831
  17   2.0000      -0.315260        -8.5787
  18   2.0000      -0.291466        -7.9312
  19   2.0000      -0.216786        -5.8990
  20   0.0000      -0.005857        -0.1594
  21   0.0000       0.095004         2.5852
  22   0.0000       0.109905         2.9907
  23   0.0000       0.127934         3.4813
  24   0.0000       0.143665         3.9093

MULLIKEN ATOMIC CHARGES
-----------------------
   0 C :   -0.481265
   1 C :   -0.222848
   2 C :   -0.170002
   3 C :   -0.143443
   4 C :   -0.477897
   5 H :    0.151698
   6 H :    0.144351
   7 H :    0.142188
   8 H :    0.138816
   9 H :    0.155112
  10 H :    0.150475
  11 H :    0.152673
  12 H :    0.155717
  13 H :    0.146713
  14 H :    0.157711
Sum of atomic charges:   -0.0000000

LOEWDIN ATOMIC CHARGES
----------------------
   0 C :   -0.421781
   1 C :   -0.308384
   2 C :   -0.212421
   3 C :   -0.214302
   4 C :   -0.418561
   5 H :    0.152419
   6 H :    0.150186
   7 H :    0.150819
   8 H :    0.158410
   9 H :    0.162361
  10 H :    0.164140
  11 H :    0.160409
  12 H :    0.159605
  13 H :    0.154975
  14 H :    0.162126

  Mayer bond orders larger than 0.100000
B(  0-C ,  1-C ) :   0.8933 B(  0-C ,  5-H ) :   0.9882 B(  0-C ,  6-H ) :   0.9753
B(  0-C ,  7-H ) :   0.9756 B(  1-C ,  2-C ) :   0.9229 B(  1-C ,  8-H ) :   0.9809
B(  1-C ,  9-H ) :   0.9628 B(  2-C ,  3-C ) :   1.9423 B(  2-C , 10-H ) :   0.9510
B(  3-C ,  4-C ) :   0.9015 B(  3-C , 11-H ) :   0.9523 B(  4-C , 12-H ) :   0.9832
B(  4-C , 13-H ) :   0.9726 B(  4-C , 14-H ) :   0.9736

Dispersion correction           -0.003241138
FINAL SINGLE POINT ENERGY      -196.458464279048

DIPOLE MOMENT
-------------

Method             : SCF
Type of density    : Electron Density
Multiplicity       :   1
Irrep              :   0
Energy             :  -196.4613624932904088 Eh
Relativity type    :
Basis              : AO
                                X                 Y                 Z
Electronic contribution:      1.299443127      -1.529349344       0.344770367
Nuclear contribution   :     -1.301830235       1.684932705      -0.334159698
                        -----------------------------------------
Total Dipole Moment    :     -0.002387108       0.155583361       0.010610669
                        -----------------------------------------
Magnitude (a.u.)       :      0.155963030
Magnitude (Debye)      :      0.396426518

Rotational constants in cm-1:             0.459425             0.083935             0.074437
Rotational constants in MHz :         13773.210316          2516.312874          2231.567371

                             ****ORCA TERMINATED NORMALLY****
TOTAL RUN TIME: 0 days 0 hours 0 minutes 9 seconds 323 msec
