                         Program Version 6.0.0  -   RELEASE  -
|  1> ! r2SCAN-3c DEF2-TZVP FREQ
|  2> * xyzfile 0 1 censo.xyz
|  3>
|  4>                          ****END OF INPUT****

CARTESIAN COORDINATES (ANGSTROEM)
---------------------------------
  C     -1.416938   -0.992931    0.000197
  S     -0.000038    0.109037   -0.000448
  O     -0.000892    0.885410    1.266913
  O     -0.000461    0.883256   -1.269133
  C      1.418682   -0.990587    0.000691
  H     -1.381150   -1.610199   -0.900270
  H     -1.382521   -1.607470    0.902577
  H     -2.308146   -0.359429   -0.001461
  H      1.383994   -1.608191   -0.899595
  H      2.308845   -0.355605   -0.001071
  H      1.385167   -1.604903    0.903263

 Total Charge           Charge          ....    0
 Multiplicity           Mult            ....    1
 Number of Electrons    NEL             ....   50
 Basis Dimension        Dim             ....  197

ORBITAL ENERGIES
----------------

  NO   OCC          E(Eh)            E(eV)
   0   2.0000     -88.718822     -2414.1619
   1   2.0000     -18.939362      -515.3662
   2   2.0000     -18.939355      -515.3660
   3   2.0000     -10.082085      -274.3475
   4   2.0000     -10.082083      -274.3474
   5   2.0000      -8.004283      -217.8076
   6   2.0000      -5.949563      -161.8958
   7   2.0000      -5.948034      -161.8542
   8   2.0000      -5.946601      -161.8152
   9   2.0000      -1.044003       -28.4088
  10   2.0000      -0.944141       -25.6914
  11   2.0000      -0.768828       -20.9209
  12   2.0000      -0.719662       -19.5830
  13   2.0000      -0.571352       -15.5473
  14   2.0000      -0.470225       -12.7955
  15   2.0000      -0.458165       -12.4673
  16   2.0000      -0.453886       -12.3509
  17   2.0000      -0.420630       -11.4459
  18   2.0000      -0.410440       -11.1686
  19   2.0000      -0.396585       -10.7916
  20   2.0000      -0.389455       -10.5976
  21   2.0000      -0.298550        -8.1240
  22   2.0000      -0.280008        -7.6194
  23   2.0000      -0.267001        -7.2655
  24   2.0000      -0.262572        -7.1449
  25   0.0000       0.016383         0.4458
  26   0.0000       0.031932         0.8689
  27   0.0000       0.039561         1.0765
  28   0.0000       0.043138         1.1738
  29   0.0000       0.056500         1.5374

MULLIKEN ATOMIC CHARGES
-----------------------
   0 C :   -0.343453
   1 S :    0.780271
   2 O :   -0.485849
   3 O :   -0.485840
   4 C :   -0.343447
   5 H :    0.139601
   6 H :    0.139660
   7 H :    0.159900
   8 H :    0.139588
   9 H :    0.159898
  10 H :    0.139671
Sum of atomic charges:    0.0000000

LOEWDIN ATOMIC CHARGES
----------------------
   0 C :   -0.412217
   1 S :    0.707348
   2 O :   -0.320291
   3 O :   -0.320292
   4 C :   -0.412218
   5 H :    0.122995
   6 H :    0.123005
   7 H :    0.132834
   8 H :    0.122994
   9 H :    0.132835
  10 H :    0.123008

  Mayer bond orders larger than 0.100000
B(  0-C ,  1-S ) :   0.8834 B(  0-C ,  5-H ) :   0.9432 B(  0-C ,  6-H ) :   0.9432
B(  0-C ,  7-H ) :   0.9450 B(  1-S ,  2-O ) :   1.8083 B(  1-S ,  3-O ) :   1.8083
B(  1-S ,  4-C ) :   0.8834 B(  4-C ,  8-H ) :   0.9432 B(  4-C ,  9-H ) :   0.9450
B(  4-C , 10-H ) :   0.9432

Dispersion correction           -0.002659059
FINAL SINGLE POINT ENERGY      -628.405346011009

DIPOLE MOMENT
-------------

Method             : SCF
Type of density    : Electron Density
Multiplicity       :   1
Irrep              :   0
Energy             :  -628.4180835628453679 Eh
Relativity type    :
Basis              : AO
                                X                 Y                 Z
Electronic contribution:     -0.003948262       4.805312164      -0.003746295
Nuclear contribution   :      0.005528360      -6.726806314       0.005347193
                        -----------------------------------------
Total Dipole Moment    :      0.001580098      -1.921494150       0.001600898
                        -----------------------------------------
Magnitude (a.u.)       :      1.921495466
Magnitude (Debye)      :      4.884053333

VIBRATIONAL FREQUENCIES
-----------------------

Scaling factor for frequencies =  1.000000000  (already applied!)

     0:       0.00 cm**-1
     1:       0.00 cm**-1
     2:       0.00 cm**-1
     3:       0.00 cm**-1
     4:       0.00 cm**-1
     5:       0.00 cm**-1
     6:     193.75 cm**-1
     7:     231.14 cm**-1
     8:     269.64 cm**-1
     9:     304.03 cm**-1
    10:     361.97 cm**-1
    11:     461.13 cm**-1
    12:     492.49 cm**-1
    13:     648.67 cm**-1
    14:     727.89 cm**-1
    15:     932.99 cm**-1
    16:     941.29 cm**-1
    17:     972.53 cm**-1
    18:     975.66 cm**-1
    19:    1068.96 cm**-1
    20:    1185.35 cm**-1
    21:    1320.07 cm**-1
    22:    1334.93 cm**-1
    23:    1433.85 cm**-1
    24:    1439.39 cm**-1
    25:    1451.11 cm**-1
    26:    1452.03 cm**-1
    27:    3026.96 cm**-1
    28:    3028.90 cm**-1
    29:    3139.22 cm**-1
    30:    3139.40 cm**-1
    31:    3140.38 cm**-1
    32:    3143.24 cm**-1

IR SPECTRUM
-----------

 Mode   freq       eps      Int      T**2         TX        TY        TZ
       cm**-1   L/(mol*cm) km/mol    a.u.
----------------------------------------------------------------------------
  6:    193.75   0.000000    0.00  0.000000  ( 0.000010  0.000004 -0.000014)
  7:    231.14   0.000081    0.41  0.000109  ( 0.000004  0.000049 -0.010446)
  8:    269.64   0.000488    2.47  0.000565  (-0.000018  0.023764  0.000006)
  9:    304.03   0.000000    0.00  0.000000  (-0.000026 -0.000002 -0.000055)
 10:    361.97   0.000026    0.13  0.000022  (-0.000002  0.000018  0.004721)
 11:    461.13   0.004433   22.40  0.003000  (-0.054770 -0.000056  0.000015)
 12:    492.49   0.003158   15.96  0.002001  ( 0.000070 -0.044734  0.000044)
 13:    648.67   0.001913    9.67  0.000920  ( 0.000008 -0.030338  0.000028)
 14:    727.89   0.010236   51.73  0.004389  ( 0.066247  0.000034 -0.000003)
 15:    932.99   0.000000    0.00  0.000000  ( 0.000256  0.000006  0.000002)
 16:    941.29   0.011861   59.94  0.003932  ( 0.062709  0.000048  0.000001)
 17:    972.53   0.005846   29.54  0.001876  ( 0.000052 -0.043310  0.000020)
 18:    975.66   0.000329    1.66  0.000105  ( 0.000009  0.000142 -0.010257)
 19:   1068.96   0.026137  132.09  0.007630  ( 0.000076 -0.087351  0.000090)
 20:   1185.35   0.044874  226.77  0.011814  ( 0.000021 -0.000101 -0.108691)
 21:   1320.07   0.002279   11.52  0.000539  ( 0.023212  0.000020  0.000003)
 22:   1334.93   0.002344   11.85  0.000548  (-0.000024  0.023411 -0.000012)
 23:   1433.85   0.000000    0.00  0.000000  (-0.000006 -0.000004  0.000004)
 24:   1439.39   0.001308    6.61  0.000283  (-0.016837 -0.000011  0.000006)
 25:   1451.11   0.000588    2.97  0.000126  (-0.000005  0.011243 -0.000190)
 26:   1452.03   0.002395   12.10  0.000515  ( 0.000004  0.000129  0.022687)
 27:   3026.96   0.000027    0.13  0.000003  (-0.001654 -0.000101 -0.000000)
 28:   3028.90   0.000515    2.60  0.000053  (-0.000029  0.007284 -0.000005)
 29:   3139.22   0.000007    0.03  0.000001  ( 0.000810 -0.000013 -0.000036)
 30:   3139.40   0.000305    1.54  0.000030  ( 0.005509 -0.000097  0.000004)
 31:   3140.38   0.000119    0.60  0.000012  ( 0.000163  0.003437  0.000053)
 32:   3143.24   0.000442    2.23  0.000044  (-0.000001 -0.000011  0.006621)

--------------------------
THERMOCHEMISTRY AT 298.15K
--------------------------

Temperature         ...   298.15 K
Pressure            ...     1.00 atm
Total Mass          ...    94.13 AMU
Quasi RRHO          ...     True
Cut-Off Frequency   ...     1.00 cm^-1

Throughout the following assumptions are being made:
  (1) The electronic state is orbitally nondegenerate
  (2) There are no thermally accessible electronically excited states
  (3) Hindered rotations indicated by low frequency modes are not
      treated as such but are treated as vibrations and this may
      cause some error
  (4) All equations used are the standard statistical mechanics
      equations for an ideal gas
  (5) All vibrations are strictly harmonic

freq.     193.75  E(vib)   ...       0.36
freq.     231.14  E(vib)   ...       0.32
freq.     269.64  E(vib)   ...       0.29
freq.     304.03  E(vib)   ...       0.26
freq.     361.97  E(vib)   ...       0.22
freq.     461.13  E(vib)   ...       0.16
freq.     492.49  E(vib)   ...       0.14
freq.     648.67  E(vib)   ...       0.08
freq.     727.89  E(vib)   ...       0.06
freq.     932.99  E(vib)   ...       0.03
freq.     941.29  E(vib)   ...       0.03
freq.     972.53  E(vib)   ...       0.03
freq.     975.66  E(vib)   ...       0.03
freq.    1068.96  E(vib)   ...       0.02
freq.    1185.35  E(vib)   ...       0.01
freq.    1320.07  E(vib)   ...       0.01
freq.    1334.93  E(vib)   ...       0.01
freq.    1433.85  E(vib)   ...       0.00
freq.    1439.39  E(vib)   ...       0.00
freq.    1451.11  E(vib)   ...       0.00
freq.    1452.03  E(vib)   ...       0.00
freq.    3026.96  E(vib)   ...       0.00
freq.    3028.90  E(vib)   ...       0.00
freq.    3139.22  E(vib)   ...       0.00
freq.    3139.40  E(vib)   ...       0.00
freq.    3140.38  E(vib)   ...       0.00
freq.    3143.24  E(vib)   ...       0.00

------------
INNER ENERGY
------------

The inner energy is: U= E(el) + E(ZPE) + E(vib) + E(rot) + E(trans)
    E(el)   - is the total energy from the electronic structure calculation
              = E(kin-el) + E(nuc-el) + E(el-el) + E(nuc-nuc)
    E(ZPE)  - the the zero temperature vibrational energy from the frequency calculation
    E(vib)  - the the finite temperature correction to E(ZPE) due to population
              of excited vibrational states
    E(rot)  - is the rotational thermal energy
    E(trans)- is the translational thermal energy

Summary of contributions to the inner energy U:
Electronic energy                ...   -628.40534601 Eh
Zero point energy                ...      0.08387515 Eh      52.63 kcal/mol
Thermal vibrational correction   ...      0.00329445 Eh       2.07 kcal/mol
Thermal rotational correction    ...      0.00141627 Eh       0.89 kcal/mol
Thermal translational correction ...      0.00141627 Eh       0.89 kcal/mol
-----------------------------------------------------------------------
Total thermal energy                   -628.31534387 Eh

Summary of corrections to the electronic energy:
(perhaps to be used in another calculation)
Total thermal correction                  0.00612699 Eh       3.84 kcal/mol
Non-thermal (ZPE) correction              0.08387515 Eh      52.63 kcal/mol
-----------------------------------------------------------------------
Total correction                          0.09000214 Eh      56.48 kcal/mol

--------
ENTHALPY
--------

The enthalpy is H = U + kB*T
                kB is Boltzmann's constant
Total thermal energy              ...   -628.31534387 Eh
Thermal Enthalpy correction       ...      0.00094421 Eh       0.59 kcal/mol
-----------------------------------------------------------------------
Total Enthalpy                    ...   -628.31439966 Eh

Note: Only C1 symmetry has been detected, increase convergence thresholds
      if your molecule has a higher symmetry. Symmetry factor of 1.0 is
      used for the rotational entropy correction.

Note: Rotational entropy computed according to Herzberg
Infrared and Raman Spectra, Chapter V,1, Van Nostrand Reinhold, 1945
Point Group:  C1, Symmetry Number:   1
Rotational constants in cm-1:     0.147317     0.138778     0.133312

Vibrational entropy computed according to the QRRHO of S. Grimme
Chem.Eur.J. 2012 18 9955 using a reference frequency of 100.0 cm-1

-------
ENTROPY
-------

The entropy contributions are T*S = T*(S(el)+S(vib)+S(rot)+S(trans))
     S(el)   - electronic entropy
     S(vib)  - vibrational entropy
     S(rot)  - rotational entropy
     S(trans)- translational entropy
The entropies will be listed as multiplied by the temperature to get
units of energy

Electronic entropy                ...      0.00000000 Eh      0.00 kcal/mol
Vibrational entropy               ...      0.00520214 Eh      3.26 kcal/mol
Rotational entropy                ...      0.01229856 Eh      7.72 kcal/mol
Translational entropy             ...      0.01878554 Eh     11.79 kcal/mol
-----------------------------------------------------------------------
Final entropy term                ...      0.03628623 Eh     22.77 kcal/mol

In case the symmetry of your molecule has not been determined correctly
or in case you have a reason to use a different symmetry number we print
out the resulting rotational entropy values for sn=1,12:

 non-linear molecules -----------------------------------
|  sn= 1 | S(rot)=       0.01229856 Eh      7.72 kcal/mol|
|  sn= 2 | S(rot)=       0.01164410 Eh      7.31 kcal/mol|
|  sn= 3 | S(rot)=       0.01126127 Eh      7.07 kcal/mol|
|  sn= 4 | S(rot)=       0.01098964 Eh      6.90 kcal/mol|
|  sn= 5 | S(rot)=       0.01077895 Eh      6.76 kcal/mol|
|  sn= 6 | S(rot)=       0.01060681 Eh      6.66 kcal/mol|
|  sn= 7 | S(rot)=       0.01046126 Eh      6.56 kcal/mol|
|  sn= 8 | S(rot)=       0.01033519 Eh      6.49 kcal/mol|
|  sn= 9 | S(rot)=       0.01022398 Eh      6.42 kcal/mol|
|  sn=10 | S(rot)=       0.01012450 Eh      6.35 kcal/mol|
|  sn=11 | S(rot)=       0.01003451 Eh      6.30 kcal/mol|
|  sn=12 | S(rot)=       0.00995235 Eh      6.25 kcal/mol|
 linear molecules ---------------------------------------
|  Dinfh | S(rot)=       0.00722839 Eh      4.54 kcal/mol|
|  Cinfv | S(rot)=       0.00788284 Eh      4.95 kcal/mol|
 --------------------------------------------------------

-------------------
GIBBS FREE ENERGY
-------------------

The Gibbs free energy is G = H - T*S

Total enthalpy                    ...   -628.31439966 Eh
Total entropy correction          ...     -0.03628623 Eh    -22.77 kcal/mol
-----------------------------------------------------------------------
Final Gibbs free energy         ...   -628.35068589 Eh

For completeness - the Gibbs free energy minus the electronic energy
G-E(el)                           ...      0.05466012 Eh     34.30 kcal/mol

                             ****ORCA TERMINATED NORMALLY****
TOTAL RUN TIME: 0 days 0 hours 3 minutes 31 seconds 287 msec
