                         Program Version 6.0.0  -   RELEASE  -
|  1> ! r2SCAN-3c DEF2-TZVP FREQ
|  2> * xyzfile 0 1 vacuum_censo.xyz
|  3>
|  4>                          ****END OF INPUT****

CARTESIAN COORDINATES (ANGSTROEM)
---------------------------------
  C     -1.421370   -1.006987   -0.000282
  S     -0.000001    0.121210    0.000056
  O     -0.000119    0.848158    1.280074
  O      0.000113    0.848617   -1.279706
  C      1.421375   -1.006979   -0.000020
  H     -2.307084   -0.366957   -0.000164
  H     -1.396001   -1.618296   -0.904859
  H     -1.396087   -1.618741    0.903997
  H      2.307085   -0.366944    0.000248
  H      1.395934   -1.618721    0.904263
  H      1.396169   -1.618299   -0.904594

 Total Charge           Charge          ....    0
 Multiplicity           Mult            ....    1
 Number of Electrons    NEL             ....   50
 Basis Dimension        Dim             ....  197

ORBITAL ENERGIES
----------------

  NO   OCC          E(Eh)            E(eV)
   0   2.0000     -88.717737     -2414.1324
   1   2.0000     -18.942368      -515.4480
   2   2.0000     -18.942359      -515.4478
   3   2.0000     -10.076919      -274.2069
   4   2.0000     -10.076918      -274.2069
   5   2.0000      -8.003204      -217.7782
   6   2.0000      -5.948648      -161.8710
   7   2.0000      -5.947172      -161.8308
   8   2.0000      -5.945164      -161.7761
   9   2.0000      -1.051907       -28.6238
  10   2.0000      -0.955406       -25.9979
  11   2.0000      -0.759893       -20.6777
  12   2.0000      -0.713408       -19.4128
  13   2.0000      -0.568480       -15.4691
  14   2.0000      -0.468701       -12.7540
  15   2.0000      -0.455870       -12.4048
  16   2.0000      -0.449810       -12.2400
  17   2.0000      -0.417265       -11.3544
  18   2.0000      -0.410944       -11.1824
  19   2.0000      -0.393369       -10.7041
  20   2.0000      -0.390768       -10.6333
  21   2.0000      -0.301622        -8.2076
  22   2.0000      -0.287131        -7.8132
  23   2.0000      -0.271661        -7.3923
  24   2.0000      -0.266249        -7.2450
  25   0.0000       0.017351         0.4721
  26   0.0000       0.034344         0.9346
  27   0.0000       0.042204         1.1484
  28   0.0000       0.051287         1.3956
  29   0.0000       0.052288         1.4228

MULLIKEN ATOMIC CHARGES
-----------------------
   0 C :   -0.352157
   1 S :    0.791696
   2 O :   -0.477326
   3 O :   -0.477330
   4 C :   -0.352157
   5 H :    0.154913
   6 H :    0.139364
   7 H :    0.139359
   8 H :    0.154913
   9 H :    0.139360
  10 H :    0.139364
Sum of atomic charges:   -0.0000000

LOEWDIN ATOMIC CHARGES
----------------------
   0 C :   -0.412352
   1 S :    0.694030
   2 O :   -0.306204
   3 O :   -0.306209
   4 C :   -0.412352
   5 H :    0.129569
   6 H :    0.120988
   7 H :    0.120987
   8 H :    0.129569
   9 H :    0.120987
  10 H :    0.120988

  Mayer bond orders larger than 0.100000
B(  0-C ,  1-S ) :   0.8777 B(  0-C ,  5-H ) :   0.9467 B(  0-C ,  6-H ) :   0.9453
B(  0-C ,  7-H ) :   0.9453 B(  1-S ,  2-O ) :   1.8195 B(  1-S ,  3-O ) :   1.8195
B(  1-S ,  4-C ) :   0.8777 B(  4-C ,  8-H ) :   0.9467 B(  4-C ,  9-H ) :   0.9453
B(  4-C , 10-H ) :   0.9453

Dispersion correction           -0.002657637
FINAL SINGLE POINT ENERGY      -628.407813885024

DIPOLE MOMENT
-------------

Method             : SCF
Type of density    : Electron Density
Multiplicity       :   1
Irrep              :   0
Energy             :  -628.4202212388431690 Eh
Relativity type    :
Basis              : AO
                                X                 Y                 Z
Electronic contribution:     -0.000014179       4.936922425       0.000901074
Nuclear contribution   :      0.000019296      -6.715470837      -0.001212348
                        -----------------------------------------
Total Dipole Moment    :      0.000005117      -1.778548412      -0.000311274
                        -----------------------------------------
Magnitude (a.u.)       :      1.778548439
Magnitude (Debye)      :      4.520710866

VIBRATIONAL FREQUENCIES
-----------------------

Scaling factor for frequencies =  1.000000000  (already applied!)

     0:       0.00 cm**-1
     1:       0.00 cm**-1
     2:       0.00 cm**-1
     3:       0.00 cm**-1
     4:       0.00 cm**-1
     5:       0.00 cm**-1
     6:     187.48 cm**-1
     7:     219.16 cm**-1
     8:     269.53 cm**-1
     9:     304.42 cm**-1
    10:     363.45 cm**-1
    11:     450.82 cm**-1
    12:     479.57 cm**-1
    13:     625.03 cm**-1
    14:     696.54 cm**-1
    15:     929.96 cm**-1
    16:     934.34 cm**-1
    17:     979.25 cm**-1
    18:     987.00 cm**-1
    19:    1082.90 cm**-1
    20:    1244.65 cm**-1
    21:    1313.83 cm**-1
    22:    1329.29 cm**-1
    23:    1437.88 cm**-1
    24:    1440.05 cm**-1
    25:    1451.01 cm**-1
    26:    1455.01 cm**-1
    27:    3029.95 cm**-1
    28:    3031.80 cm**-1
    29:    3141.06 cm**-1
    30:    3142.09 cm**-1
    31:    3144.82 cm**-1
    32:    3148.64 cm**-1

IR SPECTRUM
-----------

 Mode   freq       eps      Int      T**2         TX        TY        TZ
       cm**-1   L/(mol*cm) km/mol    a.u.
----------------------------------------------------------------------------
  6:    187.48   0.000000    0.00  0.000000  ( 0.000003 -0.000000 -0.000001)
  7:    219.16   0.000084    0.42  0.000119  (-0.000002  0.000001  0.010905)
  8:    269.53   0.000472    2.38  0.000546  (-0.000000  0.023371  0.000001)
  9:    304.42   0.000000    0.00  0.000000  ( 0.000005 -0.000002 -0.000000)
 10:    363.45   0.000040    0.20  0.000034  ( 0.000000  0.000002 -0.005824)
 11:    450.82   0.004133   20.89  0.002861  (-0.053490 -0.000000  0.000009)
 12:    479.57   0.002987   15.10  0.001944  (-0.000000  0.044090  0.000010)
 13:    625.03   0.002712   13.70  0.001354  ( 0.000000  0.036796  0.000009)
 14:    696.54   0.011783   59.55  0.005279  ( 0.072657  0.000000 -0.000002)
 15:    929.96   0.000000    0.00  0.000000  (-0.000021  0.000000 -0.000000)
 16:    934.34   0.012038   60.83  0.004021  ( 0.063408  0.000000  0.000001)
 17:    979.25   0.000004    0.02  0.000001  ( 0.000000  0.000012 -0.001135)
 18:    987.00   0.001465    7.40  0.000463  ( 0.000000  0.021522  0.000002)
 19:   1082.90   0.030936  156.34  0.008915  (-0.000000  0.094419  0.000013)
 20:   1244.65   0.045421  229.54  0.011388  ( 0.000011  0.000013 -0.106715)
 21:   1313.83   0.002023   10.22  0.000480  ( 0.021919 -0.000000  0.000002)
 22:   1329.29   0.002362   11.94  0.000555  (-0.000000 -0.023550 -0.000005)
 23:   1437.88   0.000000    0.00  0.000000  (-0.000001 -0.000000 -0.000000)
 24:   1440.05   0.001367    6.91  0.000296  ( 0.017213  0.000000  0.000002)
 25:   1451.01   0.000569    2.88  0.000122  ( 0.000000 -0.011067 -0.000005)
 26:   1455.01   0.002127   10.75  0.000456  (-0.000002 -0.000007  0.021359)
 27:   3029.95   0.000002    0.01  0.000000  ( 0.000458  0.000002 -0.000000)
 28:   3031.80   0.000455    2.30  0.000047  (-0.000000  0.006845  0.000001)
 29:   3141.06   0.000077    0.39  0.000008  ( 0.002771  0.000003  0.000000)
 30:   3142.09   0.000234    1.18  0.000023  (-0.000002  0.004818 -0.000001)
 31:   3144.82   0.000000    0.00  0.000000  ( 0.000001  0.000000  0.000001)
 32:   3148.64   0.000542    2.74  0.000054  (-0.000001 -0.000001  0.007326)

--------------------------
THERMOCHEMISTRY AT 298.15K
--------------------------

Temperature         ...   298.15 K
Pressure            ...     1.00 atm
Total Mass          ...    94.13 AMU
Quasi RRHO          ...     True
Cut-Off Frequency   ...     1.00 cm^-1

Throughout the following assumptions are being made:
  (1) The electronic state is orbitally nondegenerate
  (2) There are no thermally accessible electronically excited states
  (3) Hindered rotations indicated by low frequency modes are not
      treated as such but are treated as vibrations and this may
      cause some error
  (4) All equations used are the standard statistical mechanics
      equations for an ideal gas
  (5) All vibrations are strictly harmonic

freq.     187.48  E(vib)   ...       0.36
freq.     219.16  E(vib)   ...       0.33
freq.     269.53  E(vib)   ...       0.29
freq.     304.42  E(vib)   ...       0.26
freq.     363.45  E(vib)   ...       0.22
freq.     450.82  E(vib)   ...       0.17
freq.     479.57  E(vib)   ...       0.15
freq.     625.03  E(vib)   ...       0.09
freq.     696.54  E(vib)   ...       0.07
freq.     929.96  E(vib)   ...       0.03
freq.     934.34  E(vib)   ...       0.03
freq.     979.25  E(vib)   ...       0.03
freq.     987.00  E(vib)   ...       0.02
freq.    1082.90  E(vib)   ...       0.02
freq.    1244.65  E(vib)   ...       0.01
freq.    1313.83  E(vib)   ...       0.01
freq.    1329.29  E(vib)   ...       0.01
freq.    1437.88  E(vib)   ...       0.00
freq.    1440.05  E(vib)   ...       0.00
freq.    1451.01  E(vib)   ...       0.00
freq.    1455.01  E(vib)   ...       0.00
freq.    3029.95  E(vib)   ...       0.00
freq.    3031.80  E(vib)   ...       0.00
freq.    3141.06  E(vib)   ...       0.00
freq.    3142.09  E(vib)   ...       0.00
freq.    3144.82  E(vib)   ...       0.00
freq.    3148.64  E(vib)   ...       0.00

------------
INNER ENERGY
------------

The inner energy is: U= E(el) + E(ZPE) + E(vib) + E(rot) + E(trans)
    E(el)   - is the total energy from the electronic structure calculation
              = E(kin-el) + E(nuc-el) + E(el-el) + E(nuc-nuc)
    E(ZPE)  - the the zero temperature vibrational energy from the frequency calculation
    E(vib)  - the the finite temperature correction to E(ZPE) due to population
              of excited vibrational states
    E(rot)  - is the rotational thermal energy
    E(trans)- is the translational thermal energy

Summary of contributions to the inner energy U:
Electronic energy                ...   -628.40781389 Eh
Zero point energy                ...      0.08388106 Eh      52.64 kcal/mol
Thermal vibrational correction   ...      0.00335666 Eh       2.11 kcal/mol
Thermal rotational correction    ...      0.00141627 Eh       0.89 kcal/mol
Thermal translational correction ...      0.00141627 Eh       0.89 kcal/mol
-----------------------------------------------------------------------
Total thermal energy                   -628.31774362 Eh

Summary of corrections to the electronic energy:
(perhaps to be used in another calculation)
Total thermal correction                  0.00618921 Eh       3.88 kcal/mol
Non-thermal (ZPE) correction              0.08388106 Eh      52.64 kcal/mol
-----------------------------------------------------------------------
Total correction                          0.09007027 Eh      56.52 kcal/mol

--------
ENTHALPY
--------

The enthalpy is H = U + kB*T
                kB is Boltzmann's constant
Total thermal energy              ...   -628.31774362 Eh
Thermal Enthalpy correction       ...      0.00094421 Eh       0.59 kcal/mol
-----------------------------------------------------------------------
Total Enthalpy                    ...   -628.31679941 Eh

Note: Rotational entropy computed according to Herzberg
Infrared and Raman Spectra, Chapter V,1, Van Nostrand Reinhold, 1945
Point Group:  Cs, Symmetry Number:   1
Rotational constants in cm-1:     0.147348     0.137238     0.133990

Vibrational entropy computed according to the QRRHO of S. Grimme
Chem.Eur.J. 2012 18 9955 using a reference frequency of 100.0 cm-1

-------
ENTROPY
-------

The entropy contributions are T*S = T*(S(el)+S(vib)+S(rot)+S(trans))
     S(el)   - electronic entropy
     S(vib)  - vibrational entropy
     S(rot)  - rotational entropy
     S(trans)- translational entropy
The entropies will be listed as multiplied by the temperature to get
units of energy

Electronic entropy                ...      0.00000000 Eh      0.00 kcal/mol
Vibrational entropy               ...      0.00532892 Eh      3.34 kcal/mol
Rotational entropy                ...      0.01230133 Eh      7.72 kcal/mol
Translational entropy             ...      0.01878554 Eh     11.79 kcal/mol
-----------------------------------------------------------------------
Final entropy term                ...      0.03641579 Eh     22.85 kcal/mol

In case the symmetry of your molecule has not been determined correctly
or in case you have a reason to use a different symmetry number we print
out the resulting rotational entropy values for sn=1,12:

 non-linear molecules -----------------------------------
|  sn= 1 | S(rot)=       0.01230133 Eh      7.72 kcal/mol|
|  sn= 2 | S(rot)=       0.01164687 Eh      7.31 kcal/mol|
|  sn= 3 | S(rot)=       0.01126404 Eh      7.07 kcal/mol|
|  sn= 4 | S(rot)=       0.01099242 Eh      6.90 kcal/mol|
|  sn= 5 | S(rot)=       0.01078173 Eh      6.77 kcal/mol|
|  sn= 6 | S(rot)=       0.01060958 Eh      6.66 kcal/mol|
|  sn= 7 | S(rot)=       0.01046404 Eh      6.57 kcal/mol|
|  sn= 8 | S(rot)=       0.01033796 Eh      6.49 kcal/mol|
|  sn= 9 | S(rot)=       0.01022675 Eh      6.42 kcal/mol|
|  sn=10 | S(rot)=       0.01012727 Eh      6.35 kcal/mol|
|  sn=11 | S(rot)=       0.01003728 Eh      6.30 kcal/mol|
|  sn=12 | S(rot)=       0.00995513 Eh      6.25 kcal/mol|
 linear molecules ---------------------------------------
|  Dinfh | S(rot)=       0.00722360 Eh      4.53 kcal/mol|
|  Cinfv | S(rot)=       0.00787806 Eh      4.94 kcal/mol|
 --------------------------------------------------------

-------------------
GIBBS FREE ENERGY
-------------------

The Gibbs free energy is G = H - T*S

Total enthalpy                    ...   -628.31679941 Eh
Total entropy correction          ...     -0.03641579 Eh    -22.85 kcal/mol
-----------------------------------------------------------------------
Final Gibbs free energy         ...   -628.35321519 Eh

For completeness - the Gibbs free energy minus the electronic energy
G-E(el)                           ...      0.05459869 Eh     34.26 kcal/mol

                             ****ORCA TERMINATED NORMALLY****
TOTAL RUN TIME: 0 days 0 hours 3 minutes 26 seconds 707 msec
