                         Program Version 6.0.1  -  RELEASE   -
|  1> ! r2scan-3c def2/J RI DEFGRID2 scfconv6 printgap
|  2> %output
|  3>     printlevel normal
|  4> end
|  5> * xyz 0 1
|  6> C 1.7259144651 -1.0313298276 1.1515009974
|  7> C 3.1005767443 -1.1370083357 1.2379777405
|  8> C 3.9157169372 -0.3160616495 0.4722799251
|  9> C 3.339689139 0.6251523029 -0.3781993282
| 10> C 1.9616121396 0.7347139061 -0.457515018
| 11> C 1.1429221339 -0.0975666195 0.2990884721
| 12> C -0.3213063883 0.044319858 0.2024393072
| 13> C -0.8983288091 1.2995013294 0.3647195284
| 14> C -2.2696723507 1.4717491163 0.2889888212
| 15> C -3.1019608969 0.3812767871 0.0397847549
| 16> C -2.5353247926 -0.8800629573 -0.1400586511
| 17> C -1.1535074925 -1.0465564397 -0.0584959411
| 18> Cl -0.4909801667 -2.6071768192 -0.3430907968
| 19> Cl -3.547249624 -2.224726981 -0.4671203531
| 20> Cl -4.8011030764 0.5826464071 -0.0525980026
| 21> Cl -2.949029122 3.033188934 0.5043680003
| 22> Cl 4.3318625653 1.6580637527 -1.3338421162
| 23> Cl 5.6261648188 -0.4607678942 0.580015922
| 24> H 1.1034063826 -1.6643137815 1.7631461724
| 25> H 3.5527842071 -1.8577095267 1.9004651724
| 26> H 1.5260720859 1.458813006 -1.1277916621
| 27> H -0.2680716176 2.1500105433 0.5694877072
| 28> *
| 29>
| 30>                          ****END OF INPUT****

CARTESIAN COORDINATES (ANGSTROEM)
---------------------------------
  C      1.725914   -1.031330    1.151501
  C      3.100577   -1.137008    1.237978
  C      3.915717   -0.316062    0.472280
  C      3.339689    0.625152   -0.378199
  C      1.961612    0.734714   -0.457515
  C      1.142922   -0.097567    0.299088
  C     -0.321306    0.044320    0.202439
  C     -0.898329    1.299501    0.364720
  C     -2.269672    1.471749    0.288989
  C     -3.101961    0.381277    0.039785
  C     -2.535325   -0.880063   -0.140059
  C     -1.153507   -1.046556   -0.058496
  Cl    -0.490980   -2.607177   -0.343091
  Cl    -3.547250   -2.224727   -0.467120
  Cl    -4.801103    0.582646   -0.052598
  Cl    -2.949029    3.033189    0.504368
  Cl     4.331863    1.658064   -1.333842
  Cl     5.626165   -0.460768    0.580016
  H      1.103406   -1.664314    1.763146
  H      3.552784   -1.857710    1.900465
  H      1.526072    1.458813   -1.127792
  H     -0.268072    2.150011    0.569488

 Total Charge           Charge          ....    0
 Multiplicity           Mult            ....    1
 Number of Electrons    NEL             ....  178
 Basis Dimension        Dim             ....  410

ORBITAL ENERGIES
----------------

  NO   OCC          E(Eh)            E(eV)
   0   2.0000    -101.245241     -2755.0231
   1   2.0000    -101.245143     -2755.0204
   2   2.0000    -101.243929     -2754.9874
   3   2.0000    -101.243771     -2754.9831
   4   2.0000    -101.236508     -2754.7854
   5   2.0000    -101.236345     -2754.7810
   6   2.0000     -10.140157      -275.9277
   7   2.0000     -10.138660      -275.8870
   8   2.0000     -10.135377      -275.7976
   9   2.0000     -10.134575      -275.7758
  10   2.0000     -10.125057      -275.5168
  11   2.0000     -10.124487      -275.5013
  12   2.0000     -10.094017      -274.6722
  13   2.0000     -10.081971      -274.3444
  14   2.0000     -10.079978      -274.2901
  15   2.0000     -10.072484      -274.0862
  16   2.0000     -10.070373      -274.0288
  17   2.0000     -10.066983      -273.9365
  18   2.0000      -9.401025      -255.8149
  19   2.0000      -9.400980      -255.8137
  20   2.0000      -9.399823      -255.7822
  21   2.0000      -9.399818      -255.7821
  22   2.0000      -9.392423      -255.5808
  23   2.0000      -9.392244      -255.5760
  24   2.0000      -7.147707      -194.4990
  25   2.0000      -7.147646      -194.4973
  26   2.0000      -7.146349      -194.4621
  27   2.0000      -7.146328      -194.4615
  28   2.0000      -7.138835      -194.2576
  29   2.0000      -7.138681      -194.2534
  30   2.0000      -7.137353      -194.2172
  31   2.0000      -7.137326      -194.2165
  32   2.0000      -7.136263      -194.1876
  33   2.0000      -7.136204      -194.1860
  34   2.0000      -7.136164      -194.1849
  35   2.0000      -7.136086      -194.1828
  36   2.0000      -7.135299      -194.1614
  37   2.0000      -7.135132      -194.1568
  38   2.0000      -7.128750      -193.9832
  39   2.0000      -7.128530      -193.9772
  40   2.0000      -7.127928      -193.9608
  41   2.0000      -7.127775      -193.9566
  42   2.0000      -0.930452       -25.3189
  43   2.0000      -0.903237       -24.5783
  44   2.0000      -0.884801       -24.0767
  45   2.0000      -0.865418       -23.5492
  46   2.0000      -0.839929       -22.8556
  47   2.0000      -0.835789       -22.7430
  48   2.0000      -0.828849       -22.5541
  49   2.0000      -0.809760       -22.0347
  50   2.0000      -0.755473       -20.5575
  51   2.0000      -0.732350       -19.9282
  52   2.0000      -0.717594       -19.5267
  53   2.0000      -0.700665       -19.0661
  54   2.0000      -0.627687       -17.0802
  55   2.0000      -0.611861       -16.6496
  56   2.0000      -0.602133       -16.3849
  57   2.0000      -0.574392       -15.6300
  58   2.0000      -0.521118       -14.1804
  59   2.0000      -0.514893       -14.0109
  60   2.0000      -0.495680       -13.4881
  61   2.0000      -0.478870       -13.0307
  62   2.0000      -0.469932       -12.7875
  63   2.0000      -0.454514       -12.3679
  64   2.0000      -0.443487       -12.0679
  65   2.0000      -0.437379       -11.9017
  66   2.0000      -0.435549       -11.8519
  67   2.0000      -0.427150       -11.6233
  68   2.0000      -0.412083       -11.2133
  69   2.0000      -0.407226       -11.0812
  70   2.0000      -0.394556       -10.7364
  71   2.0000      -0.379270       -10.3205
  72   2.0000      -0.371235       -10.1018
  73   2.0000      -0.365805        -9.9541
  74   2.0000      -0.354785        -9.6542
  75   2.0000      -0.336777        -9.1642
  76   2.0000      -0.334108        -9.0916
  77   2.0000      -0.327457        -8.9106
  78   2.0000      -0.324596        -8.8327
  79   2.0000      -0.318413        -8.6645
  80   2.0000      -0.311745        -8.4830
  81   2.0000      -0.307033        -8.3548
  82   2.0000      -0.303343        -8.2544
  83   2.0000      -0.289968        -7.8904
  84   2.0000      -0.284491        -7.7414
  85   2.0000      -0.263442        -7.1686
  86   2.0000      -0.253003        -6.8846
  87   2.0000      -0.245548        -6.6817
  88   2.0000      -0.232701        -6.3321
  89   0.0000      -0.089970        -2.4482
  90   0.0000      -0.076733        -2.0880
  91   0.0000      -0.066128        -1.7994
  92   0.0000      -0.057391        -1.5617
  93   0.0000      -0.048746        -1.3265

MULLIKEN ATOMIC CHARGES
-----------------------
   0 C :   -0.154748
   1 C :   -0.232052
   2 C :    0.150189
   3 C :    0.073123
   4 C :   -0.248269
   5 C :    0.148207
   6 C :    0.179706
   7 C :   -0.320499
   8 C :    0.115800
   9 C :    0.076497
  10 C :    0.034677
  11 C :   -0.016041
  12 Cl:   -0.065002
  13 Cl:   -0.061470
  14 Cl:   -0.060331
  15 Cl:   -0.088577
  16 Cl:   -0.103116
  17 Cl:   -0.100489
  18 H :    0.163624
  19 H :    0.164001
  20 H :    0.170799
  21 H :    0.173969
Sum of atomic charges:    0.0000000

LOEWDIN ATOMIC CHARGES
----------------------
   0 C :   -0.136970
   1 C :   -0.155559
   2 C :   -0.181803
   3 C :   -0.180237
   4 C :   -0.142645
   5 C :   -0.075126
   6 C :   -0.069812
   7 C :   -0.142817
   8 C :   -0.180173
   9 C :   -0.196910
  10 C :   -0.190164
  11 C :   -0.164889
  12 Cl:    0.195233
  13 Cl:    0.189573
  14 Cl:    0.189485
  15 Cl:    0.173600
  16 Cl:    0.161082
  17 Cl:    0.163131
  18 H :    0.181366
  19 H :    0.183004
  20 H :    0.188543
  21 H :    0.192091

  Mayer bond orders larger than 0.100000
B(  0-C ,  1-C ) :   1.4068 B(  0-C ,  5-C ) :   1.3662 B(  0-C , 18-H ) :   0.9367
B(  1-C ,  2-C ) :   1.3308 B(  1-C , 19-H ) :   0.9462 B(  2-C ,  3-C ) :   1.2910
B(  2-C , 17-Cl) :   1.0512 B(  3-C ,  4-C ) :   1.3376 B(  3-C , 16-Cl) :   1.0644
B(  4-C ,  5-C ) :   1.3803 B(  4-C , 20-H ) :   0.9344 B(  5-C ,  6-C ) :   0.7694
B(  6-C ,  7-C ) :   1.3629 B(  6-C , 11-C ) :   1.2480 B(  7-C ,  8-C ) :   1.3149
B(  7-C , 21-H ) :   0.9268 B(  8-C ,  9-C ) :   1.2132 B(  8-C , 15-Cl) :   1.0827
B(  9-C , 10-C ) :   1.0954 B(  9-C , 14-Cl) :   1.2497 B( 10-C , 11-C ) :   1.0975
B( 10-C , 13-Cl) :   1.2708 B( 11-C , 12-Cl) :   1.2881

Dispersion correction           -0.014302756
FINAL SINGLE POINT ENERGY     -3220.642103113231

DIPOLE MOMENT
-------------

Method             : SCF
Type of density    : Electron Density
Multiplicity       :   1
Irrep              :   0
Energy             : -3220.6400219282882063 Eh
Relativity type    :
Basis              : AO
                                X                 Y                 Z
Electronic contribution:     -8.029200537      -0.190681410      -4.034219555
Nuclear contribution   :      8.005250358       0.106630767       4.406223375
                        -----------------------------------------
Total Dipole Moment    :     -0.023950179      -0.084050643       0.372003819
                        -----------------------------------------
Magnitude (a.u.)       :      0.382132128
Magnitude (Debye)      :      0.971302679

Rotational constants in cm-1:             0.014863             0.003878             0.003254
Rotational constants in MHz :           445.589713           116.258738            97.545446

                             ****ORCA TERMINATED NORMALLY****
TOTAL RUN TIME: 0 days 0 hours 1 minutes 20 seconds 415 msec
