                         Program Version 6.0.1  -  RELEASE   -
|  1> ! r2scan-3c def2/J RI DEFGRID2 scfconv6 printgap
|  2> %output
|  3>     printlevel normal
|  4> end
|  5> * xyz 0 1
|  6> C 2.8258019703 0.679330489 0.2429488401
|  7> C 1.9383707625 -0.470937251 -0.2137192431
|  8> C 0.4639743241 -0.2204561648 -0.0955040326
|  9> C -0.1121607493 1.0386257187 0.0762849981
| 10> N -1.4213789943 1.2070092098 0.1602805829
| 11> C -2.1828678817 0.1272517226 0.0748957264
| 12> C -1.6219130358 -1.131170095 -0.0928444075
| 13> N -0.3135369367 -1.298677858 -0.1753185986
| 14> H 3.8686438564 0.3730251024 0.2078854805
| 15> H 2.5885693808 0.9681745152 1.2644487545
| 16> H 2.7082269286 1.5466323278 -0.4024213433
| 17> H 2.1631794722 -1.3725895839 0.3606017893
| 18> H 2.1514687351 -0.7061519437 -1.2609712684
| 19> H 0.4784911536 1.9400826914 0.1507763968
| 20> H -3.250352964 0.2823995835 0.1445958766
| 21> H -2.2236953303 -2.027511643 -0.1613362477
| 22> *
| 23>
| 24>                          ****END OF INPUT****

CARTESIAN COORDINATES (ANGSTROEM)
---------------------------------
  C      2.825802    0.679330    0.242949
  C      1.938371   -0.470937   -0.213719
  C      0.463974   -0.220456   -0.095504
  C     -0.112161    1.038626    0.076285
  N     -1.421379    1.207009    0.160281
  C     -2.182868    0.127252    0.074896
  C     -1.621913   -1.131170   -0.092844
  N     -0.313537   -1.298678   -0.175319
  H      3.868644    0.373025    0.207885
  H      2.588569    0.968175    1.264449
  H      2.708227    1.546632   -0.402421
  H      2.163179   -1.372590    0.360602
  H      2.151469   -0.706152   -1.260971
  H      0.478491    1.940083    0.150776
  H     -3.250353    0.282400    0.144596
  H     -2.223695   -2.027512   -0.161336

 Total Charge           Charge          ....    0
 Multiplicity           Mult            ....    1
 Number of Electrons    NEL             ....   58
 Basis Dimension        Dim             ....  202

ORBITAL ENERGIES
----------------

  NO   OCC          E(Eh)            E(eV)
   0   2.0000     -14.172334      -385.6488
   1   2.0000     -14.169927      -385.5833
   2   2.0000     -10.084414      -274.4108
   3   2.0000     -10.076820      -274.2042
   4   2.0000     -10.073904      -274.1249
   5   2.0000     -10.073700      -274.1193
   6   2.0000     -10.042355      -273.2664
   7   2.0000     -10.030989      -272.9571
   8   2.0000      -0.954609       -25.9762
   9   2.0000      -0.879649       -23.9365
  10   2.0000      -0.777902       -21.1678
  11   2.0000      -0.720062       -19.5939
  12   2.0000      -0.642796       -17.4914
  13   2.0000      -0.623976       -16.9792
  14   2.0000      -0.577561       -15.7162
  15   2.0000      -0.492111       -13.3910
  16   2.0000      -0.488482       -13.2923
  17   2.0000      -0.444383       -12.0923
  18   2.0000      -0.436490       -11.8775
  19   2.0000      -0.414427       -11.2771
  20   2.0000      -0.395439       -10.7604
  21   2.0000      -0.374858       -10.2004
  22   2.0000      -0.344742        -9.3809
  23   2.0000      -0.335692        -9.1346
  24   2.0000      -0.333586        -9.0773
  25   2.0000      -0.304855        -8.2955
  26   2.0000      -0.273391        -7.4393
  27   2.0000      -0.250884        -6.8269
  28   2.0000      -0.214241        -5.8298
  29   0.0000      -0.077746        -2.1156
  30   0.0000      -0.047556        -1.2941
  31   0.0000       0.077235         2.1017
  32   0.0000       0.091750         2.4966
  33   0.0000       0.099948         2.7197

MULLIKEN ATOMIC CHARGES
-----------------------
   0 C :   -0.484914
   1 C :   -0.362547
   2 C :    0.311795
   3 C :   -0.231830
   4 N :   -0.147700
   5 C :   -0.067805
   6 C :   -0.057647
   7 N :   -0.174465
   8 H :    0.154141
   9 H :    0.161777
  10 H :    0.146176
  11 H :    0.171851
  12 H :    0.170094
  13 H :    0.138581
  14 H :    0.135486
  15 H :    0.137007
Sum of atomic charges:    0.0000000

LOEWDIN ATOMIC CHARGES
----------------------
   0 C :   -0.417792
   1 C :   -0.257008
   2 C :    0.151561
   3 C :    0.098189
   4 N :   -0.570441
   5 C :    0.086919
   6 C :    0.101333
   7 N :   -0.572176
   8 H :    0.155641
   9 H :    0.155555
  10 H :    0.151818
  11 H :    0.177392
  12 H :    0.174904
  13 H :    0.190834
  14 H :    0.186635
  15 H :    0.186638

  Mayer bond orders larger than 0.100000
B(  0-C ,  1-C ) :   0.8447 B(  0-C ,  8-H ) :   0.9687 B(  0-C ,  9-H ) :   0.9898
B(  0-C , 10-H ) :   0.9671 B(  1-C ,  2-C ) :   0.9434 B(  1-C , 11-H ) :   0.9938
B(  1-C , 12-H ) :   0.9353 B(  2-C ,  3-C ) :   1.3175 B(  2-C ,  7-N ) :   1.2478
B(  3-C ,  4-N ) :   1.4624 B(  3-C ,  6-C ) :   0.1154 B(  3-C , 13-H ) :   0.9725
B(  4-N ,  5-C ) :   1.4426 B(  5-C ,  6-C ) :   1.2920 B(  5-C , 14-H ) :   0.9714
B(  6-C ,  7-N ) :   1.4591 B(  6-C , 15-H ) :   0.9662

Dispersion correction           -0.004842660
FINAL SINGLE POINT ENERGY      -342.850658866994

DIPOLE MOMENT
-------------

Method             : SCF
Type of density    : Electron Density
Multiplicity       :   1
Irrep              :   0
Energy             :  -342.8557798351655492 Eh
Relativity type    :
Basis              : AO
                                X                 Y                 Z
Electronic contribution:     -7.641627931      -1.029196846      -0.316768308
Nuclear contribution   :      7.950410729       0.941476543       0.284726464
                        -----------------------------------------
Total Dipole Moment    :      0.308782798      -0.087720304      -0.032041844
                        -----------------------------------------
Magnitude (a.u.)       :      0.322596261
Magnitude (Debye)      :      0.819974532

Rotational constants in cm-1:             0.168918             0.052308             0.040719
Rotational constants in MHz :          5064.036228          1568.152039          1220.729451

                             ****ORCA TERMINATED NORMALLY****
TOTAL RUN TIME: 0 days 0 hours 0 minutes 22 seconds 509 msec
