                         Program Version 6.0.1  -  RELEASE   -
|  1> ! r2scan-3c def2/J RI DEFGRID2 scfconv6 printgap
|  2> %output
|  3>     printlevel normal
|  4> end
|  5> * xyz 0 1
|  6> C 1.5698022286 -0.350898119 1.9147617683
|  7> C 2.9391960806 -0.4710416142 2.0525436609
|  8> C 3.7659101628 -0.2448916523 0.9621627132
|  9> C 3.2209176924 0.1145086523 -0.2698695644
| 10> C 1.8381678731 0.2313604066 -0.3973497477
| 11> C 1.0022612075 -0.0116866024 0.6922787301
| 12> C -0.465246693 0.0968720775 0.5523586698
| 13> C -1.1556651696 1.0949297679 1.2261041813
| 14> C -2.5292669749 1.2172815754 1.0938219977
| 15> C -3.2393269192 0.3327325641 0.2828449223
| 16> C -2.5556267629 -0.683916138 -0.3839755888
| 17> C -1.1737246441 -0.8016413364 -0.2459179578
| 18> Cl -0.3518883814 -2.0860154983 -1.0336939913
| 19> Cl -3.4195306037 -1.7887821184 -1.3678398305
| 20> Cl -4.9371205485 0.4818909456 0.109035358
| 21> Cl -3.3600505306 2.4636212041 1.930682166
| 22> Cl 1.1659848888 0.7195125965 -1.9012477995
| 23> Cl 4.2402229261 0.4157689954 -1.6168427145
| 24> Cl 5.467644076 -0.398011373 1.1296301343
| 25> H 0.9229033912 -0.5338806482 2.7580651038
| 26> H 3.3755931539 -0.7418373474 3.0001728696
| 27> H -0.6147143178 1.790096317 1.8477906277
| 28> *
| 29>
| 30>                          ****END OF INPUT****

CARTESIAN COORDINATES (ANGSTROEM)
---------------------------------
  C      1.569802   -0.350898    1.914762
  C      2.939196   -0.471042    2.052544
  C      3.765910   -0.244892    0.962163
  C      3.220918    0.114509   -0.269870
  C      1.838168    0.231360   -0.397350
  C      1.002261   -0.011687    0.692279
  C     -0.465247    0.096872    0.552359
  C     -1.155665    1.094930    1.226104
  C     -2.529267    1.217282    1.093822
  C     -3.239327    0.332733    0.282845
  C     -2.555627   -0.683916   -0.383976
  C     -1.173725   -0.801641   -0.245918
  Cl    -0.351888   -2.086015   -1.033694
  Cl    -3.419531   -1.788782   -1.367840
  Cl    -4.937121    0.481891    0.109035
  Cl    -3.360051    2.463621    1.930682
  Cl     1.165985    0.719513   -1.901248
  Cl     4.240223    0.415769   -1.616843
  Cl     5.467644   -0.398011    1.129630
  H      0.922903   -0.533881    2.758065
  H      3.375593   -0.741837    3.000173
  H     -0.614714    1.790096    1.847791

 Total Charge           Charge          ....    0
 Multiplicity           Mult            ....    1
 Number of Electrons    NEL             ....  194
 Basis Dimension        Dim             ....  432

ORBITAL ENERGIES
----------------

  NO   OCC          E(Eh)            E(eV)
   0   2.0000    -101.244611     -2755.0059
   1   2.0000    -101.244184     -2754.9943
   2   2.0000    -101.243548     -2754.9770
   3   2.0000    -101.241537     -2754.9223
   4   2.0000    -101.241235     -2754.9140
   5   2.0000    -101.241080     -2754.9098
   6   2.0000    -101.240657     -2754.8983
   7   2.0000     -10.139132      -275.8998
   8   2.0000     -10.138372      -275.8791
   9   2.0000     -10.134045      -275.7614
  10   2.0000     -10.134006      -275.7603
  11   2.0000     -10.133961      -275.7591
  12   2.0000     -10.133341      -275.7422
  13   2.0000     -10.131942      -275.7042
  14   2.0000     -10.094141      -274.6756
  15   2.0000     -10.089855      -274.5589
  16   2.0000     -10.080467      -274.3034
  17   2.0000     -10.075321      -274.1634
  18   2.0000     -10.074617      -274.1443
  19   2.0000      -9.400414      -255.7983
  20   2.0000      -9.400009      -255.7872
  21   2.0000      -9.399457      -255.7722
  22   2.0000      -9.397510      -255.7192
  23   2.0000      -9.397184      -255.7104
  24   2.0000      -9.396886      -255.7023
  25   2.0000      -9.396636      -255.6955
  26   2.0000      -7.147092      -194.4822
  27   2.0000      -7.146676      -194.4709
  28   2.0000      -7.145958      -194.4514
  29   2.0000      -7.144069      -194.4000
  30   2.0000      -7.143646      -194.3885
  31   2.0000      -7.143529      -194.3853
  32   2.0000      -7.143158      -194.3752
  33   2.0000      -7.136743      -194.2007
  34   2.0000      -7.136348      -194.1899
  35   2.0000      -7.135718      -194.1728
  36   2.0000      -7.135650      -194.1709
  37   2.0000      -7.135240      -194.1598
  38   2.0000      -7.134936      -194.1515
  39   2.0000      -7.133766      -194.1197
  40   2.0000      -7.133491      -194.1122
  41   2.0000      -7.133222      -194.1048
  42   2.0000      -7.132921      -194.0967
  43   2.0000      -7.132899      -194.0960
  44   2.0000      -7.132649      -194.0893
  45   2.0000      -7.132152      -194.0757
  46   2.0000      -7.132037      -194.0726
  47   2.0000      -0.931139       -25.3376
  48   2.0000      -0.918888       -25.0042
  49   2.0000      -0.884777       -24.0760
  50   2.0000      -0.871637       -23.7185
  51   2.0000      -0.859834       -23.3973
  52   2.0000      -0.841734       -22.9048
  53   2.0000      -0.829808       -22.5802
  54   2.0000      -0.822018       -22.3682
  55   2.0000      -0.808931       -22.0121
  56   2.0000      -0.754378       -20.5277
  57   2.0000      -0.726014       -19.7559
  58   2.0000      -0.717625       -19.5276
  59   2.0000      -0.701560       -19.0904
  60   2.0000      -0.627710       -17.0809
  61   2.0000      -0.609693       -16.5906
  62   2.0000      -0.600847       -16.3499
  63   2.0000      -0.580245       -15.7893
  64   2.0000      -0.522746       -14.2246
  65   2.0000      -0.515616       -14.0306
  66   2.0000      -0.499468       -13.5912
  67   2.0000      -0.494187       -13.4475
  68   2.0000      -0.470491       -12.8027
  69   2.0000      -0.456939       -12.4340
  70   2.0000      -0.443045       -12.0559
  71   2.0000      -0.440281       -11.9807
  72   2.0000      -0.437574       -11.9070
  73   2.0000      -0.434536       -11.8243
  74   2.0000      -0.426066       -11.5939
  75   2.0000      -0.411402       -11.1948
  76   2.0000      -0.395641       -10.7659
  77   2.0000      -0.385303       -10.4846
  78   2.0000      -0.378712       -10.3053
  79   2.0000      -0.376259       -10.2385
  80   2.0000      -0.361875        -9.8471
  81   2.0000      -0.353888        -9.6298
  82   2.0000      -0.338264        -9.2046
  83   2.0000      -0.328008        -8.9256
  84   2.0000      -0.324029        -8.8173
  85   2.0000      -0.320832        -8.7303
  86   2.0000      -0.317097        -8.6287
  87   2.0000      -0.315946        -8.5973
  88   2.0000      -0.308801        -8.4029
  89   2.0000      -0.306259        -8.3337
  90   2.0000      -0.301676        -8.2090
  91   2.0000      -0.285749        -7.7756
  92   2.0000      -0.283785        -7.7222
  93   2.0000      -0.256897        -6.9905
  94   2.0000      -0.249398        -6.7865
  95   2.0000      -0.245400        -6.6777
  96   2.0000      -0.238575        -6.4920
  97   0.0000      -0.086900        -2.3647
  98   0.0000      -0.078333        -2.1316
  99   0.0000      -0.068595        -1.8666
 100   0.0000      -0.060954        -1.6586
 101   0.0000      -0.057827        -1.5735

MULLIKEN ATOMIC CHARGES
-----------------------
   0 C :   -0.164271
   1 C :   -0.255149
   2 C :    0.167008
   3 C :   -0.010981
   4 C :    0.052665
   5 C :    0.120083
   6 C :    0.136259
   7 C :   -0.317063
   8 C :    0.120468
   9 C :    0.073696
  10 C :    0.023357
  11 C :    0.046642
  12 Cl:   -0.062000
  13 Cl:   -0.059761
  14 Cl:   -0.060817
  15 Cl:   -0.088977
  16 Cl:   -0.065499
  17 Cl:   -0.066916
  18 Cl:   -0.090573
  19 H :    0.162416
  20 H :    0.165122
  21 H :    0.174290
Sum of atomic charges:   -0.0000000

LOEWDIN ATOMIC CHARGES
----------------------
   0 C :   -0.125579
   1 C :   -0.159972
   2 C :   -0.177999
   3 C :   -0.194681
   4 C :   -0.163164
   5 C :   -0.091391
   6 C :   -0.084205
   7 C :   -0.139038
   8 C :   -0.180802
   9 C :   -0.195228
  10 C :   -0.190054
  11 C :   -0.170539
  12 Cl:    0.202182
  13 Cl:    0.191551
  14 Cl:    0.189761
  15 Cl:    0.173414
  16 Cl:    0.200860
  17 Cl:    0.184379
  18 Cl:    0.171120
  19 H :    0.183613
  20 H :    0.183884
  21 H :    0.191889

  Mayer bond orders larger than 0.100000
B(  0-C ,  1-C ) :   1.3637 B(  0-C ,  5-C ) :   1.4050 B(  0-C , 19-H ) :   0.9371
B(  1-C ,  2-C ) :   1.3514 B(  1-C , 20-H ) :   0.9430 B(  2-C ,  3-C ) :   1.2230
B(  2-C , 18-Cl) :   1.0677 B(  3-C ,  4-C ) :   1.0881 B(  3-C , 17-Cl) :   1.2566
B(  4-C ,  5-C ) :   1.2933 B(  4-C , 16-Cl) :   1.2562 B(  5-C ,  6-C ) :   0.7805
B(  5-C , 11-C ) :  -0.1063 B(  6-C ,  7-C ) :   1.3869 B(  6-C , 11-C ) :   1.2680
B(  7-C ,  8-C ) :   1.3094 B(  7-C , 21-H ) :   0.9276 B(  8-C ,  9-C ) :   1.2236
B(  8-C , 15-Cl) :   1.0783 B(  9-C , 10-C ) :   1.0994 B(  9-C , 14-Cl) :   1.2472
B( 10-C , 11-C ) :   1.0777 B( 10-C , 13-Cl) :   1.2841 B( 11-C , 12-Cl) :   1.2707

Dispersion correction           -0.015843935
FINAL SINGLE POINT ENERGY     -3680.216825676791

DIPOLE MOMENT
-------------

Method             : SCF
Type of density    : Electron Density
Multiplicity       :   1
Irrep              :   0
Energy             : -3680.2143222378440441 Eh
Relativity type    :
Basis              : AO
                                X                 Y                 Z
Electronic contribution:     -4.916624610      -0.728319753      -9.991056176
Nuclear contribution   :      5.059630215       0.740302763      10.827251156
                        -----------------------------------------
Total Dipole Moment    :      0.143005605       0.011983010       0.836194980
                        -----------------------------------------
Magnitude (a.u.)       :      0.848419848
Magnitude (Debye)      :      2.156511874

Rotational constants in cm-1:             0.013553             0.003657             0.003284
Rotational constants in MHz :           406.296492           109.626834            98.439599

                             ****ORCA TERMINATED NORMALLY****
TOTAL RUN TIME: 0 days 0 hours 1 minutes 2 seconds 210 msec
