                         Program Version 6.0.1  -  RELEASE   -
|  1> ! pbe def2-sv(p) def2/J RI DEFGRID1 loosescf d4 GCP(DFT/SV(P)) printgap
|  2> %output
|  3>     printlevel normal
|  4> end
|  5> * xyz 0 1
|  6> C 2.3023842121 2.7575580218 0.9739266557
|  7> C 2.265451828 1.749601609 -0.1737414921
|  8> C 3.0916265898 0.4785092857 0.1493896802
|  9> C 2.0539837894 -0.6032696655 0.1423032111
| 10> C 2.1543582671 -1.958162867 0.3704091891
| 11> C 1.0026339213 -2.728599459 0.2993412274
| 12> C -0.2211583522 -2.1529135842 0.0030553175
| 13> C -0.3281634286 -0.7862967231 -0.2213377235
| 14> C 0.8257710567 -0.0144255832 -0.1466514955
| 15> O 0.8947467945 1.3213712627 -0.3375807405
| 16> O -1.5199142029 -0.1641108238 -0.5659868579
| 17> C -2.6464002003 -0.4444633846 0.1431388954
| 18> O -2.7161301027 -1.1864525007 1.0878714698
| 19> N -3.6784098743 0.2460995717 -0.3886891482
| 20> C -5.002960629 0.2138959974 0.175182868
| 21> C 2.7088857181 2.3986055509 -1.4838914888
| 22> H 1.6520839532 3.5985436459 0.747521996
| 23> H 1.9524361866 2.2886141645 1.8908524046
| 24> H 3.3157700947 3.1212906735 1.122230113
| 25> H 3.861036365 0.3003573539 -0.6041469889
| 26> H 3.5822008354 0.5577677223 1.1211073307
| 27> H 3.1083204598 -2.4076479069 0.6001612154
| 28> H 1.0566052974 -3.7916627223 0.4746632751
| 29> H -1.1101693611 -2.760595887 -0.0433016128
| 30> H -3.4820977944 0.8684276305 -1.1556768133
| 31> H -5.7301465371 -0.1109882017 -0.5713028905
| 32> H -5.2922681362 1.1967034182 0.553672527
| 33> H -4.98795947 -0.4977284146 0.9988881952
| 34> H 3.7321255099 2.754903261 -1.3989180581
| 35> H 2.0585232326 3.2372297687 -1.718572541
| 36> H 2.6471817652 1.6770623 -2.2955188365
| 37> *
| 38>
| 39>                          ****END OF INPUT****

CARTESIAN COORDINATES (ANGSTROEM)
---------------------------------
  C      2.302384    2.757558    0.973927
  C      2.265452    1.749602   -0.173741
  C      3.091627    0.478509    0.149390
  C      2.053984   -0.603270    0.142303
  C      2.154358   -1.958163    0.370409
  C      1.002634   -2.728599    0.299341
  C     -0.221158   -2.152914    0.003055
  C     -0.328163   -0.786297   -0.221338
  C      0.825771   -0.014426   -0.146651
  O      0.894747    1.321371   -0.337581
  O     -1.519914   -0.164111   -0.565987
  C     -2.646400   -0.444463    0.143139
  O     -2.716130   -1.186453    1.087871
  N     -3.678410    0.246100   -0.388689
  C     -5.002961    0.213896    0.175183
  C      2.708886    2.398606   -1.483891
  H      1.652084    3.598544    0.747522
  H      1.952436    2.288614    1.890852
  H      3.315770    3.121291    1.122230
  H      3.861036    0.300357   -0.604147
  H      3.582201    0.557768    1.121107
  H      3.108320   -2.407648    0.600161
  H      1.056605   -3.791663    0.474663
  H     -1.110169   -2.760596   -0.043302
  H     -3.482098    0.868428   -1.155677
  H     -5.730147   -0.110988   -0.571303
  H     -5.292268    1.196703    0.553673
  H     -4.987959   -0.497728    0.998888
  H      3.732126    2.754903   -1.398918
  H      2.058523    3.237230   -1.718573
  H      2.647182    1.677062   -2.295519

 Total Charge           Charge          ....    0
 Multiplicity           Mult            ....    1
 Number of Electrons    NEL             ....  118
 Basis Dimension        Dim             ....  254

ORBITAL ENERGIES
----------------

  NO   OCC          E(Eh)            E(eV)
   0   2.0000     -18.799896      -511.5712
   1   2.0000     -18.781229      -511.0632
   2   2.0000     -18.714691      -509.2526
   3   2.0000     -14.017997      -381.4491
   4   2.0000     -10.021014      -272.6857
   5   2.0000      -9.961825      -271.0751
   6   2.0000      -9.944951      -270.6159
   7   2.0000      -9.940336      -270.4903
   8   2.0000      -9.919039      -269.9108
   9   2.0000      -9.897588      -269.3271
  10   2.0000      -9.892982      -269.2017
  11   2.0000      -9.886445      -269.0238
  12   2.0000      -9.883530      -268.9445
  13   2.0000      -9.882506      -268.9166
  14   2.0000      -9.881895      -268.9000
  15   2.0000      -9.881559      -268.8909
  16   2.0000      -1.007861       -27.4253
  17   2.0000      -0.975279       -26.5387
  18   2.0000      -0.914790       -24.8927
  19   2.0000      -0.841587       -22.9008
  20   2.0000      -0.769966       -20.9518
  21   2.0000      -0.735876       -20.0242
  22   2.0000      -0.691010       -18.8033
  23   2.0000      -0.674586       -18.3564
  24   2.0000      -0.635069       -17.2811
  25   2.0000      -0.626706       -17.0535
  26   2.0000      -0.614191       -16.7130
  27   2.0000      -0.567291       -15.4368
  28   2.0000      -0.549477       -14.9520
  29   2.0000      -0.527265       -14.3476
  30   2.0000      -0.511747       -13.9253
  31   2.0000      -0.495941       -13.4952
  32   2.0000      -0.454974       -12.3805
  33   2.0000      -0.432653       -11.7731
  34   2.0000      -0.429150       -11.6778
  35   2.0000      -0.426639       -11.6094
  36   2.0000      -0.421505       -11.4697
  37   2.0000      -0.413841       -11.2612
  38   2.0000      -0.393828       -10.7166
  39   2.0000      -0.387743       -10.5510
  40   2.0000      -0.375896       -10.2286
  41   2.0000      -0.370822       -10.0906
  42   2.0000      -0.363930        -9.9030
  43   2.0000      -0.357717        -9.7340
  44   2.0000      -0.352609        -9.5950
  45   2.0000      -0.345940        -9.4135
  46   2.0000      -0.339586        -9.2406
  47   2.0000      -0.333183        -9.0664
  48   2.0000      -0.323898        -8.8137
  49   2.0000      -0.317706        -8.6452
  50   2.0000      -0.312979        -8.5166
  51   2.0000      -0.301292        -8.1986
  52   2.0000      -0.284217        -7.7339
  53   2.0000      -0.274082        -7.4582
  54   2.0000      -0.267068        -7.2673
  55   2.0000      -0.222372        -6.0510
  56   2.0000      -0.216574        -5.8933
  57   2.0000      -0.205721        -5.5980
  58   2.0000      -0.179049        -4.8722
  59   0.0000      -0.028832        -0.7845
  60   0.0000      -0.011388        -0.3099
  61   0.0000       0.029731         0.8090
  62   0.0000       0.031335         0.8527
  63   0.0000       0.040599         1.1048

MULLIKEN ATOMIC CHARGES
-----------------------
   0 C :   -0.200052
   1 C :   -0.082229
   2 C :   -0.005706
   3 C :   -0.051954
   4 C :   -0.147910
   5 C :   -0.055757
   6 C :   -0.130942
   7 C :    0.148155
   8 C :    0.180297
   9 O :   -0.249615
  10 O :   -0.247306
  11 C :    0.191267
  12 O :   -0.217571
  13 N :   -0.291425
  14 C :   -0.178209
  15 C :   -0.200244
  16 H :    0.106365
  17 H :    0.108887
  18 H :    0.102217
  19 H :    0.089883
  20 H :    0.091040
  21 H :    0.028868
  22 H :    0.048086
  23 H :    0.050785
  24 H :    0.232144
  25 H :    0.113146
  26 H :    0.113515
  27 H :    0.138703
  28 H :    0.102601
  29 H :    0.106394
  30 H :    0.106564
Sum of atomic charges:    0.0000000

LOEWDIN ATOMIC CHARGES
----------------------
   0 C :   -0.327587
   1 C :    0.015874
   2 C :   -0.198944
   3 C :   -0.071561
   4 C :   -0.130176
   5 C :   -0.139839
   6 C :   -0.129757
   7 C :    0.010220
   8 C :    0.021235
   9 O :   -0.070793
  10 O :   -0.055609
  11 C :    0.031542
  12 O :   -0.187586
  13 N :   -0.177361
  14 C :   -0.258826
  15 C :   -0.327643
  16 H :    0.124428
  17 H :    0.125561
  18 H :    0.123952
  19 H :    0.130441
  20 H :    0.130895
  21 H :    0.122360
  22 H :    0.123355
  23 H :    0.135369
  24 H :    0.237011
  25 H :    0.116417
  26 H :    0.116009
  27 H :    0.138046
  28 H :    0.124122
  29 H :    0.124403
  30 H :    0.124441

  Mayer bond orders larger than 0.100000
B(  0-C ,  1-C ) :   1.1012 B(  0-C , 16-H ) :   0.9407 B(  0-C , 17-H ) :   0.9382
B(  0-C , 18-H ) :   0.9407 B(  1-C ,  2-C ) :   1.0557 B(  1-C ,  9-O ) :   0.9441
B(  1-C , 15-C ) :   1.1003 B(  2-C ,  3-C ) :   1.0680 B(  2-C , 19-H ) :   0.8798
B(  2-C , 20-H ) :   0.8802 B(  3-C ,  4-C ) :   1.3837 B(  3-C ,  8-C ) :   1.3465
B(  4-C ,  5-C ) :   1.3060 B(  4-C , 21-H ) :   0.9847 B(  5-C ,  6-C ) :   1.3354
B(  5-C , 22-H ) :   0.9640 B(  6-C ,  7-C ) :   1.3765 B(  6-C , 23-H ) :   0.9680
B(  7-C ,  8-C ) :   1.3695 B(  7-C , 10-O ) :   1.0231 B(  8-C ,  9-O ) :   1.1495
B( 10-O , 11-C ) :   1.0764 B( 11-C , 12-O ) :   2.0378 B( 11-C , 13-N ) :   1.2153
B( 13-N , 14-C ) :   1.0280 B( 13-N , 24-H ) :   0.8606 B( 14-C , 25-H ) :   0.9584
B( 14-C , 26-H ) :   0.9581 B( 14-C , 27-H ) :   0.9369 B( 15-C , 28-H ) :   0.9409
B( 15-C , 29-H ) :   0.9410 B( 15-C , 30-H ) :   0.9383

Dispersion correction           -0.035415956
FINAL SINGLE POINT ENERGY      -745.175118590812

DIPOLE MOMENT
-------------

Method             : SCF
Type of density    : Electron Density
Multiplicity       :   1
Irrep              :   0
Energy             :  -745.2774629244945572 Eh
Relativity type    :
Basis              : AO
                                X                 Y                 Z
Electronic contribution:     -5.687840661      -8.510276554      -0.329749085
Nuclear contribution   :      5.900492560       9.412899464      -0.260533392
                        -----------------------------------------
Total Dipole Moment    :      0.212651899       0.902622910      -0.590282477
                        -----------------------------------------
Magnitude (a.u.)       :      1.099264459
Magnitude (Debye)      :      2.794108202

Rotational constants in cm-1:             0.029500             0.011082             0.008745
Rotational constants in MHz :           884.397649           332.238876           262.175585

                             ****ORCA TERMINATED NORMALLY****
TOTAL RUN TIME: 0 days 0 hours 0 minutes 26 seconds 382 msec
