                         Program Version 6.0.0  -   RELEASE  -
|  1> ! r2SCAN-3c DEF2-TZVP FREQ
|  2> * xyzfile 0 1 censo.xyz
|  3>
|  4>                          ****END OF INPUT****

CARTESIAN COORDINATES (ANGSTROEM)
---------------------------------
  C     -2.449905   -0.001026    0.008893
  C     -0.947274   -0.002928   -0.010823
  C     -0.227869   -1.202110   -0.007841
  C      1.165692   -1.201602    0.002232
  C      1.865966    0.002421    0.007658
  C      1.160596    1.204662    0.002160
  C     -0.231752    1.199911   -0.008093
  H     -2.852842   -0.946414   -0.363876
  H     -2.824096    0.138895    1.030248
  H     -2.852817    0.815205   -0.597855
  H     -0.767065   -2.145824   -0.015406
  H      1.704933   -2.144284    0.001890
  H      2.951489    0.004674    0.012281
  H      1.696635    2.149178    0.001880
  H     -0.774937    2.141508   -0.015559

 Total Charge           Charge          ....    0
 Multiplicity           Mult            ....    1
 Number of Electrons    NEL             ....   50
 Basis Dimension        Dim             ....  265

ORBITAL ENERGIES
----------------

  NO   OCC          E(Eh)            E(eV)
   0   2.0000     -10.046134      -273.3692
   1   2.0000     -10.034217      -273.0449
   2   2.0000     -10.034098      -273.0417
   3   2.0000     -10.032117      -272.9878
   4   2.0000     -10.032019      -272.9851
   5   2.0000     -10.031630      -272.9745
   6   2.0000     -10.029271      -272.9103
   7   2.0000      -0.820909       -22.3381
   8   2.0000      -0.738116       -20.0851
   9   2.0000      -0.709799       -19.3146
  10   2.0000      -0.651655       -17.7324
  11   2.0000      -0.571294       -15.5457
  12   2.0000      -0.550153       -14.9704
  13   2.0000      -0.477294       -12.9878
  14   2.0000      -0.426780       -11.6133
  15   2.0000      -0.421546       -11.4708
  16   2.0000      -0.391395       -10.6504
  17   2.0000      -0.385504       -10.4901
  18   2.0000      -0.375754       -10.2248
  19   2.0000      -0.353906        -9.6303
  20   2.0000      -0.329934        -8.9780
  21   2.0000      -0.309812        -8.4304
  22   2.0000      -0.305728        -8.3193
  23   2.0000      -0.234092        -6.3700
  24   2.0000      -0.224475        -6.1083
  25   0.0000      -0.033036        -0.8989
  26   0.0000      -0.029361        -0.7990
  27   0.0000       0.056004         1.5239
  28   0.0000       0.072681         1.9778
  29   0.0000       0.092300         2.5116

MULLIKEN ATOMIC CHARGES
-----------------------
   0 C :   -0.344711
   1 C :    0.185244
   2 C :   -0.199142
   3 C :   -0.083280
   4 C :   -0.138001
   5 C :   -0.083787
   6 C :   -0.201516
   7 H :    0.110895
   8 H :    0.120954
   9 H :    0.114149
  10 H :    0.098962
  11 H :    0.106553
  12 H :    0.107099
  13 H :    0.106402
  14 H :    0.100178
Sum of atomic charges:   -0.0000000

LOEWDIN ATOMIC CHARGES
----------------------
   0 C :   -0.254626
   1 C :   -0.172850
   2 C :   -0.120554
   3 C :   -0.141369
   4 C :   -0.148577
   5 C :   -0.141428
   6 C :   -0.119069
   7 H :    0.126290
   8 H :    0.131279
   9 H :    0.127717
  10 H :    0.143494
  11 H :    0.142176
  12 H :    0.141361
  13 H :    0.142166
  14 H :    0.143991

  Mayer bond orders larger than 0.100000
B(  0-C ,  1-C ) :   0.9097 B(  0-C ,  7-H ) :   0.9860 B(  0-C ,  8-H ) :   0.9545
B(  0-C ,  9-H ) :   0.9799 B(  1-C ,  2-C ) :   1.3527 B(  1-C ,  6-C ) :   1.3356
B(  2-C ,  3-C ) :   1.4095 B(  2-C , 10-H ) :   0.9775 B(  3-C ,  4-C ) :   1.3936
B(  3-C , 11-H ) :   0.9708 B(  4-C ,  5-C ) :   1.3863 B(  4-C , 12-H ) :   0.9691
B(  5-C ,  6-C ) :   1.4175 B(  5-C , 13-H ) :   0.9708 B(  6-C , 14-H ) :   0.9806

Dispersion correction           -0.004420687
FINAL SINGLE POINT ENERGY      -271.502772347310

DIPOLE MOMENT
-------------

Method             : SCF
Type of density    : Electron Density
Multiplicity       :   1
Irrep              :   0
Energy             :  -271.5024402669250776 Eh
Relativity type    :
Basis              : AO
                                X                 Y                 Z
Electronic contribution:      3.351410404      -0.004409675      -0.035597952
Nuclear contribution   :     -3.511661084       0.011732891       0.051576258
                        -----------------------------------------
Total Dipole Moment    :     -0.160250680       0.007323216       0.015978305
                        -----------------------------------------
Magnitude (a.u.)       :      0.161211713
Magnitude (Debye)      :      0.409767609

VIBRATIONAL FREQUENCIES
-----------------------

Scaling factor for frequencies =  1.000000000  (already applied!)

     0:       0.00 cm**-1
     1:       0.00 cm**-1
     2:       0.00 cm**-1
     3:       0.00 cm**-1
     4:       0.00 cm**-1
     5:       0.00 cm**-1
     6:      86.95 cm**-1
     7:     209.22 cm**-1
     8:     349.78 cm**-1
     9:     413.92 cm**-1
    10:     472.87 cm**-1
    11:     530.37 cm**-1
    12:     638.79 cm**-1
    13:     713.85 cm**-1
    14:     738.46 cm**-1
    15:     801.59 cm**-1
    16:     848.18 cm**-1
    17:     896.19 cm**-1
    18:     951.74 cm**-1
    19:     977.90 cm**-1
    20:     999.98 cm**-1
    21:    1020.87 cm**-1
    22:    1049.18 cm**-1
    23:    1056.15 cm**-1
    24:    1107.67 cm**-1
    25:    1180.01 cm**-1
    26:    1200.54 cm**-1
    27:    1230.13 cm**-1
    28:    1333.31 cm**-1
    29:    1351.04 cm**-1
    30:    1401.12 cm**-1
    31:    1461.32 cm**-1
    32:    1480.91 cm**-1
    33:    1496.49 cm**-1
    34:    1521.73 cm**-1
    35:    1613.24 cm**-1
    36:    1632.14 cm**-1
    37:    3004.80 cm**-1
    38:    3069.68 cm**-1
    39:    3101.76 cm**-1
    40:    3144.24 cm**-1
    41:    3145.76 cm**-1
    42:    3157.96 cm**-1
    43:    3165.66 cm**-1
    44:    3178.20 cm**-1

IR SPECTRUM
-----------

 Mode   freq       eps      Int      T**2         TX        TY        TZ
       cm**-1   L/(mol*cm) km/mol    a.u.
----------------------------------------------------------------------------
  6:     86.95   0.000054    0.27  0.000193  ( 0.000320 -0.012643  0.005755)
  7:    209.22   0.000461    2.33  0.000688  (-0.000798 -0.000440 -0.026208)
  8:    349.78   0.000074    0.37  0.000066  (-0.001024  0.008039 -0.000004)
  9:    413.92   0.000002    0.01  0.000001  ( 0.000121 -0.000892 -0.000570)
 10:    472.87   0.001916    9.68  0.001265  (-0.000754  0.000109  0.035554)
 11:    530.37   0.000100    0.50  0.000059  ( 0.006297  0.000284 -0.004355)
 12:    638.79   0.000020    0.10  0.000010  ( 0.000001  0.003092 -0.000026)
 13:    713.85   0.008264   41.76  0.003613  ( 0.000824  0.000011 -0.060099)
 14:    738.46   0.006228   31.47  0.002632  (-0.001129  0.000034 -0.051288)
 15:    801.59   0.000153    0.77  0.000059  (-0.006291  0.000332  0.004451)
 16:    848.18   0.000004    0.02  0.000002  ( 0.000036 -0.001232 -0.000087)
 17:    896.19   0.000089    0.45  0.000031  ( 0.002434 -0.000033  0.004995)
 18:    951.74   0.000000    0.00  0.000000  ( 0.000077  0.000126  0.000142)
 19:    977.90   0.000006    0.03  0.000002  (-0.001172  0.000024 -0.000746)
 20:    999.98   0.000108    0.55  0.000034  ( 0.005199  0.002573 -0.000234)
 21:   1020.87   0.000061    0.31  0.000019  ( 0.003752 -0.000520 -0.002077)
 22:   1049.18   0.000415    2.10  0.000123  ( 0.010849  0.000131  0.002376)
 23:   1056.15   0.001660    8.39  0.000491  (-0.017245  0.000011  0.013901)
 24:   1107.67   0.001250    6.32  0.000352  (-0.001818  0.018678  0.000017)
 25:   1180.01   0.000019    0.09  0.000005  (-0.000185 -0.002205 -0.000042)
 26:   1200.54   0.000114    0.58  0.000030  (-0.005437  0.000062  0.000137)
 27:   1230.13   0.000352    1.78  0.000089  ( 0.009143 -0.000533 -0.002312)
 28:   1333.31   0.000029    0.14  0.000007  ( 0.002146  0.001445 -0.000018)
 29:   1351.04   0.000001    0.00  0.000000  ( 0.000392  0.000159  0.000024)
 30:   1401.12   0.000329    1.66  0.000073  (-0.008387  0.000562  0.001595)
 31:   1461.32   0.000052    0.26  0.000011  (-0.000502  0.003147 -0.000985)
 32:   1480.91   0.001377    6.96  0.000290  ( 0.000423 -0.001642  0.016947)
 33:   1496.49   0.002726   13.78  0.000568  ( 0.000252  0.023815  0.001124)
 34:   1521.73   0.002721   13.75  0.000558  (-0.023605  0.000106  0.000887)
 35:   1613.24   0.000064    0.32  0.000012  (-0.000447  0.003479  0.000002)
 36:   1632.14   0.001899    9.60  0.000363  (-0.019050  0.000012  0.000515)
 37:   3004.80   0.005703   28.82  0.000592  ( 0.023993 -0.000601 -0.004029)
 38:   3069.68   0.003235   16.35  0.000329  (-0.006747  0.000446 -0.016828)
 39:   3101.76   0.003012   15.22  0.000303  ( 0.002069  0.017282  0.000259)
 40:   3144.24   0.001582    8.00  0.000157  (-0.011817  0.004173 -0.000086)
 41:   3145.76   0.001042    5.26  0.000103  (-0.004975 -0.008865 -0.000035)
 42:   3157.96   0.001354    6.84  0.000134  (-0.011561  0.000365 -0.000205)
 43:   3165.66   0.007092   35.84  0.000699  (-0.000583 -0.026434 -0.000008)
 44:   3178.20   0.002621   13.25  0.000257  ( 0.016042 -0.000208  0.000050)

--------------------------
THERMOCHEMISTRY AT 298.15K
--------------------------

Temperature         ...   298.15 K
Pressure            ...     1.00 atm
Total Mass          ...    92.14 AMU
Quasi RRHO          ...     True
Cut-Off Frequency   ...     1.00 cm^-1

Throughout the following assumptions are being made:
  (1) The electronic state is orbitally nondegenerate
  (2) There are no thermally accessible electronically excited states
  (3) Hindered rotations indicated by low frequency modes are not
      treated as such but are treated as vibrations and this may
      cause some error
  (4) All equations used are the standard statistical mechanics
      equations for an ideal gas
  (5) All vibrations are strictly harmonic

freq.      86.95  E(vib)   ...       0.48
freq.     209.22  E(vib)   ...       0.34
freq.     349.78  E(vib)   ...       0.23
freq.     413.92  E(vib)   ...       0.19
freq.     472.87  E(vib)   ...       0.15
freq.     530.37  E(vib)   ...       0.13
freq.     638.79  E(vib)   ...       0.09
freq.     713.85  E(vib)   ...       0.07
freq.     738.46  E(vib)   ...       0.06
freq.     801.59  E(vib)   ...       0.05
freq.     848.18  E(vib)   ...       0.04
freq.     896.19  E(vib)   ...       0.03
freq.     951.74  E(vib)   ...       0.03
freq.     977.90  E(vib)   ...       0.03
freq.     999.98  E(vib)   ...       0.02
freq.    1020.87  E(vib)   ...       0.02
freq.    1049.18  E(vib)   ...       0.02
freq.    1056.15  E(vib)   ...       0.02
freq.    1107.67  E(vib)   ...       0.02
freq.    1180.01  E(vib)   ...       0.01
freq.    1200.54  E(vib)   ...       0.01
freq.    1230.13  E(vib)   ...       0.01
freq.    1333.31  E(vib)   ...       0.01
freq.    1351.04  E(vib)   ...       0.01
freq.    1401.12  E(vib)   ...       0.00
freq.    1461.32  E(vib)   ...       0.00
freq.    1480.91  E(vib)   ...       0.00
freq.    1496.49  E(vib)   ...       0.00
freq.    1521.73  E(vib)   ...       0.00
freq.    1613.24  E(vib)   ...       0.00
freq.    1632.14  E(vib)   ...       0.00
freq.    3004.80  E(vib)   ...       0.00
freq.    3069.68  E(vib)   ...       0.00
freq.    3101.76  E(vib)   ...       0.00
freq.    3144.24  E(vib)   ...       0.00
freq.    3145.76  E(vib)   ...       0.00
freq.    3157.96  E(vib)   ...       0.00
freq.    3165.66  E(vib)   ...       0.00
freq.    3178.20  E(vib)   ...       0.00

------------
INNER ENERGY
------------

The inner energy is: U= E(el) + E(ZPE) + E(vib) + E(rot) + E(trans)
    E(el)   - is the total energy from the electronic structure calculation
              = E(kin-el) + E(nuc-el) + E(el-el) + E(nuc-nuc)
    E(ZPE)  - the the zero temperature vibrational energy from the frequency calculation
    E(vib)  - the the finite temperature correction to E(ZPE) due to population
              of excited vibrational states
    E(rot)  - is the rotational thermal energy
    E(trans)- is the translational thermal energy

Summary of contributions to the inner energy U:
Electronic energy                ...   -271.50277235 Eh
Zero point energy                ...      0.12697075 Eh      79.68 kcal/mol
Thermal vibrational correction   ...      0.00329716 Eh       2.07 kcal/mol
Thermal rotational correction    ...      0.00141627 Eh       0.89 kcal/mol
Thermal translational correction ...      0.00141627 Eh       0.89 kcal/mol
-----------------------------------------------------------------------
Total thermal energy                   -271.36967189 Eh

Summary of corrections to the electronic energy:
(perhaps to be used in another calculation)
Total thermal correction                  0.00612971 Eh       3.85 kcal/mol
Non-thermal (ZPE) correction              0.12697075 Eh      79.68 kcal/mol
-----------------------------------------------------------------------
Total correction                          0.13310046 Eh      83.52 kcal/mol

--------
ENTHALPY
--------

The enthalpy is H = U + kB*T
                kB is Boltzmann's constant
Total thermal energy              ...   -271.36967189 Eh
Thermal Enthalpy correction       ...      0.00094421 Eh       0.59 kcal/mol
-----------------------------------------------------------------------
Total Enthalpy                    ...   -271.36872768 Eh

Note: Only C1 symmetry has been detected, increase convergence thresholds
      if your molecule has a higher symmetry. Symmetry factor of 1.0 is
      used for the rotational entropy correction.

Note: Rotational entropy computed according to Herzberg
Infrared and Raman Spectra, Chapter V,1, Van Nostrand Reinhold, 1945
Point Group:  C1, Symmetry Number:   1
Rotational constants in cm-1:     0.184967     0.084169     0.058476

Vibrational entropy computed according to the QRRHO of S. Grimme
Chem.Eur.J. 2012 18 9955 using a reference frequency of 100.0 cm-1

-------
ENTROPY
-------

The entropy contributions are T*S = T*(S(el)+S(vib)+S(rot)+S(trans))
     S(el)   - electronic entropy
     S(vib)  - vibrational entropy
     S(rot)  - rotational entropy
     S(trans)- translational entropy
The entropies will be listed as multiplied by the temperature to get
units of energy

Electronic entropy                ...      0.00000000 Eh      0.00 kcal/mol
Vibrational entropy               ...      0.00524356 Eh      3.29 kcal/mol
Rotational entropy                ...      0.01281622 Eh      8.04 kcal/mol
Translational entropy             ...      0.01875532 Eh     11.77 kcal/mol
-----------------------------------------------------------------------
Final entropy term                ...      0.03681510 Eh     23.10 kcal/mol

In case the symmetry of your molecule has not been determined correctly
or in case you have a reason to use a different symmetry number we print
out the resulting rotational entropy values for sn=1,12:

 non-linear molecules -----------------------------------
|  sn= 1 | S(rot)=       0.01281622 Eh      8.04 kcal/mol|
|  sn= 2 | S(rot)=       0.01216176 Eh      7.63 kcal/mol|
|  sn= 3 | S(rot)=       0.01177893 Eh      7.39 kcal/mol|
|  sn= 4 | S(rot)=       0.01150731 Eh      7.22 kcal/mol|
|  sn= 5 | S(rot)=       0.01129662 Eh      7.09 kcal/mol|
|  sn= 6 | S(rot)=       0.01112448 Eh      6.98 kcal/mol|
|  sn= 7 | S(rot)=       0.01097893 Eh      6.89 kcal/mol|
|  sn= 8 | S(rot)=       0.01085285 Eh      6.81 kcal/mol|
|  sn= 9 | S(rot)=       0.01074164 Eh      6.74 kcal/mol|
|  sn=10 | S(rot)=       0.01064216 Eh      6.68 kcal/mol|
|  sn=11 | S(rot)=       0.01055217 Eh      6.62 kcal/mol|
|  sn=12 | S(rot)=       0.01047002 Eh      6.57 kcal/mol|
 linear molecules ---------------------------------------
|  Dinfh | S(rot)=       0.00800647 Eh      5.02 kcal/mol|
|  Cinfv | S(rot)=       0.00866093 Eh      5.43 kcal/mol|
 --------------------------------------------------------

-------------------
GIBBS FREE ENERGY
-------------------

                             ****ORCA TERMINATED NORMALLY****
TOTAL RUN TIME: 0 days 0 hours 9 minutes 14 seconds 644 msec
