                         Program Version 6.0.0  -   RELEASE  -
|  1> ! r2SCAN-3c DEF2-TZVP FREQ
|  2> * xyzfile 0 1 vacuum_censo.xyz
|  3>
|  4>                          ****END OF INPUT****

CARTESIAN COORDINATES (ANGSTROEM)
---------------------------------
  C     -2.449905   -0.000016    0.010907
  C     -0.945483   -0.000057   -0.011547
  C     -0.229062   -1.199253   -0.008681
  C      1.162194   -1.201786    0.002591
  C      1.863856    0.000043    0.008723
  C      1.162095    1.201844    0.002438
  C     -0.229133    1.199213   -0.008826
  H     -2.855014   -0.887492   -0.482785
  H     -2.823394    0.002481    1.041733
  H     -2.855005    0.885127   -0.486993
  H     -0.769316   -2.142260   -0.016523
  H      1.699701   -2.145084    0.002259
  H      2.949084    0.000099    0.014036
  H      1.699561    2.145165    0.002020
  H     -0.769477    2.142172   -0.016784

 Total Charge           Charge          ....    0
 Multiplicity           Mult            ....    1
 Number of Electrons    NEL             ....   50
 Basis Dimension        Dim             ....  265

ORBITAL ENERGIES
----------------

  NO   OCC          E(Eh)            E(eV)
   0   2.0000     -10.045726      -273.3581
   1   2.0000     -10.033653      -273.0296
   2   2.0000     -10.033626      -273.0288
   3   2.0000     -10.031571      -272.9729
   4   2.0000     -10.031560      -272.9726
   5   2.0000     -10.031133      -272.9610
   6   2.0000     -10.029177      -272.9078
   7   2.0000      -0.821680       -22.3591
   8   2.0000      -0.738154       -20.0862
   9   2.0000      -0.710217       -19.3260
  10   2.0000      -0.651808       -17.7366
  11   2.0000      -0.571435       -15.5495
  12   2.0000      -0.550468       -14.9790
  13   2.0000      -0.477685       -12.9985
  14   2.0000      -0.426886       -11.6162
  15   2.0000      -0.421246       -11.4627
  16   2.0000      -0.391563       -10.6550
  17   2.0000      -0.385672       -10.4947
  18   2.0000      -0.375806       -10.2262
  19   2.0000      -0.353462        -9.6182
  20   2.0000      -0.330521        -8.9939
  21   2.0000      -0.309590        -8.4244
  22   2.0000      -0.305747        -8.3198
  23   2.0000      -0.234295        -6.3755
  24   2.0000      -0.224808        -6.1173
  25   0.0000      -0.032507        -0.8846
  26   0.0000      -0.029191        -0.7943
  27   0.0000       0.056073         1.5258
  28   0.0000       0.072726         1.9790
  29   0.0000       0.092495         2.5169

MULLIKEN ATOMIC CHARGES
-----------------------
   0 C :   -0.345584
   1 C :    0.183652
   2 C :   -0.198866
   3 C :   -0.083963
   4 C :   -0.136959
   5 C :   -0.083970
   6 C :   -0.198913
   7 H :    0.112527
   8 H :    0.121252
   9 H :    0.112583
  10 H :    0.099449
  11 H :    0.106263
  12 H :    0.106798
  13 H :    0.106259
  14 H :    0.099470
Sum of atomic charges:   -0.0000000

LOEWDIN ATOMIC CHARGES
----------------------
   0 C :   -0.254214
   1 C :   -0.172769
   2 C :   -0.120001
   3 C :   -0.141477
   4 C :   -0.148592
   5 C :   -0.141478
   6 C :   -0.119974
   7 H :    0.126725
   8 H :    0.131054
   9 H :    0.126751
  10 H :    0.143946
  11 H :    0.142300
  12 H :    0.141475
  13 H :    0.142300
  14 H :    0.143955

  Mayer bond orders larger than 0.100000
B(  0-C ,  1-C ) :   0.9103 B(  0-C ,  7-H ) :   0.9835 B(  0-C ,  8-H ) :   0.9537
B(  0-C ,  9-H ) :   0.9834 B(  1-C ,  2-C ) :   1.3451 B(  1-C ,  6-C ) :   1.3447
B(  2-C ,  3-C ) :   1.4139 B(  2-C , 10-H ) :   0.9792 B(  3-C ,  4-C ) :   1.3905
B(  3-C , 11-H ) :   0.9709 B(  4-C ,  5-C ) :   1.3903 B(  4-C , 12-H ) :   0.9691
B(  5-C ,  6-C ) :   1.4141 B(  5-C , 13-H ) :   0.9710 B(  6-C , 14-H ) :   0.9793

Dispersion correction           -0.004422534
FINAL SINGLE POINT ENERGY      -271.502816502993

DIPOLE MOMENT
-------------

Method             : SCF
Type of density    : Electron Density
Multiplicity       :   1
Irrep              :   0
Energy             :  -271.5024883092353889 Eh
Relativity type    :
Basis              : AO
                                X                 Y                 Z
Electronic contribution:      3.357158895      -0.000063564      -0.036364308
Nuclear contribution   :     -3.515206998       0.000189080       0.053064480
                        -----------------------------------------
Total Dipole Moment    :     -0.158048104       0.000125516       0.016700172
                        -----------------------------------------
Magnitude (a.u.)       :      0.158928017
Magnitude (Debye)      :      0.403962916

VIBRATIONAL FREQUENCIES
-----------------------

Scaling factor for frequencies =  1.000000000  (already applied!)

     0:       0.00 cm**-1
     1:       0.00 cm**-1
     2:       0.00 cm**-1
     3:       0.00 cm**-1
     4:       0.00 cm**-1
     5:       0.00 cm**-1
     6:      70.30 cm**-1
     7:     208.07 cm**-1
     8:     349.17 cm**-1
     9:     411.18 cm**-1
    10:     471.18 cm**-1
    11:     530.33 cm**-1
    12:     639.21 cm**-1
    13:     712.74 cm**-1
    14:     737.63 cm**-1
    15:     801.91 cm**-1
    16:     848.06 cm**-1
    17:     896.55 cm**-1
    18:     952.03 cm**-1
    19:     978.03 cm**-1
    20:     999.19 cm**-1
    21:    1023.19 cm**-1
    22:    1051.68 cm**-1
    23:    1056.36 cm**-1
    24:    1109.73 cm**-1
    25:    1181.47 cm**-1
    26:    1202.31 cm**-1
    27:    1229.18 cm**-1
    28:    1339.79 cm**-1
    29:    1354.52 cm**-1
    30:    1400.78 cm**-1
    31:    1462.25 cm**-1
    32:    1482.87 cm**-1
    33:    1497.21 cm**-1
    34:    1524.61 cm**-1
    35:    1619.79 cm**-1
    36:    1638.00 cm**-1
    37:    3007.09 cm**-1
    38:    3073.15 cm**-1
    39:    3101.88 cm**-1
    40:    3146.21 cm**-1
    41:    3146.94 cm**-1
    42:    3159.99 cm**-1
    43:    3168.18 cm**-1
    44:    3180.76 cm**-1

IR SPECTRUM
-----------

 Mode   freq       eps      Int      T**2         TX        TY        TZ
       cm**-1   L/(mol*cm) km/mol    a.u.
----------------------------------------------------------------------------
  6:     70.30   0.000049    0.25  0.000215  (-0.000004 -0.014673  0.000124)
  7:    208.07   0.000453    2.29  0.000680  (-0.000716 -0.000025 -0.026066)
  8:    349.17   0.000075    0.38  0.000067  (-0.000018  0.008169 -0.000006)
  9:    411.18   0.000001    0.01  0.000001  ( 0.000003 -0.000959 -0.000009)
 10:    471.18   0.001908    9.64  0.001264  (-0.000793 -0.000009  0.035537)
 11:    530.33   0.000104    0.53  0.000061  ( 0.006305  0.000006 -0.004649)
 12:    639.21   0.000020    0.10  0.000010  (-0.000000  0.003100 -0.000002)
 13:    712.74   0.008299   41.94  0.003634  (-0.000853  0.000004  0.060274)
 14:    737.63   0.006158   31.12  0.002605  (-0.001189  0.000010 -0.051027)
 15:    801.91   0.000166    0.84  0.000064  (-0.006496  0.000006  0.004722)
 16:    848.06   0.000005    0.02  0.000002  ( 0.000003 -0.001306 -0.000004)
 17:    896.55   0.000094    0.48  0.000033  ( 0.002604  0.000007  0.005108)
 18:    952.03   0.000000    0.00  0.000000  ( 0.000001  0.000248  0.000004)
 19:    978.03   0.000007    0.04  0.000002  (-0.001298 -0.000003 -0.000767)
 20:    999.19   0.000015    0.08  0.000005  ( 0.000091  0.002175  0.000001)
 21:   1023.19   0.000068    0.34  0.000021  ( 0.003901 -0.000009 -0.002317)
 22:   1051.68   0.000357    1.80  0.000106  (-0.009777 -0.000003 -0.003216)
 23:   1056.36   0.001849    9.34  0.000546  (-0.019029  0.000002  0.013565)
 24:   1109.73   0.001255    6.34  0.000353  (-0.000032  0.018786 -0.000002)
 25:   1181.47   0.000017    0.08  0.000004  ( 0.000004  0.002092  0.000001)
 26:   1202.31   0.000107    0.54  0.000028  (-0.005275  0.000002  0.000154)
 27:   1229.18   0.000355    1.80  0.000090  ( 0.009163 -0.000009 -0.002497)
 28:   1339.79   0.000007    0.03  0.000002  ( 0.000038  0.001258  0.000002)
 29:   1354.52   0.000000    0.00  0.000000  ( 0.000003  0.000250 -0.000001)
 30:   1400.78   0.000314    1.59  0.000070  (-0.008219  0.000011  0.001533)
 31:   1462.25   0.000109    0.55  0.000023  (-0.000009  0.004814 -0.000032)
 32:   1482.87   0.001353    6.84  0.000285  ( 0.000441 -0.000034  0.016866)
 33:   1497.21   0.002723   13.76  0.000568  ( 0.000002  0.023823  0.000020)
 34:   1524.61   0.002715   13.72  0.000556  (-0.023552 -0.000000  0.000993)
 35:   1619.79   0.000061    0.31  0.000012  (-0.000009  0.003431  0.000001)
 36:   1638.00   0.001854    9.37  0.000353  (-0.018785 -0.000000  0.000582)
 37:   3007.09   0.005707   28.84  0.000592  (-0.024012  0.000012  0.003963)
 38:   3073.15   0.003308   16.72  0.000336  (-0.007164  0.000013 -0.016871)
 39:   3101.88   0.003056   15.44  0.000307  ( 0.000038  0.017533  0.000006)
 40:   3146.21   0.001745    8.82  0.000173  (-0.013155  0.000170 -0.000114)
 41:   3146.94   0.001135    5.73  0.000113  (-0.000202 -0.010606 -0.000001)
 42:   3159.99   0.001232    6.22  0.000122  (-0.011026  0.000004 -0.000226)
 43:   3168.18   0.006976   35.26  0.000687  (-0.000010 -0.026214  0.000001)
 44:   3180.76   0.002703   13.66  0.000265  ( 0.016286 -0.000004  0.000061)

--------------------------
THERMOCHEMISTRY AT 298.15K
--------------------------

Temperature         ...   298.15 K
Pressure            ...     1.00 atm
Total Mass          ...    92.14 AMU
Quasi RRHO          ...     True
Cut-Off Frequency   ...     1.00 cm^-1

Throughout the following assumptions are being made:
  (1) The electronic state is orbitally nondegenerate
  (2) There are no thermally accessible electronically excited states
  (3) Hindered rotations indicated by low frequency modes are not
      treated as such but are treated as vibrations and this may
      cause some error
  (4) All equations used are the standard statistical mechanics
      equations for an ideal gas
  (5) All vibrations are strictly harmonic

freq.      70.30  E(vib)   ...       0.50
freq.     208.07  E(vib)   ...       0.34
freq.     349.17  E(vib)   ...       0.23
freq.     411.18  E(vib)   ...       0.19
freq.     471.18  E(vib)   ...       0.15
freq.     530.33  E(vib)   ...       0.13
freq.     639.21  E(vib)   ...       0.09
freq.     712.74  E(vib)   ...       0.07
freq.     737.63  E(vib)   ...       0.06
freq.     801.91  E(vib)   ...       0.05
freq.     848.06  E(vib)   ...       0.04
freq.     896.55  E(vib)   ...       0.03
freq.     952.03  E(vib)   ...       0.03
freq.     978.03  E(vib)   ...       0.03
freq.     999.19  E(vib)   ...       0.02
freq.    1023.19  E(vib)   ...       0.02
freq.    1051.68  E(vib)   ...       0.02
freq.    1056.36  E(vib)   ...       0.02
freq.    1109.73  E(vib)   ...       0.02
freq.    1181.47  E(vib)   ...       0.01
freq.    1202.31  E(vib)   ...       0.01
freq.    1229.18  E(vib)   ...       0.01
freq.    1339.79  E(vib)   ...       0.01
freq.    1354.52  E(vib)   ...       0.01
freq.    1400.78  E(vib)   ...       0.00
freq.    1462.25  E(vib)   ...       0.00
freq.    1482.87  E(vib)   ...       0.00
freq.    1497.21  E(vib)   ...       0.00
freq.    1524.61  E(vib)   ...       0.00
freq.    1619.79  E(vib)   ...       0.00
freq.    1638.00  E(vib)   ...       0.00
freq.    3007.09  E(vib)   ...       0.00
freq.    3073.15  E(vib)   ...       0.00
freq.    3101.88  E(vib)   ...       0.00
freq.    3146.21  E(vib)   ...       0.00
freq.    3146.94  E(vib)   ...       0.00
freq.    3159.99  E(vib)   ...       0.00
freq.    3168.18  E(vib)   ...       0.00
freq.    3180.76  E(vib)   ...       0.00

------------
INNER ENERGY
------------

The inner energy is: U= E(el) + E(ZPE) + E(vib) + E(rot) + E(trans)
    E(el)   - is the total energy from the electronic structure calculation
              = E(kin-el) + E(nuc-el) + E(el-el) + E(nuc-nuc)
    E(ZPE)  - the the zero temperature vibrational energy from the frequency calculation
    E(vib)  - the the finite temperature correction to E(ZPE) due to population
              of excited vibrational states
    E(rot)  - is the rotational thermal energy
    E(trans)- is the translational thermal energy

Summary of contributions to the inner energy U:
Electronic energy                ...   -271.50281650 Eh
Zero point energy                ...      0.12703859 Eh      79.72 kcal/mol
Thermal vibrational correction   ...      0.00333551 Eh       2.09 kcal/mol
Thermal rotational correction    ...      0.00141627 Eh       0.89 kcal/mol
Thermal translational correction ...      0.00141627 Eh       0.89 kcal/mol
-----------------------------------------------------------------------
Total thermal energy                   -271.36960986 Eh

Summary of corrections to the electronic energy:
(perhaps to be used in another calculation)
Total thermal correction                  0.00616805 Eh       3.87 kcal/mol
Non-thermal (ZPE) correction              0.12703859 Eh      79.72 kcal/mol
-----------------------------------------------------------------------
Total correction                          0.13320664 Eh      83.59 kcal/mol

--------
ENTHALPY
--------

The enthalpy is H = U + kB*T
                kB is Boltzmann's constant
Total thermal energy              ...   -271.36960986 Eh
Thermal Enthalpy correction       ...      0.00094421 Eh       0.59 kcal/mol
-----------------------------------------------------------------------
Total Enthalpy                    ...   -271.36866565 Eh

Note: Only C1 symmetry has been detected, increase convergence thresholds
      if your molecule has a higher symmetry. Symmetry factor of 1.0 is
      used for the rotational entropy correction.

Note: Rotational entropy computed according to Herzberg
Infrared and Raman Spectra, Chapter V,1, Van Nostrand Reinhold, 1945
Point Group:  C1, Symmetry Number:   1
Rotational constants in cm-1:     0.185390     0.084253     0.058561

Vibrational entropy computed according to the QRRHO of S. Grimme
Chem.Eur.J. 2012 18 9955 using a reference frequency of 100.0 cm-1

-------
ENTROPY
-------

The entropy contributions are T*S = T*(S(el)+S(vib)+S(rot)+S(trans))
     S(el)   - electronic entropy
     S(vib)  - vibrational entropy
     S(rot)  - rotational entropy
     S(trans)- translational entropy
The entropies will be listed as multiplied by the temperature to get
units of energy

Electronic entropy                ...      0.00000000 Eh      0.00 kcal/mol
Vibrational entropy               ...      0.00531610 Eh      3.34 kcal/mol
Rotational entropy                ...      0.01281398 Eh      8.04 kcal/mol
Translational entropy             ...      0.01875532 Eh     11.77 kcal/mol
-----------------------------------------------------------------------
Final entropy term                ...      0.03688541 Eh     23.15 kcal/mol

In case the symmetry of your molecule has not been determined correctly
or in case you have a reason to use a different symmetry number we print
out the resulting rotational entropy values for sn=1,12:

 non-linear molecules -----------------------------------
|  sn= 1 | S(rot)=       0.01281398 Eh      8.04 kcal/mol|
|  sn= 2 | S(rot)=       0.01215953 Eh      7.63 kcal/mol|
|  sn= 3 | S(rot)=       0.01177669 Eh      7.39 kcal/mol|
|  sn= 4 | S(rot)=       0.01150507 Eh      7.22 kcal/mol|
|  sn= 5 | S(rot)=       0.01129438 Eh      7.09 kcal/mol|
|  sn= 6 | S(rot)=       0.01112224 Eh      6.98 kcal/mol|
|  sn= 7 | S(rot)=       0.01097669 Eh      6.89 kcal/mol|
|  sn= 8 | S(rot)=       0.01085061 Eh      6.81 kcal/mol|
|  sn= 9 | S(rot)=       0.01073941 Eh      6.74 kcal/mol|
|  sn=10 | S(rot)=       0.01063993 Eh      6.68 kcal/mol|
|  sn=11 | S(rot)=       0.01054994 Eh      6.62 kcal/mol|
|  sn=12 | S(rot)=       0.01046778 Eh      6.57 kcal/mol|
 linear molecules ---------------------------------------
|  Dinfh | S(rot)=       0.00800510 Eh      5.02 kcal/mol|
|  Cinfv | S(rot)=       0.00865955 Eh      5.43 kcal/mol|
 --------------------------------------------------------

-------------------
GIBBS FREE ENERGY
-------------------

                             ****ORCA TERMINATED NORMALLY****
TOTAL RUN TIME: 0 days 0 hours 9 minutes 32 seconds 560 msec
