                         Program Version 6.0.1  -  RELEASE   -
|  1> ! pbe def2-sv(p) def2/J RI DEFGRID1 loosescf d4 GCP(DFT/SV(P)) printgap
|  2> %output
|  3>     printlevel normal
|  4> end
|  5> * xyz 0 1
|  6> C 1.8531473558 -0.0725682995 -0.2570081028
|  7> C 0.5395483234 0.1690899047 0.4680653637
|  8> O -0.5238569065 -0.1462426223 -0.4032490727
|  9> C -1.7855150904 0.0445447419 0.1751666826
| 10> H 2.6880299193 0.1638406609 0.3967138381
| 11> H 1.9193699782 -1.1129349562 -0.5625287968
| 12> H 1.9041352407 0.5512485834 -1.1448944981
| 13> H 0.464207877 1.2225940894 0.7839547967
| 14> H 0.4800689061 -0.4580228302 1.3727911268
| 15> H -1.9196745272 -0.5904183475 1.0609631954
| 16> H -2.5204486938 -0.2271305005 -0.5798085886
| 17> H -1.935670705 1.0912105571 0.4714074266
| 18> *
| 19>
| 20>                          ****END OF INPUT****

CARTESIAN COORDINATES (ANGSTROEM)
---------------------------------
  C      1.853147   -0.072568   -0.257008
  C      0.539548    0.169090    0.468065
  O     -0.523857   -0.146243   -0.403249
  C     -1.785515    0.044545    0.175167
  H      2.688030    0.163841    0.396714
  H      1.919370   -1.112935   -0.562529
  H      1.904135    0.551249   -1.144894
  H      0.464208    1.222594    0.783955
  H      0.480069   -0.458023    1.372791
  H     -1.919675   -0.590418    1.060963
  H     -2.520449   -0.227131   -0.579809
  H     -1.935671    1.091211    0.471407

 Total Charge           Charge          ....    0
 Multiplicity           Mult            ....    1
 Number of Electrons    NEL             ....   34
 Basis Dimension        Dim             ....   72

ORBITAL ENERGIES
----------------

  NO   OCC          E(Eh)            E(eV)
   0   2.0000     -18.748220      -510.1650
   1   2.0000      -9.929454      -270.1942
   2   2.0000      -9.921407      -269.9752
   3   2.0000      -9.874779      -268.7064
   4   2.0000      -0.932350       -25.3705
   5   2.0000      -0.684352       -18.6222
   6   2.0000      -0.600558       -16.3420
   7   2.0000      -0.535331       -14.5671
   8   2.0000      -0.439260       -11.9529
   9   2.0000      -0.427712       -11.6386
  10   2.0000      -0.401371       -10.9219
  11   2.0000      -0.372099       -10.1253
  12   2.0000      -0.339987        -9.2515
  13   2.0000      -0.319073        -8.6824
  14   2.0000      -0.309134        -8.4120
  15   2.0000      -0.264009        -7.1840
  16   2.0000      -0.202674        -5.5150
  17   0.0000       0.040484         1.1016
  18   0.0000       0.065270         1.7761
  19   0.0000       0.091720         2.4958
  20   0.0000       0.097101         2.6423
  21   0.0000       0.107182         2.9166

MULLIKEN ATOMIC CHARGES
-----------------------
   0 C :   -0.269042
   1 C :   -0.025934
   2 O :   -0.335819
   3 C :   -0.103453
   4 H :    0.100520
   5 H :    0.110475
   6 H :    0.110512
   7 H :    0.067945
   8 H :    0.068080
   9 H :    0.081413
  10 H :    0.113791
  11 H :    0.081514
Sum of atomic charges:   -0.0000000

LOEWDIN ATOMIC CHARGES
----------------------
   0 C :   -0.351125
   1 C :   -0.116948
   2 O :   -0.181090
   3 C :   -0.209468
   4 H :    0.124214
   5 H :    0.124210
   6 H :    0.124229
   7 H :    0.091979
   8 H :    0.092007
   9 H :    0.093827
  10 H :    0.114325
  11 H :    0.093839

  Mayer bond orders larger than 0.100000
B(  0-C ,  1-C ) :   1.1544 B(  0-C ,  4-H ) :   0.9460 B(  0-C ,  5-H ) :   0.9520
B(  0-C ,  6-H ) :   0.9520 B(  1-C ,  2-O ) :   1.0212 B(  1-C ,  7-H ) :   0.9179
B(  1-C ,  8-H ) :   0.9179 B(  2-O ,  3-C ) :   1.0312 B(  3-C ,  9-H ) :   0.9414
B(  3-C , 10-H ) :   0.9642 B(  3-C , 11-H ) :   0.9414

Dispersion correction           -0.006044703
FINAL SINGLE POINT ENERGY      -193.872925587547

DIPOLE MOMENT
-------------

Method             : SCF
Type of density    : Electron Density
Multiplicity       :   1
Irrep              :   0
Energy             :  -193.9216255264612983 Eh
Relativity type    :
Basis              : AO
                                X                 Y                 Z
Electronic contribution:     -1.053653801      -0.463606725      -1.294803085
Nuclear contribution   :      1.005460200       0.598618062       1.681396233
                        -----------------------------------------
Total Dipole Moment    :     -0.048193601       0.135011336       0.386593149
                        -----------------------------------------
Magnitude (a.u.)       :      0.412316561
Magnitude (Debye)      :      1.048025411

Rotational constants in cm-1:             0.949209             0.138728             0.129931
Rotational constants in MHz :         28456.558145          4158.971421          3895.220532

                             ****ORCA TERMINATED NORMALLY****
TOTAL RUN TIME: 0 days 0 hours 0 minutes 11 seconds 223 msec
