                         Program Version 6.0.1  -  RELEASE   -
|  1> ! r2scan-3c def2/J RI DEFGRID2 scfconv6 printgap
|  2> %output
|  3>     printlevel normal
|  4> end
|  5> * xyz 0 1
|  6> C -5.0599991472 -0.6835652284 0.0308496595
|  7> C -4.3038511326 -1.3714514591 -0.9034374089
|  8> C -2.9257655794 -1.2576494069 -0.9006069735
|  9> C -2.2897757596 -0.4426720364 0.0314574255
| 10> C -3.0548787459 0.2407946872 0.971505174
| 11> C -4.4322468284 0.1171901222 0.970226218
| 12> C -0.8192768048 -0.3353778252 0.0255037038
| 13> C -0.0492141723 -1.4927152873 0.0684176731
| 14> C 1.3333465167 -1.4327829909 0.0698949087
| 15> C 1.9834714868 -0.2011687035 0.0226845253
| 16> C 1.2240785513 0.9663841413 -0.0350735508
| 17> C -0.1678130676 0.8982968707 -0.0339556
| 18> Cl -1.0671709214 2.359062399 -0.1628148499
| 19> Cl 2.0139635392 2.4875416405 -0.1142027272
| 20> Cl 3.6963676438 -0.1156367358 0.0281148445
| 21> Cl 2.2532631502 -2.8822783898 0.1330417849
| 22> H -6.1359961145 -0.7730721605 0.0281491338
| 23> H -4.7888055686 -1.9981203525 -1.6370620857
| 24> H -2.3343688571 -1.7843599095 -1.6349531301
| 25> H -2.5674842937 0.8533903398 1.7144111235
| 26> H -5.017563728 0.648260754 1.7059418265
| 27> H -0.5384799693 -2.4526179471 0.1157415251
| 28> *
| 29>
| 30>                          ****END OF INPUT****

CARTESIAN COORDINATES (ANGSTROEM)
---------------------------------
  C     -5.059999   -0.683565    0.030850
  C     -4.303851   -1.371451   -0.903437
  C     -2.925766   -1.257649   -0.900607
  C     -2.289776   -0.442672    0.031457
  C     -3.054879    0.240795    0.971505
  C     -4.432247    0.117190    0.970226
  C     -0.819277   -0.335378    0.025504
  C     -0.049214   -1.492715    0.068418
  C      1.333347   -1.432783    0.069895
  C      1.983471   -0.201169    0.022685
  C      1.224079    0.966384   -0.035074
  C     -0.167813    0.898297   -0.033956
  Cl    -1.067171    2.359062   -0.162815
  Cl     2.013964    2.487542   -0.114203
  Cl     3.696368   -0.115637    0.028115
  Cl     2.253263   -2.882278    0.133042
  H     -6.135996   -0.773072    0.028149
  H     -4.788806   -1.998120   -1.637062
  H     -2.334369   -1.784360   -1.634953
  H     -2.567484    0.853390    1.714411
  H     -5.017564    0.648261    1.705942
  H     -0.538480   -2.452618    0.115742

 Total Charge           Charge          ....    0
 Multiplicity           Mult            ....    1
 Number of Electrons    NEL             ....  146
 Basis Dimension        Dim             ....  366

ORBITAL ENERGIES
----------------

  NO   OCC          E(Eh)            E(eV)
   0   2.0000    -101.239130     -2754.8568
   1   2.0000    -101.238758     -2754.8467
   2   2.0000    -101.237974     -2754.8253
   3   2.0000    -101.235558     -2754.7596
   4   2.0000     -10.132933      -275.7311
   5   2.0000     -10.131473      -275.6914
   6   2.0000     -10.127432      -275.5814
   7   2.0000     -10.127118      -275.5729
   8   2.0000     -10.084148      -274.4036
   9   2.0000     -10.071777      -274.0670
  10   2.0000     -10.064419      -273.8668
  11   2.0000     -10.050713      -273.4938
  12   2.0000     -10.049567      -273.4626
  13   2.0000     -10.048450      -273.4322
  14   2.0000     -10.048001      -273.4200
  15   2.0000     -10.047581      -273.4086
  16   2.0000      -9.394928      -255.6490
  17   2.0000      -9.394608      -255.6403
  18   2.0000      -9.393886      -255.6206
  19   2.0000      -9.391608      -255.5587
  20   2.0000      -7.141597      -194.3327
  21   2.0000      -7.141255      -194.3234
  22   2.0000      -7.140364      -194.2992
  23   2.0000      -7.138140      -194.2387
  24   2.0000      -7.131247      -194.0511
  25   2.0000      -7.130957      -194.0432
  26   2.0000      -7.130187      -194.0222
  27   2.0000      -7.130151      -194.0213
  28   2.0000      -7.129845      -194.0130
  29   2.0000      -7.129387      -194.0005
  30   2.0000      -7.127967      -193.9618
  31   2.0000      -7.126911      -193.9331
  32   2.0000      -0.922959       -25.1150
  33   2.0000      -0.877922       -23.8895
  34   2.0000      -0.860548       -23.4167
  35   2.0000      -0.840716       -22.8770
  36   2.0000      -0.823903       -22.4195
  37   2.0000      -0.806648       -21.9500
  38   2.0000      -0.754542       -20.5321
  39   2.0000      -0.731552       -19.9065
  40   2.0000      -0.712108       -19.3774
  41   2.0000      -0.698335       -19.0027
  42   2.0000      -0.618319       -16.8253
  43   2.0000      -0.601430       -16.3657
  44   2.0000      -0.586013       -15.9462
  45   2.0000      -0.566794       -15.4233
  46   2.0000      -0.514698       -14.0056
  47   2.0000      -0.504700       -13.7336
  48   2.0000      -0.489079       -13.3085
  49   2.0000      -0.460368       -12.5273
  50   2.0000      -0.442399       -12.0383
  51   2.0000      -0.441209       -12.0059
  52   2.0000      -0.436066       -11.8660
  53   2.0000      -0.424482       -11.5508
  54   2.0000      -0.420337       -11.4380
  55   2.0000      -0.404495       -11.0069
  56   2.0000      -0.391110       -10.6426
  57   2.0000      -0.387395       -10.5415
  58   2.0000      -0.371204       -10.1010
  59   2.0000      -0.360848        -9.8192
  60   2.0000      -0.346549        -9.4301
  61   2.0000      -0.336175        -9.1478
  62   2.0000      -0.328660        -8.9433
  63   2.0000      -0.321203        -8.7404
  64   2.0000      -0.318162        -8.6576
  65   2.0000      -0.310821        -8.4579
  66   2.0000      -0.301934        -8.2160
  67   2.0000      -0.297797        -8.1035
  68   2.0000      -0.279478        -7.6050
  69   2.0000      -0.259157        -7.0520
  70   2.0000      -0.250109        -6.8058
  71   2.0000      -0.240460        -6.5432
  72   2.0000      -0.229088        -6.2338
  73   0.0000      -0.078134        -2.1261
  74   0.0000      -0.068924        -1.8755
  75   0.0000      -0.053527        -1.4566
  76   0.0000      -0.043723        -1.1898
  77   0.0000      -0.034304        -0.9335

MULLIKEN ATOMIC CHARGES
-----------------------
   0 C :   -0.128921
   1 C :   -0.164525
   2 C :   -0.193835
   3 C :    0.121488
   4 C :   -0.173121
   5 C :   -0.165770
   6 C :    0.187124
   7 C :   -0.336213
   8 C :    0.124892
   9 C :    0.074941
  10 C :    0.035075
  11 C :   -0.017488
  12 Cl:   -0.068915
  13 Cl:   -0.066925
  14 Cl:   -0.066534
  15 Cl:   -0.095369
  16 H :    0.149003
  17 H :    0.147968
  18 H :    0.155574
  19 H :    0.158973
  20 H :    0.147930
  21 H :    0.174648
Sum of atomic charges:   -0.0000000

LOEWDIN ATOMIC CHARGES
----------------------
   0 C :   -0.157044
   1 C :   -0.157137
   2 C :   -0.141953
   3 C :   -0.081111
   4 C :   -0.141973
   5 C :   -0.156568
   6 C :   -0.067350
   7 C :   -0.143918
   8 C :   -0.181047
   9 C :   -0.198721
  10 C :   -0.190726
  11 C :   -0.165181
  12 Cl:    0.192072
  13 Cl:    0.185074
  14 Cl:    0.184372
  15 Cl:    0.168298
  16 H :    0.169014
  17 H :    0.169820
  18 H :    0.175853
  19 H :    0.176545
  20 H :    0.169988
  21 H :    0.191692

  Mayer bond orders larger than 0.100000
B(  0-C ,  1-C ) :   1.4202 B(  0-C ,  5-C ) :   1.4114 B(  0-C , 16-H ) :   0.9460
B(  1-C ,  2-C ) :   1.4331 B(  1-C , 17-H ) :   0.9491 B(  2-C ,  3-C ) :   1.4032
B(  2-C , 18-H ) :   0.9436 B(  3-C ,  4-C ) :   1.4012 B(  3-C ,  6-C ) :   0.7743
B(  4-C ,  5-C ) :   1.4444 B(  4-C , 19-H ) :   0.9383 B(  5-C , 20-H ) :   0.9490
B(  6-C ,  7-C ) :   1.3692 B(  6-C , 11-C ) :   1.2540 B(  7-C ,  8-C ) :   1.3104
B(  7-C , 21-H ) :   0.9268 B(  8-C ,  9-C ) :   1.2162 B(  8-C , 15-Cl) :   1.0716
B(  9-C , 10-C ) :   1.0960 B(  9-C , 14-Cl) :   1.2424 B( 10-C , 11-C ) :   1.0982
B( 10-C , 13-Cl) :   1.2637 B( 11-C , 12-Cl) :   1.2788

Dispersion correction           -0.012633464
FINAL SINGLE POINT ENERGY     -2301.483272956790

DIPOLE MOMENT
-------------

Method             : SCF
Type of density    : Electron Density
Multiplicity       :   1
Irrep              :   0
Energy             : -2301.4802291498422164 Eh
Relativity type    :
Basis              : AO
                                X                 Y                 Z
Electronic contribution:     28.356598439       7.298205189      -0.395186627
Nuclear contribution   :    -29.317172436      -7.647410058       0.429671187
                        -----------------------------------------
Total Dipole Moment    :     -0.960573997      -0.349204869       0.034484561
                        -----------------------------------------
Magnitude (a.u.)       :      1.022661053
Magnitude (Debye)      :      2.599397818

Rotational constants in cm-1:             0.018585             0.007870             0.005738
Rotational constants in MHz :           557.165752           235.931912           172.035619

                             ****ORCA TERMINATED NORMALLY****
TOTAL RUN TIME: 0 days 0 hours 2 minutes 29 seconds 628 msec
