                         Program Version 6.0.1  -  RELEASE   -
|  1> ! pbe def2-sv(p) def2/J RI DEFGRID1 loosescf d4 GCP(DFT/SV(P)) printgap
|  2> %output
|  3>     printlevel normal
|  4> end
|  5> * xyz 0 1
|  6> C -0.1771840803 -2.2902249766 -0.4922640515
|  7> C 0.4949988145 -0.9784988822 -0.2366738188
|  8> C 1.8883938673 -0.9412954541 -0.2129621626
|  9> C 2.5858355183 0.2183213639 0.0626000033
| 10> C 1.9021194919 1.3916916254 0.3467835479
| 11> C 0.524138462 1.3840573727 0.3458554333
| 12> C -0.1740684626 0.215508046 0.0452886013
| 13> N -1.6116718598 0.3283911874 0.0545251983
| 14> O -2.2553191402 -0.3299118316 -0.7355963982
| 15> O -2.0944816946 1.1064114192 0.8501015258
| 16> H -0.0036601902 -2.9548646465 0.3544101696
| 17> H -1.2452976437 -2.1880765594 -0.6476927736
| 18> H 0.2557435098 -2.7583041642 -1.3741012601
| 19> H 2.4287736036 -1.8536775568 -0.4179328887
| 20> H 3.6652760093 0.2087505781 0.0606415184
| 21> H 2.4394535439 2.300483715 0.5670890171
| 22> H -0.039427823 2.2780245407 0.5669155427
| 23> *
| 24>
| 25>                          ****END OF INPUT****

CARTESIAN COORDINATES (ANGSTROEM)
---------------------------------
  C     -0.177184   -2.290225   -0.492264
  C      0.494999   -0.978499   -0.236674
  C      1.888394   -0.941295   -0.212962
  C      2.585836    0.218321    0.062600
  C      1.902119    1.391692    0.346784
  C      0.524138    1.384057    0.345855
  C     -0.174068    0.215508    0.045289
  N     -1.611672    0.328391    0.054525
  O     -2.255319   -0.329912   -0.735596
  O     -2.094482    1.106411    0.850102
  H     -0.003660   -2.954865    0.354410
  H     -1.245298   -2.188077   -0.647693
  H      0.255744   -2.758304   -1.374101
  H      2.428774   -1.853678   -0.417933
  H      3.665276    0.208751    0.060642
  H      2.439454    2.300484    0.567089
  H     -0.039428    2.278025    0.566916

 Total Charge           Charge          ....    0
 Multiplicity           Mult            ....    1
 Number of Electrons    NEL             ....   72
 Basis Dimension        Dim             ....  154

ORBITAL ENERGIES
----------------

  NO   OCC          E(Eh)            E(eV)
   0   2.0000     -18.779245      -511.0092
   1   2.0000     -18.778040      -510.9764
   2   2.0000     -14.212021      -386.7287
   3   2.0000      -9.952927      -270.8329
   4   2.0000      -9.935426      -270.3567
   5   2.0000      -9.918595      -269.8987
   6   2.0000      -9.916507      -269.8419
   7   2.0000      -9.913654      -269.7642
   8   2.0000      -9.913061      -269.7481
   9   2.0000      -9.892405      -269.1860
  10   2.0000      -1.136770       -30.9331
  11   2.0000      -0.966373       -26.2963
  12   2.0000      -0.813693       -22.1417
  13   2.0000      -0.735869       -20.0240
  14   2.0000      -0.717978       -19.5372
  15   2.0000      -0.649624       -17.6772
  16   2.0000      -0.616671       -16.7805
  17   2.0000      -0.562862       -15.3162
  18   2.0000      -0.528182       -14.3726
  19   2.0000      -0.494089       -13.4448
  20   2.0000      -0.489343       -13.3157
  21   2.0000      -0.456620       -12.4253
  22   2.0000      -0.450963       -12.2713
  23   2.0000      -0.429381       -11.6840
  24   2.0000      -0.408102       -11.1050
  25   2.0000      -0.394608       -10.7378
  26   2.0000      -0.386881       -10.5276
  27   2.0000      -0.359653        -9.7867
  28   2.0000      -0.343103        -9.3363
  29   2.0000      -0.335015        -9.1162
  30   2.0000      -0.324709        -8.8358
  31   2.0000      -0.272961        -7.4276
  32   2.0000      -0.264751        -7.2042
  33   2.0000      -0.254765        -6.9325
  34   2.0000      -0.243938        -6.6379
  35   2.0000      -0.229089        -6.2338
  36   0.0000      -0.109999        -2.9932
  37   0.0000      -0.058575        -1.5939
  38   0.0000      -0.038316        -1.0426
  39   0.0000       0.033591         0.9140
  40   0.0000       0.054255         1.4764

MULLIKEN ATOMIC CHARGES
-----------------------
   0 C :   -0.230043
   1 C :    0.003666
   2 C :   -0.147460
   3 C :   -0.008949
   4 C :   -0.054056
   5 C :   -0.096100
   6 C :    0.126804
   7 N :    0.198399
   8 O :   -0.209648
   9 O :   -0.209597
  10 H :    0.123733
  11 H :    0.135829
  12 H :    0.117115
  13 H :    0.050265
  14 H :    0.065358
  15 H :    0.066476
  16 H :    0.068207
Sum of atomic charges:   -0.0000000

LOEWDIN ATOMIC CHARGES
----------------------
   0 C :   -0.336567
   1 C :   -0.025056
   2 C :   -0.112979
   3 C :   -0.102066
   4 C :   -0.121244
   5 C :   -0.102721
   6 C :   -0.038337
   7 N :    0.250739
   8 O :   -0.177241
   9 O :   -0.177875
  10 H :    0.138952
  11 H :    0.135814
  12 H :    0.138032
  13 H :    0.128769
  14 H :    0.130112
  15 H :    0.131375
  16 H :    0.140295

  Mayer bond orders larger than 0.100000
B(  0-C ,  1-C ) :   1.1226 B(  0-C , 10-H ) :   0.9262 B(  0-C , 11-H ) :   0.9127
B(  0-C , 12-H ) :   0.9278 B(  1-C ,  2-C ) :   1.3597 B(  1-C ,  6-C ) :   1.4052
B(  2-C ,  3-C ) :   1.3797 B(  2-C , 13-H ) :   0.9644 B(  3-C ,  4-C ) :   1.3356
B(  3-C , 14-H ) :   0.9658 B(  4-C ,  5-C ) :   1.3592 B(  4-C , 15-H ) :   0.9654
B(  5-C ,  6-C ) :   1.3664 B(  5-C , 16-H ) :   0.9526 B(  6-C ,  7-N ) :   0.8683
B(  7-N ,  8-O ) :   1.5108 B(  7-N ,  9-O ) :   1.5385 B(  8-O ,  9-O ) :   0.2950

Dispersion correction           -0.018500781
FINAL SINGLE POINT ENERGY      -475.101399772999

DIPOLE MOMENT
-------------

Method             : SCF
Type of density    : Electron Density
Multiplicity       :   1
Irrep              :   0
Energy             :  -475.1523877329589709 Eh
Relativity type    :
Basis              : AO
                                X                 Y                 Z
Electronic contribution:     -5.478614340       4.349306842       0.800979085
Nuclear contribution   :      6.963828882      -4.647218950      -0.833606814
                        -----------------------------------------
Total Dipole Moment    :      1.485214542      -0.297912108      -0.032627729
                        -----------------------------------------
Magnitude (a.u.)       :      1.515149639
Magnitude (Debye)      :      3.851204323

Rotational constants in cm-1:             0.076193             0.042051             0.028195
Rotational constants in MHz :          2284.210628          1260.644216           845.258005

                             ****ORCA TERMINATED NORMALLY****
TOTAL RUN TIME: 0 days 0 hours 0 minutes 10 seconds 354 msec
