                         Program Version 6.0.1  -  RELEASE   -
|  1> ! r2scan-3c def2/J RI DEFGRID2 scfconv6 printgap
|  2> %output
|  3>     printlevel normal
|  4> end
|  5> * xyz 0 1
|  6> C -0.4855287573 -1.4134738637 -0.0004605725
|  7> N -0.4285728954 0.0350318876 0.002923129
|  8> C -1.6668716809 0.7662339331 -0.0014225686
|  9> C 0.7775907617 0.6234872663 0.0006372099
| 10> O 1.8318953885 0.0338470813 -0.0010145226
| 11> H 0.0156501399 -1.8050538333 -0.8874951047
| 12> H -1.522083734 -1.7383135384 0.0070677392
| 13> H 0.0295739263 -1.8084743685 0.8768965182
| 14> H -1.4595629613 1.8348518716 0.0032596812
| 15> H -2.2612236731 0.5208469986 0.8829100685
| 16> H -2.2522742748 0.5268783845 -0.8934640619
| 17> H 0.7096724565 1.7281980285 0.001154798
| 18> *
| 19>
| 20>                          ****END OF INPUT****

CARTESIAN COORDINATES (ANGSTROEM)
---------------------------------
  C     -0.485529   -1.413474   -0.000461
  N     -0.428573    0.035032    0.002923
  C     -1.666872    0.766234   -0.001423
  C      0.777591    0.623487    0.000637
  O      1.831895    0.033847   -0.001015
  H      0.015650   -1.805054   -0.887495
  H     -1.522084   -1.738314    0.007068
  H      0.029574   -1.808474    0.876897
  H     -1.459563    1.834852    0.003260
  H     -2.261224    0.520847    0.882910
  H     -2.252274    0.526878   -0.893464
  H      0.709672    1.728198    0.001155

 Total Charge           Charge          ....    0
 Multiplicity           Mult            ....    1
 Number of Electrons    NEL             ....   40
 Basis Dimension        Dim             ....  140

ORBITAL ENERGIES
----------------

  NO   OCC          E(Eh)            E(eV)
   0   2.0000     -18.911681      -514.6130
   1   2.0000     -14.197744      -386.3402
   2   2.0000     -10.115022      -275.2437
   3   2.0000     -10.078387      -274.2468
   4   2.0000     -10.065875      -273.9064
   5   2.0000      -1.002251       -27.2726
   6   2.0000      -0.912564       -24.8321
   7   2.0000      -0.705911       -19.2088
   8   2.0000      -0.675627       -18.3848
   9   2.0000      -0.539885       -14.6910
  10   2.0000      -0.487727       -13.2717
  11   2.0000      -0.451839       -12.2952
  12   2.0000      -0.438362       -11.9284
  13   2.0000      -0.386152       -10.5077
  14   2.0000      -0.385638       -10.4938
  15   2.0000      -0.370966       -10.0945
  16   2.0000      -0.362848        -9.8736
  17   2.0000      -0.344477        -9.3737
  18   2.0000      -0.220485        -5.9997
  19   2.0000      -0.219972        -5.9857
  20   0.0000      -0.000617        -0.0168
  21   0.0000       0.069381         1.8880
  22   0.0000       0.097871         2.6632
  23   0.0000       0.104751         2.8504
  24   0.0000       0.118054         3.2124

MULLIKEN ATOMIC CHARGES
-----------------------
   0 C :   -0.409827
   1 N :    0.077409
   2 C :   -0.378612
   3 C :    0.126907
   4 O :   -0.438698
   5 H :    0.170479
   6 H :    0.143363
   7 H :    0.170874
   8 H :    0.146785
   9 H :    0.151518
  10 H :    0.151549
  11 H :    0.088251
Sum of atomic charges:   -0.0000000

LOEWDIN ATOMIC CHARGES
----------------------
   0 C :   -0.116591
   1 N :   -0.855947
   2 C :   -0.114305
   3 C :    0.297364
   4 O :   -0.458819
   5 H :    0.185417
   6 H :    0.177554
   7 H :    0.185872
   8 H :    0.182880
   9 H :    0.171148
  10 H :    0.170978
  11 H :    0.174448

  Mayer bond orders larger than 0.100000
B(  0-C ,  1-N ) :   0.9153 B(  0-C ,  5-H ) :   0.9528 B(  0-C ,  6-H ) :   0.9607
B(  0-C ,  7-H ) :   0.9531 B(  1-N ,  2-C ) :   0.9348 B(  1-N ,  3-C ) :   1.2294
B(  2-C ,  8-H ) :   0.9593 B(  2-C ,  9-H ) :   0.9556 B(  2-C , 10-H ) :   0.9550
B(  3-C ,  4-O ) :   1.7771 B(  3-C , 11-H ) :   0.9774

Dispersion correction           -0.002519036
FINAL SINGLE POINT ENERGY      -248.442792669650

DIPOLE MOMENT
-------------

Method             : SCF
Type of density    : Electron Density
Multiplicity       :   1
Irrep              :   0
Energy             :  -248.4533847963811013 Eh
Relativity type    :
Basis              : AO
                                X                 Y                 Z
Electronic contribution:      4.665269698       0.837124123       0.008433103
Nuclear contribution   :     -6.298671012      -0.694550638      -0.009071441
                        -----------------------------------------
Total Dipole Moment    :     -1.633401314       0.142573485      -0.000638339
                        -----------------------------------------
Magnitude (a.u.)       :      1.639611984
Magnitude (Debye)      :      4.167562463

Rotational constants in cm-1:             0.304024             0.142624             0.100748
Rotational constants in MHz :          9114.422779          4275.760112          3020.340835

                             ****ORCA TERMINATED NORMALLY****
TOTAL RUN TIME: 0 days 0 hours 0 minutes 24 seconds 544 msec
