                         Program Version 6.0.1  -  RELEASE   -
|  1> ! pbe def2-sv(p) def2/J RI DEFGRID1 loosescf d4 GCP(DFT/SV(P)) printgap
|  2> %output
|  3>     printlevel normal
|  4> end
|  5> * xyz 0 1
|  6> C 1.4795478374 -0.3689728323 0.4194946358
|  7> C 0.6682711252 0.5463214523 -0.4866484738
|  8> C -0.8113095126 0.3326509213 -0.353312591
|  9> O -1.3446637712 -0.4579230581 0.370735183
| 10> H 1.2705858092 -1.4092784936 0.1838493455
| 11> H 1.2116650958 -0.199049739 1.4591081273
| 12> H 2.5437509376 -0.186437768 0.2954485575
| 13> H 0.8703401847 1.5979883258 -0.2637822385
| 14> H 0.9298923092 0.3899835908 -1.5371909783
| 15> H -1.4080395377 0.9982711012 -1.0118431786
| 16> *
| 17>
| 18>                          ****END OF INPUT****

CARTESIAN COORDINATES (ANGSTROEM)
---------------------------------
  C      1.479548   -0.368973    0.419495
  C      0.668271    0.546321   -0.486648
  C     -0.811310    0.332651   -0.353313
  O     -1.344664   -0.457923    0.370735
  H      1.270586   -1.409278    0.183849
  H      1.211665   -0.199050    1.459108
  H      2.543751   -0.186438    0.295449
  H      0.870340    1.597988   -0.263782
  H      0.929892    0.389984   -1.537191
  H     -1.408040    0.998271   -1.011843

 Total Charge           Charge          ....    0
 Multiplicity           Mult            ....    1
 Number of Electrons    NEL             ....   32
 Basis Dimension        Dim             ....   68

ORBITAL ENERGIES
----------------

  NO   OCC          E(Eh)            E(eV)
   0   2.0000     -18.752825      -510.2903
   1   2.0000      -9.972422      -271.3634
   2   2.0000      -9.902401      -269.4580
   3   2.0000      -9.881626      -268.8927
   4   2.0000      -0.951806       -25.9000
   5   2.0000      -0.709515       -19.3069
   6   2.0000      -0.597809       -16.2672
   7   2.0000      -0.491927       -13.3860
   8   2.0000      -0.437155       -11.8956
   9   2.0000      -0.424835       -11.5603
  10   2.0000      -0.382212       -10.4005
  11   2.0000      -0.345448        -9.4001
  12   2.0000      -0.337631        -9.1874
  13   2.0000      -0.324952        -8.8424
  14   2.0000      -0.312346        -8.4994
  15   2.0000      -0.206587        -5.6215
  16   0.0000      -0.056392        -1.5345
  17   0.0000       0.039102         1.0640
  18   0.0000       0.069765         1.8984
  19   0.0000       0.086379         2.3505
  20   0.0000       0.102153         2.7797

MULLIKEN ATOMIC CHARGES
-----------------------
   0 C :   -0.279905
   1 C :   -0.203770
   2 C :    0.013511
   3 O :   -0.153412
   4 H :    0.116083
   5 H :    0.116050
   6 H :    0.104927
   7 H :    0.115932
   8 H :    0.115963
   9 H :    0.054621
Sum of atomic charges:   -0.0000000

LOEWDIN ATOMIC CHARGES
----------------------
   0 C :   -0.340176
   1 C :   -0.281824
   2 C :    0.001546
   3 O :   -0.110637
   4 H :    0.126702
   5 H :    0.126693
   6 H :    0.121698
   7 H :    0.140608
   8 H :    0.140633
   9 H :    0.074756

  Mayer bond orders larger than 0.100000
B(  0-C ,  1-C ) :   1.1440 B(  0-C ,  4-H ) :   0.9559 B(  0-C ,  5-H ) :   0.9560
B(  0-C ,  6-H ) :   0.9512 B(  1-C ,  2-C ) :   0.9888 B(  1-C ,  7-H ) :   0.9000
B(  1-C ,  8-H ) :   0.9000 B(  2-C ,  3-O ) :   2.1970 B(  2-C ,  9-H ) :   0.9094

Dispersion correction           -0.005325692
FINAL SINGLE POINT ENERGY      -192.707369163862

DIPOLE MOMENT
-------------

Method             : SCF
Type of density    : Electron Density
Multiplicity       :   1
Irrep              :   0
Energy             :  -192.7421741373142936 Eh
Relativity type    :
Basis              : AO
                                X                 Y                 Z
Electronic contribution:     -4.470698105      -0.588476189       0.347379457
Nuclear contribution   :      5.063231029       1.111013900      -0.814845363
                        -----------------------------------------
Total Dipole Moment    :      0.592532924       0.522537712      -0.467465906
                        -----------------------------------------
Magnitude (a.u.)       :      0.917968027
Magnitude (Debye)      :      2.333289296

Rotational constants in cm-1:             0.561477             0.198405             0.154997
Rotational constants in MHz :         16832.657651          5948.035188          4646.684837

                             ****ORCA TERMINATED NORMALLY****
TOTAL RUN TIME: 0 days 0 hours 0 minutes 7 seconds 726 msec
