                         Program Version 6.0.1  -  RELEASE   -
|  1> ! pbe def2-sv(p) def2/J RI DEFGRID1 loosescf d4 GCP(DFT/SV(P)) printgap
|  2> %output
|  3>     printlevel normal
|  4> end
|  5> * xyz 0 1
|  6> C -2.2334427357 -1.0671261084 0.3527562522
|  7> C -0.9509220066 -0.3766061215 0.8649797817
|  8> H -1.082114101 -0.1220654184 1.9258195085
|  9> C -0.7160945678 0.9329049233 0.0807681888
| 10> H -1.1759064349 0.8221448409 -0.9140055127
| 11> C 0.7555099399 1.3225081261 -0.167403494
| 12> H 0.9658370052 2.2048153405 0.4497941199
| 13> C 1.77796043 0.2148717336 0.1824513606
| 14> H 2.6725095945 0.3557841839 -0.4350978469
| 15> C 1.1231539674 -1.137143199 -0.1286184426
| 16> H 1.8135382361 -1.9684524587 0.0623869397
| 17> O 0.1020074673 -1.3389573858 0.8176728881
| 18> O 0.6875435473 -1.2444659624 -1.4441617161
| 19> O 2.1960564751 0.2662395371 1.5147717628
| 20> O 0.8468727392 1.6248269047 -1.550196328
| 21> O -1.3101841978 2.0113462228 0.7688455737
| 22> O -2.2012220341 -1.2774018617 -1.0297025331
| 23> H -3.1074013531 -0.4422599182 0.5546664189
| 24> H -2.3423582273 -2.016095366 0.8952570166
| 25> H 0.5205214501 -0.3628878767 -1.8171434705
| 26> H 1.5290342505 -0.1773858444 2.0571097936
| 27> H 1.6430917144 2.1402690408 -1.7173716157
| 28> H -2.2685695889 1.9322270904 0.7181653152
| 29> H -1.3591632482 -1.7083597864 -1.2522129234
| 30> *
| 31>
| 32>                          ****END OF INPUT****

CARTESIAN COORDINATES (ANGSTROEM)
---------------------------------
  C     -2.233443   -1.067126    0.352756
  C     -0.950922   -0.376606    0.864980
  H     -1.082114   -0.122065    1.925820
  C     -0.716095    0.932905    0.080768
  H     -1.175906    0.822145   -0.914006
  C      0.755510    1.322508   -0.167403
  H      0.965837    2.204815    0.449794
  C      1.777960    0.214872    0.182451
  H      2.672510    0.355784   -0.435098
  C      1.123154   -1.137143   -0.128618
  H      1.813538   -1.968452    0.062387
  O      0.102007   -1.338957    0.817673
  O      0.687544   -1.244466   -1.444162
  O      2.196056    0.266240    1.514772
  O      0.846873    1.624827   -1.550196
  O     -1.310184    2.011346    0.768846
  O     -2.201222   -1.277402   -1.029703
  H     -3.107401   -0.442260    0.554666
  H     -2.342358   -2.016095    0.895257
  H      0.520521   -0.362888   -1.817143
  H      1.529034   -0.177386    2.057110
  H      1.643092    2.140269   -1.717372
  H     -2.268570    1.932227    0.718165
  H     -1.359163   -1.708360   -1.252213

 Total Charge           Charge          ....    0
 Multiplicity           Mult            ....    1
 Number of Electrons    NEL             ....   96
 Basis Dimension        Dim             ....  192

ORBITAL ENERGIES
----------------

  NO   OCC          E(Eh)            E(eV)
   0   2.0000     -18.780021      -511.0304
   1   2.0000     -18.779644      -511.0201
   2   2.0000     -18.775062      -510.8954
   3   2.0000     -18.761263      -510.5199
   4   2.0000     -18.757874      -510.4277
   5   2.0000     -18.744815      -510.0723
   6   2.0000      -9.994093      -271.9531
   7   2.0000      -9.953749      -270.8553
   8   2.0000      -9.951850      -270.8036
   9   2.0000      -9.950494      -270.7667
  10   2.0000      -9.950245      -270.7599
  11   2.0000      -9.936139      -270.3761
  12   2.0000      -0.995454       -27.0877
  13   2.0000      -0.955848       -26.0100
  14   2.0000      -0.940222       -25.5847
  15   2.0000      -0.938459       -25.5368
  16   2.0000      -0.926047       -25.1990
  17   2.0000      -0.917590       -24.9689
  18   2.0000      -0.710245       -19.3267
  19   2.0000      -0.695646       -18.9295
  20   2.0000      -0.630607       -17.1597
  21   2.0000      -0.599985       -16.3264
  22   2.0000      -0.570755       -15.5310
  23   2.0000      -0.528500       -14.3812
  24   2.0000      -0.520622       -14.1668
  25   2.0000      -0.499758       -13.5991
  26   2.0000      -0.486048       -13.2261
  27   2.0000      -0.471978       -12.8432
  28   2.0000      -0.450948       -12.2709
  29   2.0000      -0.433248       -11.7893
  30   2.0000      -0.428201       -11.6519
  31   2.0000      -0.405469       -11.0334
  32   2.0000      -0.391047       -10.6409
  33   2.0000      -0.376449       -10.2437
  34   2.0000      -0.370425       -10.0798
  35   2.0000      -0.356610        -9.7038
  36   2.0000      -0.340690        -9.2706
  37   2.0000      -0.322742        -8.7823
  38   2.0000      -0.312562        -8.5052
  39   2.0000      -0.300314        -8.1720
  40   2.0000      -0.293777        -7.9941
  41   2.0000      -0.284556        -7.7432
  42   2.0000      -0.265476        -7.2240
  43   2.0000      -0.264207        -7.1894
  44   2.0000      -0.241177        -6.5628
  45   2.0000      -0.234079        -6.3696
  46   2.0000      -0.216217        -5.8836
  47   2.0000      -0.208286        -5.6678
  48   0.0000       0.005198         0.1414
  49   0.0000       0.017048         0.4639
  50   0.0000       0.028380         0.7722
  51   0.0000       0.054950         1.4953
  52   0.0000       0.060750         1.6531

MULLIKEN ATOMIC CHARGES
-----------------------
   0 C :    0.078897
   1 C :   -0.029319
   2 H :    0.070724
   3 C :    0.037118
   4 H :    0.086530
   5 C :    0.013657
   6 H :    0.088271
   7 C :    0.046354
   8 H :    0.070373
   9 C :    0.164518
  10 H :    0.082924
  11 O :   -0.316892
  12 O :   -0.407273
  13 O :   -0.409967
  14 O :   -0.414026
  15 O :   -0.411295
  16 O :   -0.441515
  17 H :    0.067765
  18 H :    0.086389
  19 H :    0.313808
  20 H :    0.307047
  21 H :    0.311772
  22 H :    0.303026
  23 H :    0.301113
Sum of atomic charges:   -0.0000000

LOEWDIN ATOMIC CHARGES
----------------------
   0 C :   -0.127311
   1 C :   -0.093321
   2 H :    0.112218
   3 C :   -0.077162
   4 H :    0.113752
   5 C :   -0.074823
   6 H :    0.120698
   7 C :   -0.097106
   8 H :    0.113882
   9 C :   -0.011465
  10 H :    0.111880
  11 O :   -0.148830
  12 O :   -0.297033
  13 O :   -0.307087
  14 O :   -0.311969
  15 O :   -0.312470
  16 O :   -0.336081
  17 H :    0.105048
  18 H :    0.105390
  19 H :    0.277269
  20 H :    0.282773
  21 H :    0.293409
  22 H :    0.286565
  23 H :    0.271773

  Mayer bond orders larger than 0.100000
B(  0-C ,  1-C ) :   1.0374 B(  0-C , 16-O ) :   1.0942 B(  0-C , 17-H ) :   0.9186
B(  0-C , 18-H ) :   0.9063 B(  1-C ,  2-H ) :   0.8829 B(  1-C ,  3-C ) :   0.9940
B(  1-C , 11-O ) :   0.9463 B(  3-C ,  4-H ) :   0.8747 B(  3-C ,  5-C ) :   1.0144
B(  3-C , 15-O ) :   1.0593 B(  5-C ,  6-H ) :   0.8703 B(  5-C ,  7-C ) :   0.9533
B(  5-C , 14-O ) :   1.0231 B(  7-C ,  8-H ) :   0.8951 B(  7-C ,  9-C ) :   1.0196
B(  7-C , 13-O ) :   1.0744 B(  9-C , 10-H ) :   0.9065 B(  9-C , 11-O ) :   1.0329
B(  9-C , 12-O ) :   1.0935 B( 12-O , 19-H ) :   0.7895 B( 13-O , 20-H ) :   0.8294
B( 14-O , 19-H ) :   0.1091 B( 14-O , 21-H ) :   0.8415 B( 15-O , 22-H ) :   0.8466
B( 16-O , 23-H ) :   0.7992

Dispersion correction           -0.025835548
FINAL SINGLE POINT ENERGY      -685.692031624447

DIPOLE MOMENT
-------------

Method             : SCF
Type of density    : Electron Density
Multiplicity       :   1
Irrep              :   0
Energy             :  -685.8271065368913924 Eh
Relativity type    :
Basis              : AO
                                X                 Y                 Z
Electronic contribution:      2.166712865      -0.109237395      -0.353771239
Nuclear contribution   :     -2.050756076       0.617682320       0.481090285
                        -----------------------------------------
Total Dipole Moment    :      0.115956789       0.508444925       0.127319046
                        -----------------------------------------
Magnitude (a.u.)       :      0.536816876
Magnitude (Debye)      :      1.364480062

Rotational constants in cm-1:             0.039170             0.029291             0.025627
Rotational constants in MHz :          1174.287200           878.115713           768.273554

                             ****ORCA TERMINATED NORMALLY****
TOTAL RUN TIME: 0 days 0 hours 0 minutes 11 seconds 552 msec
