                         Program Version 6.0.1  -  RELEASE   -
|  1> ! r2scan-3c def2/J RI DEFGRID2 scfconv6 printgap
|  2> %output
|  3>     printlevel normal
|  4> end
|  5> * xyz 0 1
|  6> C -1.6025642274 0.1033887075 -0.508178815
|  7> C -0.6691724668 -0.4696117869 0.5539591101
|  8> C 0.6736356861 0.2638325694 0.6121125092
|  9> O 1.4769472912 0.0521845776 -0.5237908152
| 10> H -1.1926463897 -0.0318321434 -1.5078325635
| 11> H -2.5656174944 -0.40002485 -0.4739485143
| 12> H -1.7657733062 1.1665636921 -0.3403383075
| 13> H -0.4828739354 -1.5255090822 0.3490009801
| 14> H -1.1419945831 -0.3915150438 1.5343437941
| 15> H 0.4980863556 1.3402835113 0.7610455852
| 16> H 1.2634052338 -0.10751089 1.4535591847
| 17> H 0.986700475 0.3413401091 -1.3011915081
| 18> *
| 19>
| 20>                          ****END OF INPUT****

CARTESIAN COORDINATES (ANGSTROEM)
---------------------------------
  C     -1.602564    0.103389   -0.508179
  C     -0.669172   -0.469612    0.553959
  C      0.673636    0.263833    0.612113
  O      1.476947    0.052185   -0.523791
  H     -1.192646   -0.031832   -1.507833
  H     -2.565617   -0.400025   -0.473949
  H     -1.765773    1.166564   -0.340338
  H     -0.482874   -1.525509    0.349001
  H     -1.141995   -0.391515    1.534344
  H      0.498086    1.340284    0.761046
  H      1.263405   -0.107511    1.453559
  H      0.986700    0.341340   -1.301192

 Total Charge           Charge          ....    0
 Multiplicity           Mult            ....    1
 Number of Electrons    NEL             ....   34
 Basis Dimension        Dim             ....  121

ORBITAL ENERGIES
----------------

  NO   OCC          E(Eh)            E(eV)
   0   2.0000     -18.945727      -515.5394
   1   2.0000     -10.072525      -274.0873
   2   2.0000     -10.029194      -272.9083
   3   2.0000     -10.026502      -272.8350
   4   2.0000      -0.985345       -26.8126
   5   2.0000      -0.746049       -20.3010
   6   2.0000      -0.648705       -17.6521
   7   2.0000      -0.560855       -15.2616
   8   2.0000      -0.475138       -12.9292
   9   2.0000      -0.431723       -11.7478
  10   2.0000      -0.407180       -11.0799
  11   2.0000      -0.389566       -10.6006
  12   2.0000      -0.348917        -9.4945
  13   2.0000      -0.327451        -8.9104
  14   2.0000      -0.316853        -8.6220
  15   2.0000      -0.288211        -7.8426
  16   2.0000      -0.234540        -6.3822
  17   0.0000       0.057949         1.5769
  18   0.0000       0.110252         3.0001
  19   0.0000       0.121954         3.3186
  20   0.0000       0.136912         3.7256
  21   0.0000       0.142866         3.8876

MULLIKEN ATOMIC CHARGES
-----------------------
   0 C :   -0.475140
   1 C :   -0.226534
   2 C :   -0.146712
   3 O :   -0.419168
   4 H :    0.131359
   5 H :    0.152369
   6 H :    0.148178
   7 H :    0.148610
   8 H :    0.132871
   9 H :    0.123179
  10 H :    0.140196
  11 H :    0.290791
Sum of atomic charges:    0.0000000

LOEWDIN ATOMIC CHARGES
----------------------
   0 C :   -0.429359
   1 C :   -0.310140
   2 C :   -0.002198
   3 O :   -0.617713
   4 H :    0.144492
   5 H :    0.155119
   6 H :    0.151798
   7 H :    0.159949
   8 H :    0.156670
   9 H :    0.153487
  10 H :    0.175588
  11 H :    0.262308

  Mayer bond orders larger than 0.100000
B(  0-C ,  1-C ) :   0.8982 B(  0-C ,  4-H ) :   0.9781 B(  0-C ,  5-H ) :   0.9694
B(  0-C ,  6-H ) :   0.9799 B(  1-C ,  2-C ) :   0.9242 B(  1-C ,  7-H ) :   0.9669
B(  1-C ,  8-H ) :   0.9607 B(  2-C ,  3-O ) :   0.9273 B(  2-C ,  9-H ) :   0.9790
B(  2-C , 10-H ) :   0.9760 B(  3-O , 11-H ) :   0.8967

Dispersion correction           -0.002130446
FINAL SINGLE POINT ENERGY      -194.298680951572

DIPOLE MOMENT
-------------

Method             : SCF
Type of density    : Electron Density
Multiplicity       :   1
Irrep              :   0
Energy             :  -194.3036125557408127 Eh
Relativity type    :
Basis              : AO
                                X                 Y                 Z
Electronic contribution:      3.462298718      -0.191986733      -0.419741339
Nuclear contribution   :     -4.106673746       0.368342596       0.437516132
                        -----------------------------------------
Total Dipole Moment    :     -0.644375028       0.176355863       0.017774794
                        -----------------------------------------
Magnitude (a.u.)       :      0.668308694
Magnitude (Debye)      :      1.698705701

Rotational constants in cm-1:             0.490158             0.166564             0.142292
Rotational constants in MHz :         14694.581084          4993.457658          4265.793298

                             ****ORCA TERMINATED NORMALLY****
TOTAL RUN TIME: 0 days 0 hours 0 minutes 7 seconds 117 msec
