                         Program Version 6.0.1  -  RELEASE   -
|  1> ! pbe def2-sv(p) def2/J RI DEFGRID1 loosescf d4 GCP(DFT/SV(P)) printgap
|  2> %output
|  3>     printlevel normal
|  4> end
|  5> * xyz 0 1
|  6> C -1.8560389427 -0.75415841 -1.0175437759
|  7> C -1.2593693094 -0.6528389194 0.4131217469
|  8> H -2.0168231603 -0.9920214415 1.133901235
|  9> C -0.8607676528 0.7825721247 0.7838711003
| 10> H -1.7260170223 1.4384865015 0.6073006857
| 11> C 0.3021641886 1.2870603525 -0.0829064269
| 12> H 0.8598595626 2.0215739898 0.5135250082
| 13> C 1.2681960509 0.1439311498 -0.4334044112
| 14> H 1.0204924965 -0.2462113029 -1.4371152732
| 15> C 1.1150830227 -1.0076569308 0.5785559656
| 16> H 1.3673992517 -0.6303319891 1.5822192191
| 17> O -0.1741637535 -1.5634903895 0.543592701
| 18> O 2.0245601384 -2.0216897024 0.2920072739
| 19> O 2.5863904011 0.6256683234 -0.4297021504
| 20> O -0.2384691019 1.8884149192 -1.2389455454
| 21> O -0.4494476979 0.8775254058 2.1270478813
| 22> O -2.6539163076 0.3340488316 -1.3790878835
| 23> H -2.495015858 -1.639235198 -1.0644666819
| 24> H -1.0340185225 -0.8936646863 -1.7303977358
| 25> H 1.5843972807 -2.6546751325 -0.2891062752
| 26> H 3.1717766192 -0.1234484564 -0.2520217162
| 27> H 0.4910183981 2.253153445 -1.7528890044
| 28> H -1.1490982111 0.5386815187 2.6976249558
| 29> H -2.0737844209 1.0941236179 -1.5381274512
| 30> *
| 31>
| 32>                          ****END OF INPUT****

CARTESIAN COORDINATES (ANGSTROEM)
---------------------------------
  C     -1.856039   -0.754158   -1.017544
  C     -1.259369   -0.652839    0.413122
  H     -2.016823   -0.992021    1.133901
  C     -0.860768    0.782572    0.783871
  H     -1.726017    1.438487    0.607301
  C      0.302164    1.287060   -0.082906
  H      0.859860    2.021574    0.513525
  C      1.268196    0.143931   -0.433404
  H      1.020492   -0.246211   -1.437115
  C      1.115083   -1.007657    0.578556
  H      1.367399   -0.630332    1.582219
  O     -0.174164   -1.563490    0.543593
  O      2.024560   -2.021690    0.292007
  O      2.586390    0.625668   -0.429702
  O     -0.238469    1.888415   -1.238946
  O     -0.449448    0.877525    2.127048
  O     -2.653916    0.334049   -1.379088
  H     -2.495016   -1.639235   -1.064467
  H     -1.034019   -0.893665   -1.730398
  H      1.584397   -2.654675   -0.289106
  H      3.171777   -0.123448   -0.252022
  H      0.491018    2.253153   -1.752889
  H     -1.149098    0.538682    2.697625
  H     -2.073784    1.094124   -1.538127

 Total Charge           Charge          ....    0
 Multiplicity           Mult            ....    1
 Number of Electrons    NEL             ....   96
 Basis Dimension        Dim             ....  192

ORBITAL ENERGIES
----------------

  NO   OCC          E(Eh)            E(eV)
   0   2.0000     -18.778490      -510.9887
   1   2.0000     -18.775059      -510.8953
   2   2.0000     -18.766259      -510.6559
   3   2.0000     -18.765182      -510.6266
   4   2.0000     -18.752192      -510.2731
   5   2.0000     -18.740454      -509.9537
   6   2.0000      -9.986322      -271.7416
   7   2.0000      -9.953483      -270.8480
   8   2.0000      -9.952374      -270.8179
   9   2.0000      -9.950007      -270.7535
  10   2.0000      -9.940573      -270.4968
  11   2.0000      -9.931781      -270.2575
  12   2.0000      -0.989716       -26.9315
  13   2.0000      -0.957272       -26.0487
  14   2.0000      -0.944302       -25.6958
  15   2.0000      -0.930476       -25.3195
  16   2.0000      -0.920374       -25.0447
  17   2.0000      -0.913343       -24.8533
  18   2.0000      -0.711992       -19.3743
  19   2.0000      -0.688458       -18.7339
  20   2.0000      -0.622564       -16.9408
  21   2.0000      -0.591682       -16.1005
  22   2.0000      -0.570469       -15.5232
  23   2.0000      -0.528775       -14.3887
  24   2.0000      -0.519108       -14.1257
  25   2.0000      -0.494734       -13.4624
  26   2.0000      -0.481022       -13.0893
  27   2.0000      -0.457858       -12.4590
  28   2.0000      -0.441326       -12.0091
  29   2.0000      -0.433439       -11.7945
  30   2.0000      -0.428246       -11.6532
  31   2.0000      -0.402225       -10.9451
  32   2.0000      -0.392773       -10.6879
  33   2.0000      -0.378563       -10.3012
  34   2.0000      -0.368703       -10.0329
  35   2.0000      -0.362313        -9.8590
  36   2.0000      -0.331639        -9.0243
  37   2.0000      -0.329704        -8.9717
  38   2.0000      -0.315146        -8.5756
  39   2.0000      -0.289784        -7.8854
  40   2.0000      -0.286692        -7.8013
  41   2.0000      -0.282994        -7.7006
  42   2.0000      -0.261008        -7.1024
  43   2.0000      -0.248106        -6.7513
  44   2.0000      -0.236260        -6.4290
  45   2.0000      -0.230688        -6.2774
  46   2.0000      -0.215439        -5.8624
  47   2.0000      -0.198174        -5.3926
  48   0.0000       0.009988         0.2718
  49   0.0000       0.023836         0.6486
  50   0.0000       0.030819         0.8386
  51   0.0000       0.048026         1.3069
  52   0.0000       0.055282         1.5043

MULLIKEN ATOMIC CHARGES
-----------------------
   0 C :    0.044545
   1 C :    0.029257
   2 H :    0.059399
   3 C :   -0.037493
   4 H :    0.083931
   5 C :    0.137705
   6 H :    0.082192
   7 C :    0.004266
   8 H :    0.038206
   9 C :    0.198183
  10 H :    0.069624
  11 O :   -0.320216
  12 O :   -0.395007
  13 O :   -0.420681
  14 O :   -0.429866
  15 O :   -0.408271
  16 O :   -0.434977
  17 H :    0.088449
  18 H :    0.071078
  19 H :    0.299976
  20 H :    0.304178
  21 H :    0.321480
  22 H :    0.305904
  23 H :    0.308138
Sum of atomic charges:   -0.0000000

LOEWDIN ATOMIC CHARGES
----------------------
   0 C :   -0.136733
   1 C :   -0.069712
   2 H :    0.109129
   3 C :   -0.077707
   4 H :    0.112798
   5 C :   -0.055697
   6 H :    0.122291
   7 C :   -0.102576
   8 H :    0.096982
   9 C :   -0.005115
  10 H :    0.102811
  11 O :   -0.150477
  12 O :   -0.304587
  13 O :   -0.324356
  14 O :   -0.310414
  15 O :   -0.308312
  16 O :   -0.336316
  17 H :    0.115696
  18 H :    0.093946
  19 H :    0.285604
  20 H :    0.283297
  21 H :    0.299173
  22 H :    0.289780
  23 H :    0.270494

  Mayer bond orders larger than 0.100000
B(  0-C ,  1-C ) :   0.9943 B(  0-C , 16-O ) :   1.1279 B(  0-C , 17-H ) :   0.9211
B(  0-C , 18-H ) :   0.9117 B(  1-C ,  2-H ) :   0.8758 B(  1-C ,  3-C ) :   1.0580
B(  1-C , 11-O ) :   0.9727 B(  3-C ,  4-H ) :   0.8768 B(  3-C ,  5-C ) :   1.0286
B(  3-C , 15-O ) :   1.0241 B(  5-C ,  6-H ) :   0.8537 B(  5-C ,  7-C ) :   1.0103
B(  5-C , 14-O ) :   1.0195 B(  7-C ,  8-H ) :   0.8317 B(  7-C ,  9-C ) :   1.0480
B(  7-C , 13-O ) :   1.0832 B(  9-C , 10-H ) :   0.8703 B(  9-C , 11-O ) :   1.0398
B(  9-C , 12-O ) :   1.0921 B( 12-O , 19-H ) :   0.8405 B( 13-O , 20-H ) :   0.8281
B( 14-O , 21-H ) :   0.8405 B( 15-O , 22-H ) :   0.8448 B( 16-O , 23-H ) :   0.8036

Dispersion correction           -0.025467203
FINAL SINGLE POINT ENERGY      -685.689557337741

DIPOLE MOMENT
-------------

Method             : SCF
Type of density    : Electron Density
Multiplicity       :   1
Irrep              :   0
Energy             :  -685.8223758882394350 Eh
Relativity type    :
Basis              : AO
                                X                 Y                 Z
Electronic contribution:      1.957519214      -0.269523841       1.327325066
Nuclear contribution   :     -1.859944167       0.158221567      -1.436241482
                        -----------------------------------------
Total Dipole Moment    :      0.097575048      -0.111302275      -0.108916416
                        -----------------------------------------
Magnitude (a.u.)       :      0.183771249
Magnitude (Debye)      :      0.467109394

Rotational constants in cm-1:             0.040091             0.026886             0.023787
Rotational constants in MHz :          1201.887162           806.032475           713.113617

                             ****ORCA TERMINATED NORMALLY****
TOTAL RUN TIME: 0 days 0 hours 0 minutes 9 seconds 229 msec
