                         Program Version 6.0.0  -   RELEASE  -
|  1> ! r2SCAN-3c DEF2-TZVP FREQ
|  2> * xyzfile 0 1 censo.xyz
|  3>
|  4>                          ****END OF INPUT****

CARTESIAN COORDINATES (ANGSTROEM)
---------------------------------
  C      2.345931   -0.713889    0.128238
  C      0.863429   -0.530127    0.445693
  H      0.692388   -0.886086    1.473570
  C     -0.012049   -1.388465   -0.476195
  C     -1.496706   -1.263920   -0.129308
  C     -1.947095    0.197962   -0.149933
  C     -1.071339    1.048478    0.773863
  C      0.423547    0.951402    0.425687
  H      0.984887    1.466380    1.218688
  C      0.745441    1.665193   -0.890667
  H      2.560861   -0.487329   -0.922002
  H      2.971270   -0.061194    0.748516
  H      2.655626   -1.748926    0.310996
  H      0.147156   -1.084558   -1.520164
  H      0.307018   -2.436171   -0.404892
  H     -2.101121   -1.860370   -0.823200
  H     -1.665634   -1.675475    0.876091
  H     -1.892776    0.582524   -1.177104
  H     -2.996685    0.275974    0.157943
  H     -1.390278    2.097886    0.741268
  H     -1.215697    0.702933    1.807231
  H      0.356024    2.689563   -0.869138
  H      0.303820    1.163088   -1.757444
  H      1.825331    1.727273   -1.058649

 Total Charge           Charge          ....    0
 Multiplicity           Mult            ....    1
 Number of Electrons    NEL             ....   64
 Basis Dimension        Dim             ....  344

ORBITAL ENERGIES
----------------

  NO   OCC          E(Eh)            E(eV)
   0   2.0000     -10.028663      -272.8938
   1   2.0000     -10.028218      -272.8817
   2   2.0000     -10.021508      -272.6991
   3   2.0000     -10.021129      -272.6888
   4   2.0000     -10.020245      -272.6647
   5   2.0000     -10.019954      -272.6568
   6   2.0000     -10.015506      -272.5358
   7   2.0000     -10.015061      -272.5237
   8   2.0000      -0.802141       -21.8274
   9   2.0000      -0.728379       -19.8202
  10   2.0000      -0.718537       -19.5524
  11   2.0000      -0.656620       -17.8675
  12   2.0000      -0.624152       -16.9840
  13   2.0000      -0.563484       -15.3332
  14   2.0000      -0.547481       -14.8977
  15   2.0000      -0.492981       -13.4147
  16   2.0000      -0.445612       -12.1257
  17   2.0000      -0.423503       -11.5241
  18   2.0000      -0.406039       -11.0489
  19   2.0000      -0.400402       -10.8955
  20   2.0000      -0.380021       -10.3409
  21   2.0000      -0.367997       -10.0137
  22   2.0000      -0.354793        -9.6544
  23   2.0000      -0.346137        -9.4189
  24   2.0000      -0.334519        -9.1027
  25   2.0000      -0.321455        -8.7472
  26   2.0000      -0.310446        -8.4477
  27   2.0000      -0.303860        -8.2685
  28   2.0000      -0.292948        -7.9715
  29   2.0000      -0.275604        -7.4996
  30   2.0000      -0.261986        -7.1290
  31   2.0000      -0.258587        -7.0365
  32   0.0000       0.034982         0.9519
  33   0.0000       0.050764         1.3814
  34   0.0000       0.065282         1.7764
  35   0.0000       0.074904         2.0382
  36   0.0000       0.091606         2.4927

MULLIKEN ATOMIC CHARGES
-----------------------
   0 C :   -0.358260
   1 C :    0.014773
   2 H :    0.043083
   3 C :   -0.228814
   4 C :   -0.125214
   5 C :   -0.190651
   6 C :   -0.170854
   7 C :    0.091904
   8 H :    0.042930
   9 C :   -0.423926
  10 H :    0.106624
  11 H :    0.106961
  12 H :    0.105124
  13 H :    0.082027
  14 H :    0.085227
  15 H :    0.084999
  16 H :    0.071162
  17 H :    0.085308
  18 H :    0.086318
  19 H :    0.084353
  20 H :    0.077475
  21 H :    0.106446
  22 H :    0.108195
  23 H :    0.114811
Sum of atomic charges:   -0.0000000

LOEWDIN ATOMIC CHARGES
----------------------
   0 C :   -0.284075
   1 C :   -0.263491
   2 H :    0.151318
   3 C :   -0.238073
   4 C :   -0.260214
   5 C :   -0.261270
   6 C :   -0.238120
   7 C :   -0.260570
   8 H :    0.148940
   9 C :   -0.283216
  10 H :    0.119777
  11 H :    0.120293
  12 H :    0.119564
  13 H :    0.134716
  14 H :    0.134961
  15 H :    0.131195
  16 H :    0.134038
  17 H :    0.133475
  18 H :    0.132092
  19 H :    0.133179
  20 H :    0.136125
  21 H :    0.121725
  22 H :    0.117078
  23 H :    0.120554

  Mayer bond orders larger than 0.100000
B(  0-C ,  1-C ) :   0.9317 B(  0-C , 10-H ) :   0.9745 B(  0-C , 11-H ) :   0.9785
B(  0-C , 12-H ) :   0.9767 B(  1-C ,  2-H ) :   0.9540 B(  1-C ,  3-C ) :   0.9882
B(  1-C ,  7-C ) :   0.9689 B(  3-C ,  4-C ) :   0.9945 B(  3-C , 13-H ) :   0.9632
B(  3-C , 14-H ) :   0.9621 B(  4-C ,  5-C ) :   0.9915 B(  4-C , 15-H ) :   0.9654
B(  4-C , 16-H ) :   0.9615 B(  5-C ,  6-C ) :   0.9957 B(  5-C , 17-H ) :   0.9681
B(  5-C , 18-H ) :   0.9637 B(  6-C ,  7-C ) :   0.9710 B(  6-C , 19-H ) :   0.9672
B(  6-C , 20-H ) :   0.9628 B(  7-C ,  8-H ) :   0.9519 B(  7-C ,  9-C ) :   0.9256
B(  9-C , 21-H ) :   0.9753 B(  9-C , 22-H ) :   0.9732 B(  9-C , 23-H ) :   0.9771

Dispersion correction           -0.007674897
FINAL SINGLE POINT ENERGY      -314.417508690142

DIPOLE MOMENT
-------------

Method             : SCF
Type of density    : Electron Density
Multiplicity       :   1
Irrep              :   0
Energy             :  -314.4203851938314074 Eh
Relativity type    :
Basis              : AO
                                X                 Y                 Z
Electronic contribution:     -1.500076909      -0.432327683       1.208353203
Nuclear contribution   :      1.478040133       0.427569769      -1.167289920
                        -----------------------------------------
Total Dipole Moment    :     -0.022036776      -0.004757914       0.041063283
                        -----------------------------------------
Magnitude (a.u.)       :      0.046844962
Magnitude (Debye)      :      0.119070430

VIBRATIONAL FREQUENCIES
-----------------------

Scaling factor for frequencies =  1.000000000  (already applied!)

     0:       0.00 cm**-1
     1:       0.00 cm**-1
     2:       0.00 cm**-1
     3:       0.00 cm**-1
     4:       0.00 cm**-1
     5:       0.00 cm**-1
     6:     143.07 cm**-1
     7:     187.73 cm**-1
     8:     240.39 cm**-1
     9:     263.27 cm**-1
    10:     305.54 cm**-1
    11:     321.87 cm**-1
    12:     335.25 cm**-1
    13:     399.96 cm**-1
    14:     417.51 cm**-1
    15:     476.78 cm**-1
    16:     540.79 cm**-1
    17:     598.83 cm**-1
    18:     736.29 cm**-1
    19:     814.30 cm**-1
    20:     835.50 cm**-1
    21:     848.12 cm**-1
    22:     892.36 cm**-1
    23:     933.03 cm**-1
    24:     953.58 cm**-1
    25:     986.03 cm**-1
    26:     991.47 cm**-1
    27:    1017.44 cm**-1
    28:    1032.73 cm**-1
    29:    1065.17 cm**-1
    30:    1102.83 cm**-1
    31:    1109.06 cm**-1
    32:    1114.30 cm**-1
    33:    1175.92 cm**-1
    34:    1184.02 cm**-1
    35:    1241.22 cm**-1
    36:    1272.44 cm**-1
    37:    1280.90 cm**-1
    38:    1325.00 cm**-1
    39:    1331.48 cm**-1
    40:    1341.45 cm**-1
    41:    1357.95 cm**-1
    42:    1360.74 cm**-1
    43:    1368.39 cm**-1
    44:    1380.72 cm**-1
    45:    1386.11 cm**-1
    46:    1401.72 cm**-1
    47:    1405.82 cm**-1
    48:    1471.66 cm**-1
    49:    1473.25 cm**-1
    50:    1477.57 cm**-1
    51:    1488.85 cm**-1
    52:    1490.77 cm**-1
    53:    1497.88 cm**-1
    54:    1501.23 cm**-1
    55:    1509.26 cm**-1
    56:    2967.95 cm**-1
    57:    2979.82 cm**-1
    58:    2984.66 cm**-1
    59:    2990.92 cm**-1
    60:    2994.34 cm**-1
    61:    2996.48 cm**-1
    62:    2997.54 cm**-1
    63:    3006.46 cm**-1
    64:    3034.10 cm**-1
    65:    3035.27 cm**-1
    66:    3040.41 cm**-1
    67:    3049.76 cm**-1
    68:    3070.24 cm**-1
    69:    3071.78 cm**-1
    70:    3076.73 cm**-1
    71:    3086.89 cm**-1

IR SPECTRUM
-----------

 Mode   freq       eps      Int      T**2         TX        TY        TZ
       cm**-1   L/(mol*cm) km/mol    a.u.
----------------------------------------------------------------------------
  6:    143.07   0.000004    0.02  0.000008  ( 0.001150 -0.000963  0.002350)
  7:    187.73   0.000005    0.03  0.000008  (-0.001587 -0.000219  0.002392)
  8:    240.39   0.000002    0.01  0.000002  ( 0.000868  0.001255 -0.000071)
  9:    263.27   0.000007    0.03  0.000008  ( 0.001062 -0.002553 -0.000593)
 10:    305.54   0.000002    0.01  0.000002  (-0.000746 -0.000536 -0.001191)
 11:    321.87   0.000002    0.01  0.000002  ( 0.000867 -0.001227  0.000327)
 12:    335.25   0.000007    0.04  0.000007  ( 0.000293 -0.001654 -0.001971)
 13:    399.96   0.000026    0.13  0.000021  (-0.002935 -0.003333  0.000894)
 14:    417.51   0.000036    0.18  0.000027  ( 0.001350 -0.002294  0.004436)
 15:    476.78   0.000074    0.37  0.000048  (-0.001238  0.004987 -0.004691)
 16:    540.79   0.000049    0.25  0.000028  (-0.000331  0.005313  0.000109)
 17:    598.83   0.000334    1.69  0.000174  ( 0.008274  0.009313 -0.004340)
 18:    736.29   0.000054    0.27  0.000023  ( 0.004244 -0.000080  0.002241)
 19:    814.30   0.000072    0.36  0.000027  ( 0.004714  0.000957 -0.002083)
 20:    835.50   0.000174    0.88  0.000065  ( 0.002641  0.007184  0.002526)
 21:    848.12   0.000255    1.29  0.000094  ( 0.008364  0.003780  0.003125)
 22:    892.36   0.000159    0.80  0.000055  ( 0.001436  0.004467  0.005782)
 23:    933.03   0.000087    0.44  0.000029  (-0.002005  0.004550 -0.002129)
 24:    953.58   0.000356    1.80  0.000117  (-0.010729 -0.001003 -0.000641)
 25:    986.03   0.000099    0.50  0.000031  (-0.003396 -0.003701 -0.002481)
 26:    991.47   0.000309    1.56  0.000097  (-0.000278  0.001275 -0.009779)
 27:   1017.44   0.000588    2.97  0.000180  ( 0.007976 -0.010757 -0.000957)
 28:   1032.73   0.000253    1.28  0.000076  (-0.000602 -0.008711  0.000356)
 29:   1065.17   0.000082    0.41  0.000024  (-0.000502  0.004860 -0.000255)
 30:   1102.83   0.000034    0.17  0.000010  (-0.002759  0.001266  0.000633)
 31:   1109.06   0.000324    1.64  0.000091  (-0.003874  0.008559 -0.001692)
 32:   1114.30   0.000162    0.82  0.000045  ( 0.002144 -0.001312  0.006248)
 33:   1175.92   0.000516    2.61  0.000137  ( 0.010750 -0.003947 -0.002413)
 34:   1184.02   0.000303    1.53  0.000080  (-0.004424  0.007126  0.003101)
 35:   1241.22   0.000051    0.26  0.000013  (-0.003090  0.001745 -0.000403)
 36:   1272.44   0.000126    0.63  0.000031  ( 0.004671  0.002894 -0.000774)
 37:   1280.90   0.000083    0.42  0.000020  (-0.001457  0.003660  0.002144)
 38:   1325.00   0.000116    0.59  0.000027  ( 0.002213  0.004323  0.001960)
 39:   1331.48   0.000068    0.34  0.000016  ( 0.002561  0.001949 -0.002353)
 40:   1341.45   0.000116    0.59  0.000027  ( 0.004814  0.001942  0.000084)
 41:   1357.95   0.000018    0.09  0.000004  (-0.000462 -0.001721  0.000935)
 42:   1360.74   0.000069    0.35  0.000016  ( 0.000963 -0.003796 -0.000666)
 43:   1368.39   0.000059    0.30  0.000014  (-0.002544 -0.000980 -0.002474)
 44:   1380.72   0.000118    0.60  0.000027  (-0.001933  0.002375 -0.004156)
 45:   1386.11   0.000433    2.19  0.000097  (-0.009463 -0.002188 -0.001760)
 46:   1401.72   0.000856    4.32  0.000190  ( 0.006507 -0.012055  0.001682)
 47:   1405.82   0.002085   10.54  0.000463  (-0.010360 -0.011718  0.014770)
 48:   1471.66   0.000394    1.99  0.000083  ( 0.008619  0.002868  0.000971)
 49:   1473.25   0.000915    4.62  0.000194  ( 0.009662 -0.006143 -0.007918)
 50:   1477.57   0.001573    7.95  0.000332  ( 0.000564  0.015797 -0.009073)
 51:   1488.85   0.001020    5.16  0.000214  ( 0.008034 -0.011074  0.005164)
 52:   1490.77   0.002026   10.24  0.000424  (-0.004783  0.003155  0.019779)
 53:   1497.88   0.002521   12.74  0.000525  ( 0.010113  0.011405  0.017113)
 54:   1501.23   0.000223    1.12  0.000046  ( 0.005532 -0.003464  0.001914)
 55:   1509.26   0.000240    1.21  0.000050  ( 0.001636  0.005988  0.003338)
 56:   2967.95   0.003335   16.86  0.000351  ( 0.008808  0.011903 -0.011465)
 57:   2979.82   0.002381   12.03  0.000249  (-0.015742  0.001133 -0.000549)
 58:   2984.66   0.005701   28.81  0.000596  (-0.014352 -0.019349  0.003961)
 59:   2990.92   0.003292   16.64  0.000343  ( 0.005343 -0.007168 -0.016234)
 60:   2994.34   0.016951   85.66  0.001767  ( 0.002501 -0.015377 -0.039037)
 61:   2996.48   0.003719   18.79  0.000387  ( 0.019357 -0.002682  0.002318)
 62:   2997.54   0.009104   46.01  0.000948  (-0.028146  0.011957 -0.003548)
 63:   3006.46   0.004790   24.20  0.000497  ( 0.008984  0.016456 -0.012067)
 64:   3034.10   0.015880   80.25  0.001633  ( 0.006381 -0.039761  0.003402)
 65:   3035.27   0.002894   14.63  0.000298  (-0.016031 -0.006187 -0.001504)
 66:   3040.41   0.007908   39.97  0.000812  ( 0.026478  0.003897  0.009769)
 67:   3049.76   0.016345   82.60  0.001673  (-0.008634 -0.014038  0.037429)
 68:   3070.24   0.005224   26.40  0.000531  ( 0.007186  0.019380  0.010184)
 69:   3071.78   0.009939   50.23  0.001010  (-0.014700  0.026402 -0.009826)
 70:   3076.73   0.009063   45.80  0.000919  ( 0.002912 -0.005883 -0.029600)
 71:   3086.89   0.006031   30.48  0.000610  (-0.019612 -0.011544 -0.009581)

--------------------------
THERMOCHEMISTRY AT 298.15K
--------------------------

Temperature         ...   298.15 K
Pressure            ...     1.00 atm
Total Mass          ...   112.22 AMU
Quasi RRHO          ...     True
Cut-Off Frequency   ...     1.00 cm^-1

Throughout the following assumptions are being made:
  (1) The electronic state is orbitally nondegenerate
  (2) There are no thermally accessible electronically excited states
  (3) Hindered rotations indicated by low frequency modes are not
      treated as such but are treated as vibrations and this may
      cause some error
  (4) All equations used are the standard statistical mechanics
      equations for an ideal gas
  (5) All vibrations are strictly harmonic

freq.     143.07  E(vib)   ...       0.41
freq.     187.73  E(vib)   ...       0.36
freq.     240.39  E(vib)   ...       0.31
freq.     263.27  E(vib)   ...       0.29
freq.     305.54  E(vib)   ...       0.26
freq.     321.87  E(vib)   ...       0.25
freq.     335.25  E(vib)   ...       0.24
freq.     399.96  E(vib)   ...       0.19
freq.     417.51  E(vib)   ...       0.18
freq.     476.78  E(vib)   ...       0.15
freq.     540.79  E(vib)   ...       0.12
freq.     598.83  E(vib)   ...       0.10
freq.     736.29  E(vib)   ...       0.06
freq.     814.30  E(vib)   ...       0.05
freq.     835.50  E(vib)   ...       0.04
freq.     848.12  E(vib)   ...       0.04
freq.     892.36  E(vib)   ...       0.03
freq.     933.03  E(vib)   ...       0.03
freq.     953.58  E(vib)   ...       0.03
freq.     986.03  E(vib)   ...       0.02
freq.     991.47  E(vib)   ...       0.02
freq.    1017.44  E(vib)   ...       0.02
freq.    1032.73  E(vib)   ...       0.02
freq.    1065.17  E(vib)   ...       0.02
freq.    1102.83  E(vib)   ...       0.02
freq.    1109.06  E(vib)   ...       0.02
freq.    1114.30  E(vib)   ...       0.01
freq.    1175.92  E(vib)   ...       0.01
freq.    1184.02  E(vib)   ...       0.01
freq.    1241.22  E(vib)   ...       0.01
freq.    1272.44  E(vib)   ...       0.01
freq.    1280.90  E(vib)   ...       0.01
freq.    1325.00  E(vib)   ...       0.01
freq.    1331.48  E(vib)   ...       0.01
freq.    1341.45  E(vib)   ...       0.01
freq.    1357.95  E(vib)   ...       0.01
freq.    1360.74  E(vib)   ...       0.01
freq.    1368.39  E(vib)   ...       0.01
freq.    1380.72  E(vib)   ...       0.01
freq.    1386.11  E(vib)   ...       0.00
freq.    1401.72  E(vib)   ...       0.00
freq.    1405.82  E(vib)   ...       0.00
freq.    1471.66  E(vib)   ...       0.00
freq.    1473.25  E(vib)   ...       0.00
freq.    1477.57  E(vib)   ...       0.00
freq.    1488.85  E(vib)   ...       0.00
freq.    1490.77  E(vib)   ...       0.00
freq.    1497.88  E(vib)   ...       0.00
freq.    1501.23  E(vib)   ...       0.00
freq.    1509.26  E(vib)   ...       0.00
freq.    2967.95  E(vib)   ...       0.00
freq.    2979.82  E(vib)   ...       0.00
freq.    2984.66  E(vib)   ...       0.00
freq.    2990.92  E(vib)   ...       0.00
freq.    2994.34  E(vib)   ...       0.00
freq.    2996.48  E(vib)   ...       0.00
freq.    2997.54  E(vib)   ...       0.00
freq.    3006.46  E(vib)   ...       0.00
freq.    3034.10  E(vib)   ...       0.00
freq.    3035.27  E(vib)   ...       0.00
freq.    3040.41  E(vib)   ...       0.00
freq.    3049.76  E(vib)   ...       0.00
freq.    3070.24  E(vib)   ...       0.00
freq.    3071.78  E(vib)   ...       0.00
freq.    3076.73  E(vib)   ...       0.00
freq.    3086.89  E(vib)   ...       0.00

------------
INNER ENERGY
------------

The inner energy is: U= E(el) + E(ZPE) + E(vib) + E(rot) + E(trans)
    E(el)   - is the total energy from the electronic structure calculation
              = E(kin-el) + E(nuc-el) + E(el-el) + E(nuc-nuc)
    E(ZPE)  - the the zero temperature vibrational energy from the frequency calculation
    E(vib)  - the the finite temperature correction to E(ZPE) due to population
              of excited vibrational states
    E(rot)  - is the rotational thermal energy
    E(trans)- is the translational thermal energy

Summary of contributions to the inner energy U:
Electronic energy                ...   -314.41750869 Eh
Zero point energy                ...      0.22501658 Eh     141.20 kcal/mol
Thermal vibrational correction   ...      0.00549120 Eh       3.45 kcal/mol
Thermal rotational correction    ...      0.00141627 Eh       0.89 kcal/mol
Thermal translational correction ...      0.00141627 Eh       0.89 kcal/mol
-----------------------------------------------------------------------
Total thermal energy                   -314.18416836 Eh

Summary of corrections to the electronic energy:
(perhaps to be used in another calculation)
Total thermal correction                  0.00832375 Eh       5.22 kcal/mol
Non-thermal (ZPE) correction              0.22501658 Eh     141.20 kcal/mol
-----------------------------------------------------------------------
Total correction                          0.23334033 Eh     146.42 kcal/mol

--------
ENTHALPY
--------

The enthalpy is H = U + kB*T
                kB is Boltzmann's constant
Total thermal energy              ...   -314.18416836 Eh
Thermal Enthalpy correction       ...      0.00094421 Eh       0.59 kcal/mol
-----------------------------------------------------------------------
Total Enthalpy                    ...   -314.18322415 Eh

Note: Only C1 symmetry has been detected, increase convergence thresholds
      if your molecule has a higher symmetry. Symmetry factor of 1.0 is
      used for the rotational entropy correction.

Note: Rotational entropy computed according to Herzberg
Infrared and Raman Spectra, Chapter V,1, Van Nostrand Reinhold, 1945
Point Group:  C1, Symmetry Number:   1
Rotational constants in cm-1:     0.088498     0.063526     0.045835

Vibrational entropy computed according to the QRRHO of S. Grimme
Chem.Eur.J. 2012 18 9955 using a reference frequency of 100.0 cm-1

-------
ENTROPY
-------

The entropy contributions are T*S = T*(S(el)+S(vib)+S(rot)+S(trans))
     S(el)   - electronic entropy
     S(vib)  - vibrational entropy
     S(rot)  - rotational entropy
     S(trans)- translational entropy
The entropies will be listed as multiplied by the temperature to get
units of energy

Electronic entropy                ...      0.00000000 Eh      0.00 kcal/mol
Vibrational entropy               ...      0.00867164 Eh      5.44 kcal/mol
Rotational entropy                ...      0.01341206 Eh      8.42 kcal/mol
Translational entropy             ...      0.01903448 Eh     11.94 kcal/mol
-----------------------------------------------------------------------
Final entropy term                ...      0.04111818 Eh     25.80 kcal/mol

                             ****ORCA TERMINATED NORMALLY****
TOTAL RUN TIME: 0 days 0 hours 25 minutes 7 seconds 615 msec
