                         Program Version 6.0.0  -   RELEASE  -
|  1> ! r2SCAN-3c DEF2-TZVP FREQ
|  2> * xyzfile 0 1 vacuum_censo.xyz
|  3>
|  4>                          ****END OF INPUT****

CARTESIAN COORDINATES (ANGSTROEM)
---------------------------------
  C      0.724790   -1.676536   -0.898167
  C      0.393363   -0.966401    0.418464
  H      0.925249   -1.503216    1.217455
  C     -1.110158   -1.030145    0.738454
  C     -1.948700   -0.147278   -0.189241
  C     -1.463386    1.302802   -0.140128
  C      0.029786    1.396224   -0.459927
  C      0.869901    0.503874    0.463435
  H      0.690586    0.850532    1.493362
  C      2.362199    0.655432    0.174744
  H      0.308534   -2.689384   -0.896341
  H      0.315558   -1.155132   -1.768489
  H      1.805143   -1.764831   -1.043373
  H     -1.455055   -2.070414    0.690818
  H     -1.263836   -0.693319    1.773348
  H     -1.886486   -0.519696   -1.220282
  H     -3.005428   -0.204546    0.097036
  H     -2.041253    1.925057   -0.833505
  H     -1.640175    1.704204    0.867995
  H      0.199944    1.105914   -1.505961
  H      0.372728    2.434664   -0.370054
  H      2.959801   -0.021604    0.795301
  H      2.693891    1.679092    0.377433
  H      2.589651    0.439449   -0.874562

 Total Charge           Charge          ....    0
 Multiplicity           Mult            ....    1
 Number of Electrons    NEL             ....   64
 Basis Dimension        Dim             ....  344

ORBITAL ENERGIES
----------------

  NO   OCC          E(Eh)            E(eV)
   0   2.0000     -10.028793      -272.8973
   1   2.0000     -10.028381      -272.8861
   2   2.0000     -10.021528      -272.6997
   3   2.0000     -10.021102      -272.6880
   4   2.0000     -10.020235      -272.6645
   5   2.0000     -10.020003      -272.6582
   6   2.0000     -10.015397      -272.5328
   7   2.0000     -10.014780      -272.5160
   8   2.0000      -0.801857       -21.8196
   9   2.0000      -0.728357       -19.8196
  10   2.0000      -0.718435       -19.5496
  11   2.0000      -0.656731       -17.8706
  12   2.0000      -0.624284       -16.9876
  13   2.0000      -0.563490       -15.3333
  14   2.0000      -0.547615       -14.9014
  15   2.0000      -0.493007       -13.4154
  16   2.0000      -0.445551       -12.1241
  17   2.0000      -0.423230       -11.5167
  18   2.0000      -0.405978       -11.0472
  19   2.0000      -0.400301       -10.8927
  20   2.0000      -0.380052       -10.3417
  21   2.0000      -0.368010       -10.0141
  22   2.0000      -0.354794        -9.6544
  23   2.0000      -0.346338        -9.4243
  24   2.0000      -0.334623        -9.1056
  25   2.0000      -0.321284        -8.7426
  26   2.0000      -0.310514        -8.4495
  27   2.0000      -0.303845        -8.2680
  28   2.0000      -0.292918        -7.9707
  29   2.0000      -0.275427        -7.4948
  30   2.0000      -0.262079        -7.1315
  31   2.0000      -0.258656        -7.0384
  32   0.0000       0.034981         0.9519
  33   0.0000       0.050938         1.3861
  34   0.0000       0.065331         1.7777
  35   0.0000       0.074973         2.0401
  36   0.0000       0.091758         2.4968

MULLIKEN ATOMIC CHARGES
-----------------------
   0 C :   -0.422959
   1 C :    0.091006
   2 H :    0.042861
   3 C :   -0.171229
   4 C :   -0.190031
   5 C :   -0.125853
   6 C :   -0.228380
   7 C :    0.013846
   8 H :    0.043087
   9 C :   -0.357816
  10 H :    0.106444
  11 H :    0.108184
  12 H :    0.114785
  13 H :    0.084666
  14 H :    0.077420
  15 H :    0.085023
  16 H :    0.086429
  17 H :    0.085236
  18 H :    0.071157
  19 H :    0.081788
  20 H :    0.085406
  21 H :    0.107079
  22 H :    0.105280
  23 H :    0.106568
Sum of atomic charges:    0.0000000

LOEWDIN ATOMIC CHARGES
----------------------
   0 C :   -0.283018
   1 C :   -0.260033
   2 H :    0.148949
   3 C :   -0.238163
   4 C :   -0.261272
   5 C :   -0.260104
   6 C :   -0.238034
   7 C :   -0.263121
   8 H :    0.151379
   9 C :   -0.283963
  10 H :    0.121478
  11 H :    0.116960
  12 H :    0.120378
  13 H :    0.133031
  14 H :    0.136161
  15 H :    0.133393
  16 H :    0.132007
  17 H :    0.131094
  18 H :    0.134039
  19 H :    0.134597
  20 H :    0.134861
  21 H :    0.120257
  22 H :    0.119445
  23 H :    0.119680

  Mayer bond orders larger than 0.100000
B(  0-C ,  1-C ) :   0.9260 B(  0-C , 10-H ) :   0.9753 B(  0-C , 11-H ) :   0.9734
B(  0-C , 12-H ) :   0.9771 B(  1-C ,  2-H ) :   0.9518 B(  1-C ,  3-C ) :   0.9712
B(  1-C ,  7-C ) :   0.9692 B(  3-C ,  4-C ) :   0.9959 B(  3-C , 13-H ) :   0.9671
B(  3-C , 14-H ) :   0.9630 B(  4-C ,  5-C ) :   0.9917 B(  4-C , 15-H ) :   0.9679
B(  4-C , 16-H ) :   0.9637 B(  5-C ,  6-C ) :   0.9947 B(  5-C , 17-H ) :   0.9654
B(  5-C , 18-H ) :   0.9616 B(  6-C ,  7-C ) :   0.9889 B(  6-C , 19-H ) :   0.9628
B(  6-C , 20-H ) :   0.9622 B(  7-C ,  8-H ) :   0.9541 B(  7-C ,  9-C ) :   0.9319
B(  9-C , 21-H ) :   0.9785 B(  9-C , 22-H ) :   0.9767 B(  9-C , 23-H ) :   0.9745

Dispersion correction           -0.007669936
FINAL SINGLE POINT ENERGY      -314.417528121122

DIPOLE MOMENT
-------------

Method             : SCF
Type of density    : Electron Density
Multiplicity       :   1
Irrep              :   0
Energy             :  -314.4204046001540291 Eh
Relativity type    :
Basis              : AO
                                X                 Y                 Z
Electronic contribution:     -1.511392253       0.454381736       1.177217440
Nuclear contribution   :      1.488800924      -0.449203686      -1.136794392
                        -----------------------------------------
Total Dipole Moment    :     -0.022591329       0.005178050       0.040423048
                        -----------------------------------------
Magnitude (a.u.)       :      0.046596171
Magnitude (Debye)      :      0.118438054

VIBRATIONAL FREQUENCIES
-----------------------

Scaling factor for frequencies =  1.000000000  (already applied!)

     0:       0.00 cm**-1
     1:       0.00 cm**-1
     2:       0.00 cm**-1
     3:       0.00 cm**-1
     4:       0.00 cm**-1
     5:       0.00 cm**-1
     6:     141.51 cm**-1
     7:     181.67 cm**-1
     8:     227.00 cm**-1
     9:     256.84 cm**-1
    10:     299.79 cm**-1
    11:     320.03 cm**-1
    12:     333.40 cm**-1
    13:     398.40 cm**-1
    14:     416.56 cm**-1
    15:     475.20 cm**-1
    16:     539.32 cm**-1
    17:     597.34 cm**-1
    18:     734.30 cm**-1
    19:     812.65 cm**-1
    20:     834.00 cm**-1
    21:     847.50 cm**-1
    22:     891.01 cm**-1
    23:     931.86 cm**-1
    24:     951.46 cm**-1
    25:     984.53 cm**-1
    26:     990.36 cm**-1
    27:    1016.25 cm**-1
    28:    1031.59 cm**-1
    29:    1064.34 cm**-1
    30:    1102.61 cm**-1
    31:    1108.22 cm**-1
    32:    1113.76 cm**-1
    33:    1174.73 cm**-1
    34:    1182.84 cm**-1
    35:    1240.83 cm**-1
    36:    1271.94 cm**-1
    37:    1280.55 cm**-1
    38:    1324.78 cm**-1
    39:    1331.39 cm**-1
    40:    1341.34 cm**-1
    41:    1357.71 cm**-1
    42:    1360.50 cm**-1
    43:    1368.23 cm**-1
    44:    1380.31 cm**-1
    45:    1385.60 cm**-1
    46:    1400.67 cm**-1
    47:    1404.12 cm**-1
    48:    1471.91 cm**-1
    49:    1473.43 cm**-1
    50:    1477.61 cm**-1
    51:    1488.07 cm**-1
    52:    1490.46 cm**-1
    53:    1497.62 cm**-1
    54:    1500.07 cm**-1
    55:    1508.06 cm**-1
    56:    2965.83 cm**-1
    57:    2979.61 cm**-1
    58:    2985.56 cm**-1
    59:    2992.89 cm**-1
    60:    2994.62 cm**-1
    61:    2999.46 cm**-1
    62:    3001.63 cm**-1
    63:    3013.93 cm**-1
    64:    3035.63 cm**-1
    65:    3036.83 cm**-1
    66:    3042.14 cm**-1
    67:    3050.96 cm**-1
    68:    3076.21 cm**-1
    69:    3078.41 cm**-1
    70:    3083.88 cm**-1
    71:    3094.68 cm**-1

IR SPECTRUM
-----------

 Mode   freq       eps      Int      T**2         TX        TY        TZ
       cm**-1   L/(mol*cm) km/mol    a.u.
----------------------------------------------------------------------------
  6:    141.51   0.000003    0.02  0.000007  (-0.001243 -0.000749 -0.002156)
  7:    181.67   0.000006    0.03  0.000010  ( 0.001745 -0.000301 -0.002579)
  8:    227.00   0.000001    0.01  0.000002  (-0.000634  0.001089 -0.000143)
  9:    256.84   0.000007    0.04  0.000009  (-0.001165 -0.002662  0.000436)
 10:    299.79   0.000002    0.01  0.000002  (-0.000659  0.000547 -0.001250)
 11:    320.03   0.000002    0.01  0.000002  (-0.000837 -0.001219 -0.000242)
 12:    333.40   0.000008    0.04  0.000007  ( 0.000289  0.001745 -0.002006)
 13:    398.40   0.000026    0.13  0.000021  ( 0.002940 -0.003353 -0.000897)
 14:    416.56   0.000036    0.18  0.000027  (-0.001413 -0.002150 -0.004492)
 15:    475.20   0.000076    0.38  0.000050  (-0.001336 -0.004927 -0.004852)
 16:    539.32   0.000049    0.25  0.000029  (-0.000471 -0.005319  0.000108)
 17:    597.34   0.000336    1.70  0.000176  (-0.008182  0.009459  0.004395)
 18:    734.30   0.000055    0.28  0.000023  (-0.004241  0.000111 -0.002322)
 19:    812.65   0.000072    0.36  0.000028  (-0.004728  0.001121  0.002013)
 20:    834.00   0.000184    0.93  0.000069  ( 0.002690 -0.007412  0.002612)
 21:    847.50   0.000243    1.23  0.000089  (-0.008046  0.003818 -0.003165)
 22:    891.01   0.000160    0.81  0.000056  ( 0.001248 -0.004617  0.005756)
 23:    931.86   0.000084    0.42  0.000028  ( 0.001958  0.004309  0.002388)
 24:    951.46   0.000362    1.83  0.000119  ( 0.010807 -0.001168  0.000778)
 25:    984.53   0.000103    0.52  0.000033  (-0.003236  0.003848 -0.002701)
 26:    990.36   0.000310    1.57  0.000098  ( 0.000109  0.001191  0.009814)
 27:   1016.25   0.000603    3.05  0.000185  (-0.008361 -0.010712  0.000764)
 28:   1031.59   0.000262    1.32  0.000079  (-0.000461  0.008868  0.000544)
 29:   1064.34   0.000082    0.41  0.000024  (-0.000635 -0.004839 -0.000372)
 30:   1102.61   0.000037    0.19  0.000011  (-0.002920 -0.001365  0.000409)
 31:   1108.22   0.000322    1.63  0.000091  ( 0.004030  0.008428  0.001865)
 32:   1113.76   0.000166    0.84  0.000047  ( 0.002083  0.001213  0.006383)
 33:   1174.73   0.000521    2.63  0.000138  (-0.010925 -0.003794  0.002150)
 34:   1182.84   0.000306    1.55  0.000081  ( 0.004754  0.007008 -0.003014)
 35:   1240.83   0.000050    0.25  0.000013  (-0.003151 -0.001559 -0.000556)
 36:   1271.94   0.000130    0.65  0.000032  (-0.004620  0.003175  0.000595)
 37:   1280.55   0.000082    0.41  0.000020  (-0.001652 -0.003601  0.002058)
 38:   1324.78   0.000108    0.55  0.000025  ( 0.001854 -0.004265  0.001963)
 39:   1331.39   0.000074    0.37  0.000017  ( 0.002744 -0.002200 -0.002224)
 40:   1341.34   0.000118    0.59  0.000027  (-0.004770  0.002142 -0.000090)
 41:   1357.71   0.000015    0.08  0.000003  (-0.000546  0.001332  0.001171)
 42:   1360.50   0.000073    0.37  0.000017  (-0.000959 -0.003932  0.000670)
 43:   1368.23   0.000060    0.30  0.000014  (-0.002568  0.000902 -0.002515)
 44:   1380.31   0.000155    0.78  0.000035  ( 0.001972  0.002819  0.004816)
 45:   1385.60   0.000436    2.20  0.000098  ( 0.009486 -0.001978  0.002060)
 46:   1400.67   0.000854    4.32  0.000190  (-0.006246 -0.012150 -0.001922)
 47:   1404.12   0.002079   10.51  0.000462  (-0.010636  0.011669  0.014585)
 48:   1471.91   0.000370    1.87  0.000078  ( 0.008013 -0.003371  0.001705)
 49:   1473.43   0.000890    4.50  0.000189  ( 0.010549  0.005024 -0.007211)
 50:   1477.61   0.001594    8.05  0.000337  ( 0.000147 -0.016225 -0.008563)
 51:   1488.07   0.001076    5.44  0.000226  ( 0.007307  0.010169  0.008292)
 52:   1490.46   0.002138   10.81  0.000448  ( 0.006258  0.005312 -0.019501)
 53:   1497.62   0.002433   12.30  0.000507  ( 0.010006 -0.011241  0.016748)
 54:   1500.07   0.000193    0.97  0.000040  (-0.004626 -0.004202 -0.001024)
 55:   1508.06   0.000212    1.07  0.000044  ( 0.001305 -0.005614  0.003249)
 56:   2965.83   0.003423   17.30  0.000360  ( 0.008555 -0.011837 -0.012118)
 57:   2979.61   0.002652   13.40  0.000278  ( 0.016211 -0.001288  0.003643)
 58:   2985.56   0.005303   26.80  0.000554  (-0.013062  0.019242  0.003665)
 59:   2992.89   0.004492   22.70  0.000468  (-0.009853 -0.007339  0.017815)
 60:   2994.62   0.015860   80.15  0.001653  ( 0.001452  0.016170 -0.037272)
 61:   2999.46   0.002667   13.48  0.000278  ( 0.012204  0.007878  0.008155)
 62:   3001.63   0.009850   49.78  0.001024  ( 0.031194  0.007104  0.000676)
 63:   3013.93   0.004630   23.40  0.000479  (-0.008106  0.014711  0.014043)
 64:   3035.63   0.016935   85.58  0.001741  (-0.005589 -0.041072 -0.004770)
 65:   3036.83   0.001919    9.70  0.000197  (-0.013738 -0.002819 -0.000700)
 66:   3042.14   0.009197   46.48  0.000943  (-0.028138  0.006720 -0.010323)
 67:   3050.96   0.016274   82.24  0.001665  (-0.008728  0.012711  0.037774)
 68:   3076.21   0.005489   27.74  0.000557  ( 0.007319 -0.016184  0.015536)
 69:   3078.41   0.010379   52.45  0.001052  (-0.011041 -0.025793 -0.016278)
 70:   3083.88   0.007451   37.66  0.000754  (-0.007720 -0.013519  0.022620)
 71:   3094.68   0.005959   30.12  0.000601  ( 0.020156 -0.010826  0.008802)

--------------------------
THERMOCHEMISTRY AT 298.15K
--------------------------

Temperature         ...   298.15 K
Pressure            ...     1.00 atm
Total Mass          ...   112.22 AMU
Quasi RRHO          ...     True
Cut-Off Frequency   ...     1.00 cm^-1

Throughout the following assumptions are being made:
  (1) The electronic state is orbitally nondegenerate
  (2) There are no thermally accessible electronically excited states
  (3) Hindered rotations indicated by low frequency modes are not
      treated as such but are treated as vibrations and this may
      cause some error
  (4) All equations used are the standard statistical mechanics
      equations for an ideal gas
  (5) All vibrations are strictly harmonic

freq.     141.51  E(vib)   ...       0.41
freq.     181.67  E(vib)   ...       0.37
freq.     227.00  E(vib)   ...       0.33
freq.     256.84  E(vib)   ...       0.30
freq.     299.79  E(vib)   ...       0.26
freq.     320.03  E(vib)   ...       0.25
freq.     333.40  E(vib)   ...       0.24
freq.     398.40  E(vib)   ...       0.20
freq.     416.56  E(vib)   ...       0.18
freq.     475.20  E(vib)   ...       0.15
freq.     539.32  E(vib)   ...       0.12
freq.     597.34  E(vib)   ...       0.10
freq.     734.30  E(vib)   ...       0.06
freq.     812.65  E(vib)   ...       0.05
freq.     834.00  E(vib)   ...       0.04
freq.     847.50  E(vib)   ...       0.04
freq.     891.01  E(vib)   ...       0.04
freq.     931.86  E(vib)   ...       0.03
freq.     951.46  E(vib)   ...       0.03
freq.     984.53  E(vib)   ...       0.02
freq.     990.36  E(vib)   ...       0.02
freq.    1016.25  E(vib)   ...       0.02
freq.    1031.59  E(vib)   ...       0.02
freq.    1064.34  E(vib)   ...       0.02
freq.    1102.61  E(vib)   ...       0.02
freq.    1108.22  E(vib)   ...       0.02
freq.    1113.76  E(vib)   ...       0.01
freq.    1174.73  E(vib)   ...       0.01
freq.    1182.84  E(vib)   ...       0.01
freq.    1240.83  E(vib)   ...       0.01
freq.    1271.94  E(vib)   ...       0.01
freq.    1280.55  E(vib)   ...       0.01
freq.    1324.78  E(vib)   ...       0.01
freq.    1331.39  E(vib)   ...       0.01
freq.    1341.34  E(vib)   ...       0.01
freq.    1357.71  E(vib)   ...       0.01
freq.    1360.50  E(vib)   ...       0.01
freq.    1368.23  E(vib)   ...       0.01
freq.    1380.31  E(vib)   ...       0.01
freq.    1385.60  E(vib)   ...       0.00
freq.    1400.67  E(vib)   ...       0.00
freq.    1404.12  E(vib)   ...       0.00
freq.    1471.91  E(vib)   ...       0.00
freq.    1473.43  E(vib)   ...       0.00
freq.    1477.61  E(vib)   ...       0.00
freq.    1488.07  E(vib)   ...       0.00
freq.    1490.46  E(vib)   ...       0.00
freq.    1497.62  E(vib)   ...       0.00
freq.    1500.07  E(vib)   ...       0.00
freq.    1508.06  E(vib)   ...       0.00
freq.    2965.83  E(vib)   ...       0.00
freq.    2979.61  E(vib)   ...       0.00
freq.    2985.56  E(vib)   ...       0.00
freq.    2992.89  E(vib)   ...       0.00
freq.    2994.62  E(vib)   ...       0.00
freq.    2999.46  E(vib)   ...       0.00
freq.    3001.63  E(vib)   ...       0.00
freq.    3013.93  E(vib)   ...       0.00
freq.    3035.63  E(vib)   ...       0.00
freq.    3036.83  E(vib)   ...       0.00
freq.    3042.14  E(vib)   ...       0.00
freq.    3050.96  E(vib)   ...       0.00
freq.    3076.21  E(vib)   ...       0.00
freq.    3078.41  E(vib)   ...       0.00
freq.    3083.88  E(vib)   ...       0.00
freq.    3094.68  E(vib)   ...       0.00

------------
INNER ENERGY
------------

The inner energy is: U= E(el) + E(ZPE) + E(vib) + E(rot) + E(trans)
    E(el)   - is the total energy from the electronic structure calculation
              = E(kin-el) + E(nuc-el) + E(el-el) + E(nuc-nuc)
    E(ZPE)  - the the zero temperature vibrational energy from the frequency calculation
    E(vib)  - the the finite temperature correction to E(ZPE) due to population
              of excited vibrational states
    E(rot)  - is the rotational thermal energy
    E(trans)- is the translational thermal energy

Summary of contributions to the inner energy U:
Electronic energy                ...   -314.41752812 Eh
Zero point energy                ...      0.22496106 Eh     141.16 kcal/mol
Thermal vibrational correction   ...      0.00555296 Eh       3.48 kcal/mol
Thermal rotational correction    ...      0.00141627 Eh       0.89 kcal/mol
Thermal translational correction ...      0.00141627 Eh       0.89 kcal/mol
-----------------------------------------------------------------------
Total thermal energy                   -314.18418155 Eh

Summary of corrections to the electronic energy:
(perhaps to be used in another calculation)
Total thermal correction                  0.00838551 Eh       5.26 kcal/mol
Non-thermal (ZPE) correction              0.22496106 Eh     141.16 kcal/mol
-----------------------------------------------------------------------
Total correction                          0.23334657 Eh     146.43 kcal/mol

--------
ENTHALPY
--------

The enthalpy is H = U + kB*T
                kB is Boltzmann's constant
Total thermal energy              ...   -314.18418155 Eh
Thermal Enthalpy correction       ...      0.00094421 Eh       0.59 kcal/mol
-----------------------------------------------------------------------
Total Enthalpy                    ...   -314.18323734 Eh

Note: Only C1 symmetry has been detected, increase convergence thresholds
      if your molecule has a higher symmetry. Symmetry factor of 1.0 is
      used for the rotational entropy correction.

Note: Rotational entropy computed according to Herzberg
Infrared and Raman Spectra, Chapter V,1, Van Nostrand Reinhold, 1945
Point Group:  C1, Symmetry Number:   1
Rotational constants in cm-1:     0.088400     0.063475     0.045748

Vibrational entropy computed according to the QRRHO of S. Grimme
Chem.Eur.J. 2012 18 9955 using a reference frequency of 100.0 cm-1

-------
ENTROPY
-------

The entropy contributions are T*S = T*(S(el)+S(vib)+S(rot)+S(trans))
     S(el)   - electronic entropy
     S(vib)  - vibrational entropy
     S(rot)  - rotational entropy
     S(trans)- translational entropy
The entropies will be listed as multiplied by the temperature to get
units of energy

Electronic entropy                ...      0.00000000 Eh      0.00 kcal/mol
Vibrational entropy               ...      0.00881478 Eh      5.53 kcal/mol
Rotational entropy                ...      0.01341386 Eh      8.42 kcal/mol
Translational entropy             ...      0.01903448 Eh     11.94 kcal/mol
-----------------------------------------------------------------------
Final entropy term                ...      0.04126312 Eh     25.89 kcal/mol

                             ****ORCA TERMINATED NORMALLY****
TOTAL RUN TIME: 0 days 0 hours 25 minutes 2 seconds 173 msec
