                         Program Version 6.0.1  -  RELEASE   -
|  1> ! r2scan-3c def2/J RI DEFGRID2 scfconv6 printgap
|  2> %output
|  3>     printlevel normal
|  4> end
|  5> * xyz 0 1
|  6> C -2.1330595799 -0.8737171234 -0.372409038
|  7> C -1.2267573366 -0.3174521618 0.7454213026
|  8> H -1.8548857404 -0.3517421833 1.6482844304
|  9> C -0.75848197 1.1385831877 0.5938451961
| 10> H -1.5909389471 1.7789690662 0.2792057572
| 11> C 0.3982239073 1.3091012509 -0.4119451931
| 12> H 0.8270598417 2.3077612215 -0.2283407269
| 13> C 1.515683268 0.2838421463 -0.1339016609
| 14> H 2.1346361778 0.1588392188 -1.0319084946
| 15> C 1.0006964981 -1.1408712104 0.2317624687
| 16> H 1.7903548542 -1.6167399748 0.8295990136
| 17> O -0.1128464907 -1.1251904624 1.1006659487
| 18> O 0.8286996528 -1.935779626 -0.8844054379
| 19> O 2.3811267069 0.7811147748 0.8555520242
| 20> O -0.1132690556 1.2599354045 -1.7276260997
| 21> O -0.3125778012 1.5947282168 1.8560373511
| 22> O -1.5740513621 -0.9750462487 -1.653795985
| 23> H -3.0339628415 -0.2457382131 -0.3971241496
| 24> H -2.4198614906 -1.8907166839 -0.0919992039
| 25> H -0.033072866 -1.7342954282 -1.3106267637
| 26> H 1.8560220489 1.1162797825 1.5949592648
| 27> H 0.6180313805 1.3459942661 -2.350084254
| 28> H -0.1186096471 0.8202301348 2.4021285937
| 29> H -1.2455783544 -0.0960844894 -1.9230937396
| 30> *
| 31>
| 32>                          ****END OF INPUT****

CARTESIAN COORDINATES (ANGSTROEM)
---------------------------------
  C     -2.133060   -0.873717   -0.372409
  C     -1.226757   -0.317452    0.745421
  H     -1.854886   -0.351742    1.648284
  C     -0.758482    1.138583    0.593845
  H     -1.590939    1.778969    0.279206
  C      0.398224    1.309101   -0.411945
  H      0.827060    2.307761   -0.228341
  C      1.515683    0.283842   -0.133902
  H      2.134636    0.158839   -1.031908
  C      1.000696   -1.140871    0.231762
  H      1.790355   -1.616740    0.829599
  O     -0.112846   -1.125190    1.100666
  O      0.828700   -1.935780   -0.884405
  O      2.381127    0.781115    0.855552
  O     -0.113269    1.259935   -1.727626
  O     -0.312578    1.594728    1.856037
  O     -1.574051   -0.975046   -1.653796
  H     -3.033963   -0.245738   -0.397124
  H     -2.419861   -1.890717   -0.091999
  H     -0.033073   -1.734295   -1.310627
  H      1.856022    1.116280    1.594959
  H      0.618031    1.345994   -2.350084
  H     -0.118610    0.820230    2.402129
  H     -1.245578   -0.096084   -1.923094

 Total Charge           Charge          ....    0
 Multiplicity           Mult            ....    1
 Number of Electrons    NEL             ....   96
 Basis Dimension        Dim             ....  318

ORBITAL ENERGIES
----------------

  NO   OCC          E(Eh)            E(eV)
   0   2.0000     -18.998241      -516.9684
   1   2.0000     -18.979877      -516.4687
   2   2.0000     -18.976943      -516.3889
   3   2.0000     -18.967815      -516.1405
   4   2.0000     -18.958188      -515.8785
   5   2.0000     -18.937157      -515.3062
   6   2.0000     -10.130028      -275.6521
   7   2.0000     -10.111986      -275.1611
   8   2.0000     -10.109536      -275.0945
   9   2.0000     -10.109479      -275.0929
  10   2.0000     -10.097952      -274.7792
  11   2.0000     -10.094647      -274.6893
  12   2.0000      -1.053012       -28.6539
  13   2.0000      -1.034025       -28.1372
  14   2.0000      -1.018603       -27.7176
  15   2.0000      -1.006720       -27.3942
  16   2.0000      -0.997641       -27.1472
  17   2.0000      -0.967412       -26.3246
  18   2.0000      -0.764133       -20.7931
  19   2.0000      -0.737691       -20.0736
  20   2.0000      -0.675086       -18.3700
  21   2.0000      -0.630882       -17.1672
  22   2.0000      -0.624438       -16.9918
  23   2.0000      -0.563809       -15.3420
  24   2.0000      -0.526242       -14.3198
  25   2.0000      -0.520154       -14.1541
  26   2.0000      -0.504511       -13.7284
  27   2.0000      -0.487537       -13.2666
  28   2.0000      -0.466741       -12.7007
  29   2.0000      -0.464171       -12.6307
  30   2.0000      -0.459313       -12.4985
  31   2.0000      -0.435068       -11.8388
  32   2.0000      -0.421774       -11.4771
  33   2.0000      -0.410470       -11.1695
  34   2.0000      -0.398424       -10.8417
  35   2.0000      -0.382480       -10.4078
  36   2.0000      -0.365326        -9.9410
  37   2.0000      -0.353352        -9.6152
  38   2.0000      -0.338538        -9.2121
  39   2.0000      -0.323622        -8.8062
  40   2.0000      -0.311720        -8.4823
  41   2.0000      -0.306212        -8.3324
  42   2.0000      -0.291807        -7.9405
  43   2.0000      -0.281060        -7.6480
  44   2.0000      -0.267760        -7.2861
  45   2.0000      -0.259497        -7.0613
  46   2.0000      -0.239565        -6.5189
  47   2.0000      -0.220845        -6.0095
  48   0.0000       0.012694         0.3454
  49   0.0000       0.037121         1.0101
  50   0.0000       0.060615         1.6494
  51   0.0000       0.069375         1.8878
  52   0.0000       0.084576         2.3014

MULLIKEN ATOMIC CHARGES
-----------------------
   0 C :   -0.201765
   1 C :   -0.044371
   2 H :    0.161900
   3 C :   -0.085313
   4 H :    0.171465
   5 C :    0.035647
   6 H :    0.160648
   7 C :   -0.068329
   8 H :    0.158538
   9 C :   -0.100757
  10 H :    0.157938
  11 O :   -0.217954
  12 O :   -0.399142
  13 O :   -0.385662
  14 O :   -0.427280
  15 O :   -0.442621
  16 O :   -0.467439
  17 H :    0.141407
  18 H :    0.161979
  19 H :    0.391000
  20 H :    0.308407
  21 H :    0.312349
  22 H :    0.336619
  23 H :    0.342737
Sum of atomic charges:   -0.0000000

LOEWDIN ATOMIC CHARGES
----------------------
   0 C :    0.026052
   1 C :    0.094315
   2 H :    0.205802
   3 C :    0.118834
   4 H :    0.194331
   5 C :    0.120946
   6 H :    0.197545
   7 C :    0.114023
   8 H :    0.200442
   9 C :    0.285859
  10 H :    0.217928
  11 O :   -0.666087
  12 O :   -0.516833
  13 O :   -0.574563
  14 O :   -0.594597
  15 O :   -0.580353
  16 O :   -0.611293
  17 H :    0.172850
  18 H :    0.191995
  19 H :    0.286734
  20 H :    0.274191
  21 H :    0.279044
  22 H :    0.279847
  23 H :    0.282988

  Mayer bond orders larger than 0.100000
B(  0-C ,  1-C ) :   0.9190 B(  0-C , 16-O ) :   0.9823 B(  0-C , 17-H ) :   0.9762
B(  0-C , 18-H ) :   0.9718 B(  1-C ,  2-H ) :   0.9477 B(  1-C ,  3-C ) :   0.8980
B(  1-C , 11-O ) :   0.8946 B(  3-C ,  4-H ) :   0.9754 B(  3-C ,  5-C ) :   0.8585
B(  3-C , 15-O ) :   0.9518 B(  5-C ,  6-H ) :   0.9759 B(  5-C ,  7-C ) :   0.8490
B(  5-C , 14-O ) :   0.8858 B(  7-C ,  8-H ) :   0.9914 B(  7-C ,  9-C ) :   0.8618
B(  7-C , 13-O ) :   0.9608 B(  9-C , 10-H ) :   0.9844 B(  9-C , 11-O ) :   0.9867
B(  9-C , 12-O ) :   1.0685 B( 12-O , 19-H ) :   0.7648 B( 13-O , 20-H ) :   0.8588
B( 14-O , 21-H ) :   0.8902 B( 15-O , 22-H ) :   0.8472 B( 16-O , 23-H ) :   0.8007

Dispersion correction           -0.008906916
FINAL SINGLE POINT ENERGY      -687.070900180444

DIPOLE MOMENT
-------------

Method             : SCF
Type of density    : Electron Density
Multiplicity       :   1
Irrep              :   0
Energy             :  -687.0849214298680181 Eh
Relativity type    :
Basis              : AO
                                X                 Y                 Z
Electronic contribution:      2.184172748      -0.617493092       0.486113344
Nuclear contribution   :     -2.864685331       1.488347436      -0.549920195
                        -----------------------------------------
Total Dipole Moment    :     -0.680512582       0.870854344      -0.063806851
                        -----------------------------------------
Magnitude (a.u.)       :      1.107048317
Magnitude (Debye)      :      2.813893199

Rotational constants in cm-1:             0.039734             0.030951             0.027976
Rotational constants in MHz :          1191.181513           927.897510           838.696927

                             ****ORCA TERMINATED NORMALLY****
TOTAL RUN TIME: 0 days 0 hours 0 minutes 40 seconds 490 msec
