                         Program Version 6.0.1  -  RELEASE   -
|  1> ! pbe def2-sv(p) def2/J RI DEFGRID1 loosescf d4 GCP(DFT/SV(P)) printgap
|  2> %output
|  3>     printlevel normal
|  4> end
|  5> * xyz 0 1
|  6> C 2.4048676609 -0.6618803773 0.0192774443
|  7> C 1.0407097244 -0.1322228916 0.4348102476
|  8> H 0.9442712072 -0.1960988529 1.5328916922
|  9> C 0.7601179431 1.3033285487 -0.0201415765
| 10> C -0.7642484979 1.3226110208 -0.0598871273
| 11> C -1.1142975325 -0.118452149 -0.4677934762
| 12> H -1.2732030821 -0.1818577787 -1.5550012084
| 13> O 0.0225107833 -0.9195294365 -0.1638749194
| 14> C -2.352372548 -0.6535695699 0.245202523
| 15> H 2.505848881 -0.6187895745 -1.0621983633
| 16> H 3.1897643495 -0.0665082505 0.4783759448
| 17> H 2.5095122645 -1.6961119688 0.3344380068
| 18> H 1.1815964594 2.0436279323 0.6561268119
| 19> H 1.1708858558 1.4567649767 -1.0193424646
| 20> H -1.1648712867 1.5329388319 0.9332109318
| 21> H -1.1642690502 2.0529330502 -0.7598252745
| 22> H -3.2179971935 -0.0459534369 -0.0063945612
| 23> H -2.2013781051 -0.6335904226 1.3220150751
| 24> H -2.5369145114 -1.6804070654 -0.0579697555
| 25> *
| 26>
| 27>                          ****END OF INPUT****

CARTESIAN COORDINATES (ANGSTROEM)
---------------------------------
  C      2.404868   -0.661880    0.019277
  C      1.040710   -0.132223    0.434810
  H      0.944271   -0.196099    1.532892
  C      0.760118    1.303329   -0.020142
  C     -0.764248    1.322611   -0.059887
  C     -1.114298   -0.118452   -0.467793
  H     -1.273203   -0.181858   -1.555001
  O      0.022511   -0.919529   -0.163875
  C     -2.352373   -0.653570    0.245203
  H      2.505849   -0.618790   -1.062198
  H      3.189764   -0.066508    0.478376
  H      2.509512   -1.696112    0.334438
  H      1.181596    2.043628    0.656127
  H      1.170886    1.456765   -1.019342
  H     -1.164871    1.532939    0.933211
  H     -1.164269    2.052933   -0.759825
  H     -3.217997   -0.045953   -0.006395
  H     -2.201378   -0.633590    1.322015
  H     -2.536915   -1.680407   -0.057970

 Total Charge           Charge          ....    0
 Multiplicity           Mult            ....    1
 Number of Electrons    NEL             ....   56
 Basis Dimension        Dim             ....  122

ORBITAL ENERGIES
----------------

  NO   OCC          E(Eh)            E(eV)
   0   2.0000     -18.739231      -509.9204
   1   2.0000      -9.933139      -270.2945
   2   2.0000      -9.932757      -270.2841
   3   2.0000      -9.886798      -269.0334
   4   2.0000      -9.886112      -269.0148
   5   2.0000      -9.871500      -268.6172
   6   2.0000      -9.870924      -268.6015
   7   2.0000      -0.932474       -25.3739
   8   2.0000      -0.706086       -19.2136
   9   2.0000      -0.701925       -19.1003
  10   2.0000      -0.636745       -17.3267
  11   2.0000      -0.571151       -15.5418
  12   2.0000      -0.531650       -14.4669
  13   2.0000      -0.490296       -13.3416
  14   2.0000      -0.454000       -12.3540
  15   2.0000      -0.431228       -11.7343
  16   2.0000      -0.386493       -10.5170
  17   2.0000      -0.379836       -10.3359
  18   2.0000      -0.372780       -10.1439
  19   2.0000      -0.356844        -9.7102
  20   2.0000      -0.340566        -9.2673
  21   2.0000      -0.326845        -8.8939
  22   2.0000      -0.320287        -8.7155
  23   2.0000      -0.298357        -8.1187
  24   2.0000      -0.289217        -7.8700
  25   2.0000      -0.284610        -7.7446
  26   2.0000      -0.260747        -7.0953
  27   2.0000      -0.193229        -5.2580
  28   0.0000       0.033909         0.9227
  29   0.0000       0.053444         1.4543
  30   0.0000       0.058089         1.5807
  31   0.0000       0.081739         2.2242
  32   0.0000       0.096144         2.6162

MULLIKEN ATOMIC CHARGES
-----------------------
   0 C :   -0.212687
   1 C :   -0.001348
   2 H :    0.057396
   3 C :   -0.145044
   4 C :   -0.155430
   5 C :    0.017845
   6 H :    0.063372
   7 O :   -0.334034
   8 C :   -0.226502
   9 H :    0.093484
  10 H :    0.095363
  11 H :    0.109103
  12 H :    0.090787
  13 H :    0.078889
  14 H :    0.078511
  15 H :    0.094359
  16 H :    0.095271
  17 H :    0.092257
  18 H :    0.108409
Sum of atomic charges:   -0.0000000

LOEWDIN ATOMIC CHARGES
----------------------
   0 C :   -0.340592
   1 C :   -0.045043
   2 H :    0.094974
   3 C :   -0.233455
   4 C :   -0.234343
   5 C :   -0.043813
   6 H :    0.101667
   7 O :   -0.168453
   8 C :   -0.344932
   9 H :    0.119692
  10 H :    0.122294
  11 H :    0.124850
  12 H :    0.122470
  13 H :    0.119487
  14 H :    0.118739
  15 H :    0.123990
  16 H :    0.120921
  17 H :    0.118093
  18 H :    0.123455

  Mayer bond orders larger than 0.100000
B(  0-C ,  1-C ) :   1.1319 B(  0-C ,  9-H ) :   0.9383 B(  0-C , 10-H ) :   0.9425
B(  0-C , 11-H ) :   0.9458 B(  1-C ,  2-H ) :   0.9022 B(  1-C ,  3-C ) :   1.0972
B(  1-C ,  7-O ) :   1.0132 B(  3-C ,  4-C ) :   1.1548 B(  3-C , 12-H ) :   0.9173
B(  3-C , 13-H ) :   0.9038 B(  4-C ,  5-C ) :   1.0867 B(  4-C , 14-H ) :   0.9128
B(  4-C , 15-H ) :   0.9184 B(  5-C ,  6-H ) :   0.9089 B(  5-C ,  7-O ) :   1.0163
B(  5-C ,  8-C ) :   1.1304 B(  8-C , 16-H ) :   0.9404 B(  8-C , 17-H ) :   0.9398
B(  8-C , 18-H ) :   0.9459

Dispersion correction           -0.015252171
FINAL SINGLE POINT ENERGY      -310.347054174532

DIPOLE MOMENT
-------------

Method             : SCF
Type of density    : Electron Density
Multiplicity       :   1
Irrep              :   0
Energy             :  -310.4175026552000531 Eh
Relativity type    :
Basis              : AO
                                X                 Y                 Z
Electronic contribution:      0.032284722      -1.292278916      -0.670929182
Nuclear contribution   :     -0.052910892       1.831680972       0.744655122
                        -----------------------------------------
Total Dipole Moment    :     -0.020626170       0.539402057       0.073725939
                        -----------------------------------------
Magnitude (a.u.)       :      0.544807793
Magnitude (Debye)      :      1.384791360

Rotational constants in cm-1:             0.164889             0.068064             0.053331
Rotational constants in MHz :          4943.234373          2040.492520          1598.808256

                             ****ORCA TERMINATED NORMALLY****
TOTAL RUN TIME: 0 days 0 hours 0 minutes 15 seconds 576 msec
