                         Program Version 6.0.1  -  RELEASE   -
|  1> ! r2scan-3c def2/J RI DEFGRID2 scfconv6 printgap
|  2> %output
|  3>     printlevel normal
|  4> end
|  5> * xyz 0 1
|  6> C -2.3718299095 0.1088888491 0.1959750155
|  7> C -0.9637309313 0.3960564444 -0.3145439569
|  8> C -0.0031793258 -0.6922450196 0.0663953029
|  9> C 1.3132843507 -0.586889598 0.1600861901
| 10> C 2.1335660566 0.6349632836 -0.0972398583
| 11> H -3.0518958883 0.9095745961 -0.0869490114
| 12> H -2.3723474889 0.0250366049 1.2807474317
| 13> H -2.7477854118 -0.8231777897 -0.2209487366
| 14> H -0.9890579391 0.4859257717 -1.405958857
| 15> H -0.6252008543 1.3546543968 0.0840136391
| 16> H -0.4635577505 -1.6510497155 0.2671038977
| 17> H 1.8891703595 -1.4591550875 0.4439401263
| 18> H 2.7191928963 0.8853018776 0.7874968433
| 19> H 1.5191236674 1.4884292813 -0.3663734138
| 20> H 2.83402415 0.443596857 -0.9102568778
| 21> *
| 22>
| 23>                          ****END OF INPUT****

CARTESIAN COORDINATES (ANGSTROEM)
---------------------------------
  C     -2.371830    0.108889    0.195975
  C     -0.963731    0.396056   -0.314544
  C     -0.003179   -0.692245    0.066395
  C      1.313284   -0.586890    0.160086
  C      2.133566    0.634963   -0.097240
  H     -3.051896    0.909575   -0.086949
  H     -2.372347    0.025037    1.280747
  H     -2.747785   -0.823178   -0.220949
  H     -0.989058    0.485926   -1.405959
  H     -0.625201    1.354654    0.084014
  H     -0.463558   -1.651050    0.267104
  H      1.889170   -1.459155    0.443940
  H      2.719193    0.885302    0.787497
  H      1.519124    1.488429   -0.366373
  H      2.834024    0.443597   -0.910257

 Total Charge           Charge          ....    0
 Multiplicity           Mult            ....    1
 Number of Electrons    NEL             ....   40
 Basis Dimension        Dim             ....  145

ORBITAL ENERGIES
----------------

  NO   OCC          E(Eh)            E(eV)
   0   2.0000     -10.027977      -272.8751
   1   2.0000     -10.022808      -272.7345
   2   2.0000     -10.021907      -272.7100
   3   2.0000     -10.019394      -272.6416
   4   2.0000     -10.017467      -272.5891
   5   2.0000      -0.771586       -20.9959
   6   2.0000      -0.719008       -19.5652
   7   2.0000      -0.647291       -17.6137
   8   2.0000      -0.581634       -15.8271
   9   2.0000      -0.495041       -13.4707
  10   2.0000      -0.441107       -12.0031
  11   2.0000      -0.412682       -11.2297
  12   2.0000      -0.397512       -10.8169
  13   2.0000      -0.379857       -10.3364
  14   2.0000      -0.348775        -9.4907
  15   2.0000      -0.337988        -9.1971
  16   2.0000      -0.324994        -8.8435
  17   2.0000      -0.315102        -8.5744
  18   2.0000      -0.290318        -7.9000
  19   2.0000      -0.217246        -5.9116
  20   0.0000      -0.000869        -0.0236
  21   0.0000       0.093168         2.5352
  22   0.0000       0.112760         3.0684
  23   0.0000       0.129815         3.5324
  24   0.0000       0.143558         3.9064

MULLIKEN ATOMIC CHARGES
-----------------------
   0 C :   -0.474540
   1 C :   -0.238094
   2 C :   -0.167419
   3 C :   -0.122308
   4 C :   -0.467432
   5 H :    0.144372
   6 H :    0.151567
   7 H :    0.140300
   8 H :    0.153278
   9 H :    0.139346
  10 H :    0.147944
  11 H :    0.147917
  12 H :    0.149519
  13 H :    0.144094
  14 H :    0.151455
Sum of atomic charges:   -0.0000000

LOEWDIN ATOMIC CHARGES
----------------------
   0 C :   -0.421382
   1 C :   -0.311409
   2 C :   -0.215031
   3 C :   -0.210687
   4 C :   -0.410670
   5 H :    0.149905
   6 H :    0.152504
   7 H :    0.150152
   8 H :    0.161589
   9 H :    0.157030
  10 H :    0.163882
  11 H :    0.159248
  12 H :    0.159377
  13 H :    0.154722
  14 H :    0.160768

  Mayer bond orders larger than 0.100000
B(  0-C ,  1-C ) :   0.8911 B(  0-C ,  5-H ) :   0.9757 B(  0-C ,  6-H ) :   0.9855
B(  0-C ,  7-H ) :   0.9748 B(  1-C ,  2-C ) :   0.9074 B(  1-C ,  8-H ) :   0.9639
B(  1-C ,  9-H ) :   0.9879 B(  2-C ,  3-C ) :   1.9477 B(  2-C , 10-H ) :   0.9477
B(  3-C ,  4-C ) :   0.9083 B(  3-C , 11-H ) :   0.9426 B(  4-C , 12-H ) :   0.9682
B(  4-C , 13-H ) :   0.9894 B(  4-C , 14-H ) :   0.9657

Dispersion correction           -0.003215163
FINAL SINGLE POINT ENERGY      -196.459556652824

DIPOLE MOMENT
-------------

Method             : SCF
Type of density    : Electron Density
Multiplicity       :   1
Irrep              :   0
Energy             :  -196.4625359960345179 Eh
Relativity type    :
Basis              : AO
                                X                 Y                 Z
Electronic contribution:      1.237236230      -1.429971820       0.065426608
Nuclear contribution   :     -1.208667585       1.556540816      -0.119320227
                        -----------------------------------------
Total Dipole Moment    :      0.028568644       0.126568997      -0.053893619
                        -----------------------------------------
Magnitude (a.u.)       :      0.140500536
Magnitude (Debye)      :      0.357123981

Rotational constants in cm-1:             0.466685             0.081738             0.073384
Rotational constants in MHz :         13990.867191          2450.447499          2199.997849

                             ****ORCA TERMINATED NORMALLY****
TOTAL RUN TIME: 0 days 0 hours 0 minutes 9 seconds 712 msec
