                         Program Version 6.0.1  -  RELEASE   -
|  1> ! pbe def2-sv(p) def2/J RI DEFGRID1 loosescf d4 GCP(DFT/SV(P)) printgap
|  2> %output
|  3>     printlevel normal
|  4> end
|  5> * xyz 0 1
|  6> C -2.2018808978 -1.2125766727 0.1086331301
|  7> C -0.8405969172 -0.5755271035 0.4287166042
|  8> H -0.8022594035 -0.301205209 1.4947189621
|  9> C -0.6019631796 0.7009305618 -0.3952698263
| 10> H -0.6628331676 0.4413142088 -1.4671402385
| 11> C 0.8014905992 1.2872858737 -0.1181428047
| 12> H 0.6836012813 2.1012225632 0.6030375383
| 13> C 1.7373601334 0.2231576174 0.4911792708
| 14> H 2.7684576767 0.4945255343 0.2200172539
| 15> C 1.4175212079 -1.1399265542 -0.1417446557
| 16> H 2.0937721518 -1.9212986578 0.2516726609
| 17> O 0.1306742354 -1.5855478603 0.1699372694
| 18> O 1.5985856274 -1.0106712277 -1.5273536744
| 19> O 1.5700464698 0.1935570871 1.8838661188
| 20> O 1.3748690276 1.8479933717 -1.2612022481
| 21> O -1.54622837 1.6855321265 -0.0756908879
| 22> O -3.2899067301 -0.4125281051 0.5011237818
| 23> H -2.2377686612 -2.2001591269 0.5850295445
| 24> H -2.3017320743 -1.3475026066 -0.9713519157
| 25> H 1.2863199574 -1.8187186601 -1.9525305377
| 26> H 2.1851004461 -0.4412483411 2.2688067706
| 27> H 1.5398430402 1.1338557974 -1.8926525846
| 28> H -2.4319587647 1.2945920965 -0.1375525711
| 29> H -3.2668307337 -0.297940079 1.4586663639
| 30> *
| 31>
| 32>                          ****END OF INPUT****

CARTESIAN COORDINATES (ANGSTROEM)
---------------------------------
  C     -2.201881   -1.212577    0.108633
  C     -0.840597   -0.575527    0.428717
  H     -0.802259   -0.301205    1.494719
  C     -0.601963    0.700931   -0.395270
  H     -0.662833    0.441314   -1.467140
  C      0.801491    1.287286   -0.118143
  H      0.683601    2.101223    0.603038
  C      1.737360    0.223158    0.491179
  H      2.768458    0.494526    0.220017
  C      1.417521   -1.139927   -0.141745
  H      2.093772   -1.921299    0.251673
  O      0.130674   -1.585548    0.169937
  O      1.598586   -1.010671   -1.527354
  O      1.570046    0.193557    1.883866
  O      1.374869    1.847993   -1.261202
  O     -1.546228    1.685532   -0.075691
  O     -3.289907   -0.412528    0.501124
  H     -2.237769   -2.200159    0.585030
  H     -2.301732   -1.347503   -0.971352
  H      1.286320   -1.818719   -1.952531
  H      2.185100   -0.441248    2.268807
  H      1.539843    1.133856   -1.892653
  H     -2.431959    1.294592   -0.137553
  H     -3.266831   -0.297940    1.458666

 Total Charge           Charge          ....    0
 Multiplicity           Mult            ....    1
 Number of Electrons    NEL             ....   96
 Basis Dimension        Dim             ....  192

ORBITAL ENERGIES
----------------

  NO   OCC          E(Eh)            E(eV)
   0   2.0000     -18.779253      -511.0095
   1   2.0000     -18.778930      -511.0007
   2   2.0000     -18.774660      -510.8845
   3   2.0000     -18.764384      -510.6049
   4   2.0000     -18.732861      -509.7471
   5   2.0000     -18.731384      -509.7069
   6   2.0000      -9.995872      -272.0015
   7   2.0000      -9.944818      -270.6123
   8   2.0000      -9.943138      -270.5666
   9   2.0000      -9.941954      -270.5343
  10   2.0000      -9.932974      -270.2900
  11   2.0000      -9.931054      -270.2377
  12   2.0000      -0.993379       -27.0312
  13   2.0000      -0.951618       -25.8948
  14   2.0000      -0.942051       -25.6345
  15   2.0000      -0.925141       -25.1744
  16   2.0000      -0.921372       -25.0718
  17   2.0000      -0.906042       -24.6547
  18   2.0000      -0.701073       -19.0772
  19   2.0000      -0.692071       -18.8322
  20   2.0000      -0.624745       -17.0002
  21   2.0000      -0.584293       -15.8994
  22   2.0000      -0.573754       -15.6126
  23   2.0000      -0.521896       -14.2015
  24   2.0000      -0.506660       -13.7869
  25   2.0000      -0.487716       -13.2714
  26   2.0000      -0.473896       -12.8954
  27   2.0000      -0.466645       -12.6981
  28   2.0000      -0.453083       -12.3290
  29   2.0000      -0.437476       -11.9043
  30   2.0000      -0.414959       -11.2916
  31   2.0000      -0.405572       -11.0362
  32   2.0000      -0.382400       -10.4056
  33   2.0000      -0.370173       -10.0729
  34   2.0000      -0.360633        -9.8133
  35   2.0000      -0.356346        -9.6967
  36   2.0000      -0.338574        -9.2131
  37   2.0000      -0.321716        -8.7543
  38   2.0000      -0.300943        -8.1891
  39   2.0000      -0.298972        -8.1355
  40   2.0000      -0.289624        -7.8811
  41   2.0000      -0.273209        -7.4344
  42   2.0000      -0.255845        -6.9619
  43   2.0000      -0.244832        -6.6622
  44   2.0000      -0.238087        -6.4787
  45   2.0000      -0.221505        -6.0275
  46   2.0000      -0.205651        -5.5960
  47   2.0000      -0.201690        -5.4883
  48   0.0000       0.010818         0.2944
  49   0.0000       0.014157         0.3852
  50   0.0000       0.018576         0.5055
  51   0.0000       0.054317         1.4780
  52   0.0000       0.070846         1.9278

MULLIKEN ATOMIC CHARGES
-----------------------
   0 C :    0.069828
   1 C :   -0.000216
   2 H :    0.063787
   3 C :    0.050666
   4 H :    0.028036
   5 C :    0.141935
   6 H :    0.079466
   7 C :   -0.012150
   8 H :    0.079788
   9 C :    0.159536
  10 H :    0.053456
  11 O :   -0.310734
  12 O :   -0.403971
  13 O :   -0.402954
  14 O :   -0.425004
  15 O :   -0.420327
  16 O :   -0.431291
  17 H :    0.091989
  18 H :    0.081738
  19 H :    0.304847
  20 H :    0.302252
  21 H :    0.299630
  22 H :    0.292965
  23 H :    0.306727
Sum of atomic charges:   -0.0000000

LOEWDIN ATOMIC CHARGES
----------------------
   0 C :   -0.129904
   1 C :   -0.084989
   2 H :    0.106360
   3 C :   -0.072746
   4 H :    0.094621
   5 C :   -0.054200
   6 H :    0.129372
   7 C :   -0.090692
   8 H :    0.110692
   9 C :   -0.009576
  10 H :    0.089427
  11 O :   -0.142283
  12 O :   -0.316270
  13 O :   -0.305793
  14 O :   -0.309442
  15 O :   -0.321856
  16 O :   -0.317219
  17 H :    0.105243
  18 H :    0.114091
  19 H :    0.287107
  20 H :    0.288328
  21 H :    0.271990
  22 H :    0.268212
  23 H :    0.289528

  Mayer bond orders larger than 0.100000
B(  0-C ,  1-C ) :   1.0188 B(  0-C , 16-O ) :   1.0342 B(  0-C , 17-H ) :   0.9212
B(  0-C , 18-H ) :   0.9140 B(  1-C ,  2-H ) :   0.8650 B(  1-C ,  3-C ) :   1.0597
B(  1-C , 11-O ) :   0.9543 B(  3-C ,  4-H ) :   0.8514 B(  3-C ,  5-C ) :   1.0077
B(  3-C , 15-O ) :   1.0939 B(  5-C ,  6-H ) :   0.8538 B(  5-C ,  7-C ) :   1.0033
B(  5-C , 14-O ) :   1.0514 B(  7-C ,  8-H ) :   0.8876 B(  7-C ,  9-C ) :   1.0153
B(  7-C , 13-O ) :   1.0304 B(  9-C , 10-H ) :   0.8955 B(  9-C , 11-O ) :   1.0890
B(  9-C , 12-O ) :   1.0936 B( 12-O , 19-H ) :   0.8376 B( 13-O , 20-H ) :   0.8461
B( 14-O , 21-H ) :   0.8316 B( 15-O , 22-H ) :   0.8050 B( 16-O , 22-H ) :   0.1139
B( 16-O , 23-H ) :   0.8412

Dispersion correction           -0.024993490
FINAL SINGLE POINT ENERGY      -685.693160740979

DIPOLE MOMENT
-------------

Method             : SCF
Type of density    : Electron Density
Multiplicity       :   1
Irrep              :   0
Energy             :  -685.8259364467292016 Eh
Relativity type    :
Basis              : AO
                                X                 Y                 Z
Electronic contribution:      1.338111600       0.911414227      -0.066653196
Nuclear contribution   :     -1.077812735      -2.674928807       0.427652493
                        -----------------------------------------
Total Dipole Moment    :      0.260298864      -1.763514579       0.360999297
                        -----------------------------------------
Magnitude (a.u.)       :      1.818807209
Magnitude (Debye)      :      4.623040525

Rotational constants in cm-1:             0.043319             0.025396             0.022010
Rotational constants in MHz :          1298.681676           761.355221           659.847311

                             ****ORCA TERMINATED NORMALLY****
TOTAL RUN TIME: 0 days 0 hours 0 minutes 8 seconds 286 msec
