                         Program Version 6.0.1  -  RELEASE   -
|  1> ! pbe def2-sv(p) def2/J RI DEFGRID1 loosescf d4 GCP(DFT/SV(P)) printgap
|  2> %output
|  3>     printlevel normal
|  4> end
|  5> * xyz 0 1
|  6> C -2.0229177961 -0.6000424212 -0.6826571982
|  7> C -1.2183373698 -0.0789012467 0.5364937553
|  8> H -1.8938083596 -0.0342584814 1.4042532497
|  9> C -0.6388325499 1.3257099908 0.2974643847
| 10> H -1.3774122774 1.9128509863 -0.2688952798
| 11> C 0.6744993613 1.2957543133 -0.5252966083
| 12> H 1.1132308606 2.2991005041 -0.4495544308
| 13> C 1.651961764 0.2791307845 0.0869199566
| 14> H 2.5039832816 0.14722318 -0.5893029704
| 15> C 0.9386491749 -1.0862565599 0.2046071071
| 16> H 1.572214579 -1.7767782079 0.7845228654
| 17> O -0.2395228906 -1.0161211119 0.9590029055
| 18> O 0.7254021559 -1.5780697571 -1.091274862
| 19> O 2.1677101519 0.695806906 1.3154003231
| 20> O 0.4312330125 1.0430227284 -1.8804760657
| 21> O -0.3318628715 1.9604476241 1.5220106367
| 22> O -2.02720642 -2.0067019937 -0.7343471074
| 23> H -1.5800885847 -0.2632505209 -1.620848937
| 24> H -3.0474254983 -0.2085212886 -0.6217933075
| 25> H -0.0510570439 -2.1652102424 -1.0749943245
| 26> H 1.4398756642 1.0649749645 1.8381814621
| 27> H 0.5452716262 0.0882661059 -2.0283608588
| 28> H -1.1345141712 2.0666654439 2.0446201888
| 29> H -2.2822742664 -2.3491584613 0.1312657984
| 30> *
| 31>
| 32>                          ****END OF INPUT****

CARTESIAN COORDINATES (ANGSTROEM)
---------------------------------
  C     -2.022918   -0.600042   -0.682657
  C     -1.218337   -0.078901    0.536494
  H     -1.893808   -0.034258    1.404253
  C     -0.638833    1.325710    0.297464
  H     -1.377412    1.912851   -0.268895
  C      0.674499    1.295754   -0.525297
  H      1.113231    2.299101   -0.449554
  C      1.651962    0.279131    0.086920
  H      2.503983    0.147223   -0.589303
  C      0.938649   -1.086257    0.204607
  H      1.572215   -1.776778    0.784523
  O     -0.239523   -1.016121    0.959003
  O      0.725402   -1.578070   -1.091275
  O      2.167710    0.695807    1.315400
  O      0.431233    1.043023   -1.880476
  O     -0.331863    1.960448    1.522011
  O     -2.027206   -2.006702   -0.734347
  H     -1.580089   -0.263251   -1.620849
  H     -3.047425   -0.208521   -0.621793
  H     -0.051057   -2.165210   -1.074994
  H      1.439876    1.064975    1.838181
  H      0.545272    0.088266   -2.028361
  H     -1.134514    2.066665    2.044620
  H     -2.282274   -2.349158    0.131266

 Total Charge           Charge          ....    0
 Multiplicity           Mult            ....    1
 Number of Electrons    NEL             ....   96
 Basis Dimension        Dim             ....  192

ORBITAL ENERGIES
----------------

  NO   OCC          E(Eh)            E(eV)
   0   2.0000     -18.779423      -511.0141
   1   2.0000     -18.779090      -511.0050
   2   2.0000     -18.778142      -510.9792
   3   2.0000     -18.769666      -510.7486
   4   2.0000     -18.743609      -510.0395
   5   2.0000     -18.737493      -509.8731
   6   2.0000      -9.984864      -271.7020
   7   2.0000      -9.961075      -271.0546
   8   2.0000      -9.956726      -270.9363
   9   2.0000      -9.948896      -270.7232
  10   2.0000      -9.943012      -270.5631
  11   2.0000      -9.937061      -270.4012
  12   2.0000      -0.995293       -27.0833
  13   2.0000      -0.956313       -26.0226
  14   2.0000      -0.949262       -25.8307
  15   2.0000      -0.928025       -25.2528
  16   2.0000      -0.919528       -25.0216
  17   2.0000      -0.913282       -24.8517
  18   2.0000      -0.714099       -19.4316
  19   2.0000      -0.686211       -18.6727
  20   2.0000      -0.633835       -17.2475
  21   2.0000      -0.595081       -16.1930
  22   2.0000      -0.579889       -15.7796
  23   2.0000      -0.526721       -14.3328
  24   2.0000      -0.514675       -14.0050
  25   2.0000      -0.496475       -13.5098
  26   2.0000      -0.479436       -13.0461
  27   2.0000      -0.462943       -12.5973
  28   2.0000      -0.438616       -11.9353
  29   2.0000      -0.431831       -11.7507
  30   2.0000      -0.419687       -11.4203
  31   2.0000      -0.412174       -11.2158
  32   2.0000      -0.407063       -11.0767
  33   2.0000      -0.379881       -10.3371
  34   2.0000      -0.365529        -9.9466
  35   2.0000      -0.357909        -9.7392
  36   2.0000      -0.352924        -9.6036
  37   2.0000      -0.333190        -9.0666
  38   2.0000      -0.319434        -8.6922
  39   2.0000      -0.301314        -8.1992
  40   2.0000      -0.286551        -7.7974
  41   2.0000      -0.272351        -7.4110
  42   2.0000      -0.255111        -6.9419
  43   2.0000      -0.249589        -6.7917
  44   2.0000      -0.247780        -6.7424
  45   2.0000      -0.234848        -6.3905
  46   2.0000      -0.216828        -5.9002
  47   2.0000      -0.201837        -5.4923
  48   0.0000       0.000512         0.0139
  49   0.0000       0.010268         0.2794
  50   0.0000       0.045939         1.2501
  51   0.0000       0.057220         1.5570
  52   0.0000       0.064897         1.7659

MULLIKEN ATOMIC CHARGES
-----------------------
   0 C :    0.005862
   1 C :    0.008342
   2 H :    0.053792
   3 C :    0.041465
   4 H :    0.080072
   5 C :    0.040941
   6 H :    0.086953
   7 C :    0.024839
   8 H :    0.090356
   9 C :    0.194265
  10 H :    0.072481
  11 O :   -0.309497
  12 O :   -0.433559
  13 O :   -0.421559
  14 O :   -0.417578
  15 O :   -0.420113
  16 O :   -0.427143
  17 H :    0.099097
  18 H :    0.087386
  19 H :    0.313663
  20 H :    0.301291
  21 H :    0.313610
  22 H :    0.308351
  23 H :    0.306684
Sum of atomic charges:    0.0000000

LOEWDIN ATOMIC CHARGES
----------------------
   0 C :   -0.152936
   1 C :   -0.082630
   2 H :    0.105983
   3 C :   -0.075651
   4 H :    0.110999
   5 C :   -0.065461
   6 H :    0.118444
   7 C :   -0.085957
   8 H :    0.122536
   9 C :   -0.001922
  10 H :    0.101954
  11 O :   -0.139986
  12 O :   -0.322033
  13 O :   -0.313829
  14 O :   -0.318472
  15 O :   -0.308410
  16 O :   -0.316340
  17 H :    0.116301
  18 H :    0.106676
  19 H :    0.278868
  20 H :    0.272005
  21 H :    0.272798
  22 H :    0.289812
  23 H :    0.287250

  Mayer bond orders larger than 0.100000
B(  0-C ,  1-C ) :   1.0255 B(  0-C , 16-O ) :   1.0290 B(  0-C , 17-H ) :   0.9032
B(  0-C , 18-H ) :   0.9112 B(  1-C ,  2-H ) :   0.8929 B(  1-C ,  3-C ) :   0.9879
B(  1-C , 11-O ) :   1.0393 B(  3-C ,  4-H ) :   0.8949 B(  3-C ,  5-C ) :   0.9634
B(  3-C , 15-O ) :   0.9985 B(  5-C ,  6-H ) :   0.9023 B(  5-C ,  7-C ) :   1.0051
B(  5-C , 14-O ) :   1.0927 B(  7-C ,  8-H ) :   0.8961 B(  7-C ,  9-C ) :   0.9625
B(  7-C , 13-O ) :   1.0763 B(  9-C , 10-H ) :   0.9050 B(  9-C , 11-O ) :   1.0497
B(  9-C , 12-O ) :   1.0606 B( 12-O , 19-H ) :   0.7783 B( 12-O , 21-H ) :   0.1168
B( 13-O , 20-H ) :   0.8129 B( 14-O , 21-H ) :   0.7845 B( 15-O , 22-H ) :   0.8423
B( 16-O , 19-H ) :   0.1157 B( 16-O , 23-H ) :   0.8414

Dispersion correction           -0.026626920
FINAL SINGLE POINT ENERGY      -685.701342624125

DIPOLE MOMENT
-------------

Method             : SCF
Type of density    : Electron Density
Multiplicity       :   1
Irrep              :   0
Energy             :  -685.8378179124586040 Eh
Relativity type    :
Basis              : AO
                                X                 Y                 Z
Electronic contribution:      2.264981033      -0.895332324       1.197872538
Nuclear contribution   :     -3.922061402       0.720201975      -0.421689063
                        -----------------------------------------
Total Dipole Moment    :     -1.657080369      -0.175130349       0.776183475
                        -----------------------------------------
Magnitude (a.u.)       :      1.838218370
Magnitude (Debye)      :      4.672379777

Rotational constants in cm-1:             0.043274             0.029274             0.026123
Rotational constants in MHz :          1297.315295           877.623695           783.137442

                             ****ORCA TERMINATED NORMALLY****
TOTAL RUN TIME: 0 days 0 hours 5 minutes 37 seconds 940 msec
