                         Program Version 6.0.1  -  RELEASE   -
|  1> ! pbe def2-sv(p) def2/J RI DEFGRID1 loosescf d4 GCP(DFT/SV(P)) printgap
|  2> %output
|  3>     printlevel normal
|  4> end
|  5> * xyz 0 1
|  6> C -2.545171887 -0.9138839748 0.2741960687
|  7> C -1.1312008718 -0.4403136999 0.6510072254
|  8> H -1.0343939832 -0.37009041 1.7485459678
|  9> C -0.848762809 0.9486721255 0.0350577946
| 10> H -1.0961038399 0.9032998178 -1.0331754831
| 11> C 0.6340129426 1.2988616564 0.2095263744
| 12> H 0.8641886571 1.4135693357 1.2793512875
| 13> C 1.4930894422 0.1546913452 -0.3444969467
| 14> H 1.2914612067 0.0320542393 -1.422593698
| 15> C 1.1015120927 -1.1508315179 0.367509469
| 16> H 1.2854666732 -1.0239778651 1.4574758778
| 17> O -0.2516335212 -1.4251909959 0.1478506276
| 18> O 1.8115260188 -2.2318555414 -0.1218924902
| 19> O 2.8624874386 0.3846358973 -0.1302743364
| 20> O 0.992251271 2.5251135334 -0.3817485621
| 21> O -1.6881683453 1.9373700269 0.5652676693
| 22> O -2.6304144551 -1.1991344254 -1.0911198049
| 23> H -3.2628338035 -0.1171973498 0.4797163322
| 24> H -2.7927083674 -1.7985028333 0.8760176013
| 25> H 2.7104117656 -1.9276732052 -0.3036101107
| 26> H 3.0198333597 1.3296415927 -0.2616886882
| 27> H 0.4581796277 2.6664853981 -1.1721218874
| 28> H -1.4779757915 2.0760695226 1.496623432
| 29> H -1.9137367038 -1.8147346228 -1.2958030847
| 30> *
| 31>
| 32>                          ****END OF INPUT****

CARTESIAN COORDINATES (ANGSTROEM)
---------------------------------
  C     -2.545172   -0.913884    0.274196
  C     -1.131201   -0.440314    0.651007
  H     -1.034394   -0.370090    1.748546
  C     -0.848763    0.948672    0.035058
  H     -1.096104    0.903300   -1.033175
  C      0.634013    1.298862    0.209526
  H      0.864189    1.413569    1.279351
  C      1.493089    0.154691   -0.344497
  H      1.291461    0.032054   -1.422594
  C      1.101512   -1.150832    0.367509
  H      1.285467   -1.023978    1.457476
  O     -0.251634   -1.425191    0.147851
  O      1.811526   -2.231856   -0.121892
  O      2.862487    0.384636   -0.130274
  O      0.992251    2.525114   -0.381749
  O     -1.688168    1.937370    0.565268
  O     -2.630414   -1.199134   -1.091120
  H     -3.262834   -0.117197    0.479716
  H     -2.792708   -1.798503    0.876018
  H      2.710412   -1.927673   -0.303610
  H      3.019833    1.329642   -0.261689
  H      0.458180    2.666485   -1.172122
  H     -1.477976    2.076070    1.496623
  H     -1.913737   -1.814735   -1.295803

 Total Charge           Charge          ....    0
 Multiplicity           Mult            ....    1
 Number of Electrons    NEL             ....   96
 Basis Dimension        Dim             ....  192

ORBITAL ENERGIES
----------------

  NO   OCC          E(Eh)            E(eV)
   0   2.0000     -18.784031      -511.1395
   1   2.0000     -18.769970      -510.7568
   2   2.0000     -18.767476      -510.6890
   3   2.0000     -18.765882      -510.6456
   4   2.0000     -18.758529      -510.4455
   5   2.0000     -18.747826      -510.1543
   6   2.0000      -9.994394      -271.9613
   7   2.0000      -9.955785      -270.9107
   8   2.0000      -9.954856      -270.8854
   9   2.0000      -9.954690      -270.8809
  10   2.0000      -9.946943      -270.6701
  11   2.0000      -9.933214      -270.2965
  12   2.0000      -0.993316       -27.0295
  13   2.0000      -0.960595       -26.1391
  14   2.0000      -0.949146       -25.8276
  15   2.0000      -0.933177       -25.3930
  16   2.0000      -0.928662       -25.2702
  17   2.0000      -0.916612       -24.9423
  18   2.0000      -0.713545       -19.4165
  19   2.0000      -0.697945       -18.9920
  20   2.0000      -0.620024       -16.8717
  21   2.0000      -0.595010       -16.1910
  22   2.0000      -0.578068       -15.7300
  23   2.0000      -0.544531       -14.8174
  24   2.0000      -0.506009       -13.7692
  25   2.0000      -0.495786       -13.4910
  26   2.0000      -0.469981       -12.7888
  27   2.0000      -0.465459       -12.6658
  28   2.0000      -0.461249       -12.5512
  29   2.0000      -0.440773       -11.9940
  30   2.0000      -0.432504       -11.7690
  31   2.0000      -0.424445       -11.5497
  32   2.0000      -0.380837       -10.3631
  33   2.0000      -0.377131       -10.2623
  34   2.0000      -0.370264       -10.0754
  35   2.0000      -0.361125        -9.8267
  36   2.0000      -0.337376        -9.1805
  37   2.0000      -0.327458        -8.9106
  38   2.0000      -0.319493        -8.6938
  39   2.0000      -0.300070        -8.1653
  40   2.0000      -0.292722        -7.9654
  41   2.0000      -0.278691        -7.5836
  42   2.0000      -0.261837        -7.1249
  43   2.0000      -0.258315        -7.0291
  44   2.0000      -0.238128        -6.4798
  45   2.0000      -0.226095        -6.1524
  46   2.0000      -0.219059        -5.9609
  47   2.0000      -0.211473        -5.7545
  48   0.0000       0.008258         0.2247
  49   0.0000       0.013348         0.3632
  50   0.0000       0.033232         0.9043
  51   0.0000       0.041493         1.1291
  52   0.0000       0.058286         1.5860

MULLIKEN ATOMIC CHARGES
-----------------------
   0 C :    0.106797
   1 C :   -0.033833
   2 H :    0.042493
   3 C :    0.035701
   4 H :    0.059764
   5 C :    0.049589
   6 H :    0.048465
   7 C :    0.017995
   8 H :    0.051423
   9 C :    0.222358
  10 H :    0.036897
  11 O :   -0.299321
  12 O :   -0.379186
  13 O :   -0.426247
  14 O :   -0.409370
  15 O :   -0.400405
  16 O :   -0.437537
  17 H :    0.088274
  18 H :    0.082713
  19 H :    0.317394
  20 H :    0.312226
  21 H :    0.308839
  22 H :    0.300841
  23 H :    0.304129
Sum of atomic charges:   -0.0000000

LOEWDIN ATOMIC CHARGES
----------------------
   0 C :   -0.122736
   1 C :   -0.080150
   2 H :    0.098914
   3 C :   -0.084958
   4 H :    0.116815
   5 C :   -0.090127
   6 H :    0.107744
   7 C :   -0.104254
   8 H :    0.101857
   9 C :    0.011539
  10 H :    0.080671
  11 O :   -0.132432
  12 O :   -0.298698
  13 O :   -0.325884
  14 O :   -0.313329
  15 O :   -0.301289
  16 O :   -0.328504
  17 H :    0.119554
  18 H :    0.101645
  19 H :    0.295211
  20 H :    0.288985
  21 H :    0.291890
  22 H :    0.286633
  23 H :    0.280904

  Mayer bond orders larger than 0.100000
B(  0-C ,  1-C ) :   1.0363 B(  0-C , 16-O ) :   1.0713 B(  0-C , 17-H ) :   0.9132
B(  0-C , 18-H ) :   0.9141 B(  1-C ,  2-H ) :   0.8696 B(  1-C ,  3-C ) :   0.9800
B(  1-C , 11-O ) :   0.9914 B(  3-C ,  4-H ) :   0.8520 B(  3-C ,  5-C ) :   1.0246
B(  3-C , 15-O ) :   1.0403 B(  5-C ,  6-H ) :   0.8639 B(  5-C ,  7-C ) :   0.9900
B(  5-C , 14-O ) :   1.0677 B(  7-C ,  8-H ) :   0.8623 B(  7-C ,  9-C ) :   0.9972
B(  7-C , 13-O ) :   1.0660 B(  9-C , 10-H ) :   0.8822 B(  9-C , 11-O ) :   1.0212
B(  9-C , 12-O ) :   1.1498 B( 12-O , 19-H ) :   0.8321 B( 13-O , 20-H ) :   0.8267
B( 14-O , 21-H ) :   0.8447 B( 15-O , 22-H ) :   0.8477 B( 16-O , 23-H ) :   0.8341

Dispersion correction           -0.024115976
FINAL SINGLE POINT ENERGY      -685.697801098982

DIPOLE MOMENT
-------------

Method             : SCF
Type of density    : Electron Density
Multiplicity       :   1
Irrep              :   0
Energy             :  -685.8287646628571110 Eh
Relativity type    :
Basis              : AO
                                X                 Y                 Z
Electronic contribution:      2.272681856      -0.615814157      -1.297160865
Nuclear contribution   :     -1.811516131       1.284167756       1.719439288
                        -----------------------------------------
Total Dipole Moment    :      0.461165725       0.668353599       0.422278423
                        -----------------------------------------
Magnitude (a.u.)       :      0.915253750
Magnitude (Debye)      :      2.326390150

Rotational constants in cm-1:             0.038583             0.027708             0.017933
Rotational constants in MHz :          1156.694855           830.655580           537.606940

                             ****ORCA TERMINATED NORMALLY****
TOTAL RUN TIME: 0 days 0 hours 0 minutes 9 seconds 103 msec
