                         Program Version 6.0.1  -  RELEASE   -
|  1> ! pbe def2-sv(p) def2/J RI DEFGRID1 loosescf d4 GCP(DFT/SV(P)) printgap
|  2> %output
|  3>     printlevel normal
|  4> end
|  5> * xyz 0 1
|  6> C -2.3852102875 -0.7588519009 -0.073741213
|  7> C -1.0122739523 -0.2545129531 0.3886464068
|  8> H -1.1092252189 0.0951751445 1.4268900535
|  9> C -0.5264526738 0.9071009255 -0.4759245074
| 10> H -0.5051292569 0.576820011 -1.5284051927
| 11> C 0.9021016284 1.3474845894 -0.0822462848
| 12> H 0.833360941 2.1113877376 0.7011499814
| 13> C 1.7403574719 0.1690386806 0.4695405907
| 14> H 2.7746150409 0.3000217604 0.1355697571
| 15> C 1.1849483473 -1.1434392102 -0.0955921339
| 16> H 1.7629578109 -1.997529971 0.2919241959
| 17> O -0.1200872054 -1.3774037312 0.3541755436
| 18> O 1.2721136732 -1.0803927208 -1.491918201
| 19> O 1.7880344281 0.1244686684 1.8669360295
| 20> O 1.5347089484 1.9664957724 -1.1720186104
| 21> O -1.442904174 1.9617619242 -0.3259550323
| 22> O -2.8760838611 -1.7651303198 0.7664092598
| 23> H -2.299171202 -1.1218306292 -1.1089833125
| 24> H -3.0971869336 0.0664014254 -0.0397180019
| 25> H 0.9083768012 -1.8918178839 -1.8664413419
| 26> H 0.9503575629 -0.2140338201 2.2060768786
| 27> H 1.7145612536 1.2893094396 -1.8373441153
| 28> H -1.0720948329 2.7390566627 -0.7619823176
| 29> H -2.183973867 -2.4308567008 0.861571917
| 30> *
| 31>
| 32>                          ****END OF INPUT****

CARTESIAN COORDINATES (ANGSTROEM)
---------------------------------
  C     -2.385210   -0.758852   -0.073741
  C     -1.012274   -0.254513    0.388646
  H     -1.109225    0.095175    1.426890
  C     -0.526453    0.907101   -0.475925
  H     -0.505129    0.576820   -1.528405
  C      0.902102    1.347485   -0.082246
  H      0.833361    2.111388    0.701150
  C      1.740357    0.169039    0.469541
  H      2.774615    0.300022    0.135570
  C      1.184948   -1.143439   -0.095592
  H      1.762958   -1.997530    0.291924
  O     -0.120087   -1.377404    0.354176
  O      1.272114   -1.080393   -1.491918
  O      1.788034    0.124469    1.866936
  O      1.534709    1.966496   -1.172019
  O     -1.442904    1.961762   -0.325955
  O     -2.876084   -1.765130    0.766409
  H     -2.299171   -1.121831   -1.108983
  H     -3.097187    0.066401   -0.039718
  H      0.908377   -1.891818   -1.866441
  H      0.950358   -0.214034    2.206077
  H      1.714561    1.289309   -1.837344
  H     -1.072095    2.739057   -0.761982
  H     -2.183974   -2.430857    0.861572

 Total Charge           Charge          ....    0
 Multiplicity           Mult            ....    1
 Number of Electrons    NEL             ....   96
 Basis Dimension        Dim             ....  192

ORBITAL ENERGIES
----------------

  NO   OCC          E(Eh)            E(eV)
   0   2.0000     -18.792594      -511.3725
   1   2.0000     -18.786594      -511.2092
   2   2.0000     -18.761426      -510.5243
   3   2.0000     -18.756925      -510.4019
   4   2.0000     -18.753361      -510.3049
   5   2.0000     -18.744684      -510.0688
   6   2.0000     -10.001779      -272.1622
   7   2.0000      -9.953058      -270.8365
   8   2.0000      -9.949296      -270.7341
   9   2.0000      -9.946499      -270.6580
  10   2.0000      -9.942587      -270.5516
  11   2.0000      -9.931510      -270.2501
  12   2.0000      -1.002303       -27.2740
  13   2.0000      -0.947885       -25.7933
  14   2.0000      -0.940392       -25.5894
  15   2.0000      -0.938354       -25.5339
  16   2.0000      -0.924501       -25.1569
  17   2.0000      -0.918689       -24.9988
  18   2.0000      -0.711976       -19.3738
  19   2.0000      -0.696831       -18.9617
  20   2.0000      -0.623965       -16.9789
  21   2.0000      -0.597011       -16.2455
  22   2.0000      -0.574579       -15.6351
  23   2.0000      -0.538467       -14.6524
  24   2.0000      -0.514716       -14.0061
  25   2.0000      -0.497658       -13.5420
  26   2.0000      -0.471499       -12.8301
  27   2.0000      -0.462875       -12.5955
  28   2.0000      -0.454932       -12.3793
  29   2.0000      -0.439036       -11.9468
  30   2.0000      -0.424797       -11.5593
  31   2.0000      -0.404887       -11.0175
  32   2.0000      -0.387719       -10.5504
  33   2.0000      -0.378329       -10.2949
  34   2.0000      -0.366392        -9.9700
  35   2.0000      -0.363052        -9.8792
  36   2.0000      -0.353737        -9.6257
  37   2.0000      -0.321986        -8.7617
  38   2.0000      -0.310460        -8.4481
  39   2.0000      -0.299432        -8.1480
  40   2.0000      -0.285706        -7.7744
  41   2.0000      -0.275272        -7.4905
  42   2.0000      -0.268348        -7.3021
  43   2.0000      -0.252698        -6.8763
  44   2.0000      -0.245070        -6.6687
  45   2.0000      -0.233538        -6.3549
  46   2.0000      -0.216429        -5.8893
  47   2.0000      -0.203883        -5.5479
  48   0.0000       0.004607         0.1254
  49   0.0000       0.017077         0.4647
  50   0.0000       0.035982         0.9791
  51   0.0000       0.049638         1.3507
  52   0.0000       0.053450         1.4545

MULLIKEN ATOMIC CHARGES
-----------------------
   0 C :    0.093567
   1 C :   -0.031016
   2 H :    0.062410
   3 C :    0.089602
   4 H :    0.040539
   5 C :    0.068402
   6 H :    0.070375
   7 C :    0.031550
   8 H :    0.085279
   9 C :    0.138588
  10 H :    0.077295
  11 O :   -0.330661
  12 O :   -0.398488
  13 O :   -0.409753
  14 O :   -0.428761
  15 O :   -0.413141
  16 O :   -0.429468
  17 H :    0.052733
  18 H :    0.104430
  19 H :    0.308579
  20 H :    0.307663
  21 H :    0.304499
  22 H :    0.309145
  23 H :    0.296629
Sum of atomic charges:    0.0000000

LOEWDIN ATOMIC CHARGES
----------------------
   0 C :   -0.124782
   1 C :   -0.074917
   2 H :    0.106495
   3 C :   -0.081645
   4 H :    0.100393
   5 C :   -0.081116
   6 H :    0.121047
   7 C :   -0.085785
   8 H :    0.124919
   9 C :   -0.012707
  10 H :    0.102317
  11 O :   -0.154550
  12 O :   -0.314914
  13 O :   -0.301584
  14 O :   -0.315349
  15 O :   -0.316717
  16 O :   -0.333509
  17 H :    0.093507
  18 H :    0.124965
  19 H :    0.289500
  20 H :    0.283633
  21 H :    0.280862
  22 H :    0.291059
  23 H :    0.278877

  Mayer bond orders larger than 0.100000
B(  0-C ,  1-C ) :   1.0668 B(  0-C , 16-O ) :   1.0802 B(  0-C , 17-H ) :   0.9017
B(  0-C , 18-H ) :   0.9120 B(  1-C ,  2-H ) :   0.8636 B(  1-C ,  3-C ) :   1.0335
B(  1-C , 11-O ) :   0.9359 B(  3-C ,  4-H ) :   0.8410 B(  3-C ,  5-C ) :   1.0315
B(  3-C , 15-O ) :   1.0609 B(  5-C ,  6-H ) :   0.8603 B(  5-C ,  7-C ) :   0.9694
B(  5-C , 14-O ) :   1.0235 B(  7-C ,  8-H ) :   0.8819 B(  7-C ,  9-C ) :   1.0446
B(  7-C , 13-O ) :   1.0544 B(  9-C , 10-H ) :   0.8981 B(  9-C , 11-O ) :   1.0575
B(  9-C , 12-O ) :   1.1031 B( 12-O , 19-H ) :   0.8369 B( 13-O , 20-H ) :   0.8404
B( 14-O , 21-H ) :   0.8407 B( 15-O , 22-H ) :   0.8415 B( 16-O , 23-H ) :   0.8453

Dispersion correction           -0.024831431
FINAL SINGLE POINT ENERGY      -685.693027181192

DIPOLE MOMENT
-------------

Method             : SCF
Type of density    : Electron Density
Multiplicity       :   1
Irrep              :   0
Energy             :  -685.8250244209585844 Eh
Relativity type    :
Basis              : AO
                                X                 Y                 Z
Electronic contribution:      1.627055815      -0.255296015       0.641798808
Nuclear contribution   :     -1.238470845      -0.450869952      -1.425764278
                        -----------------------------------------
Total Dipole Moment    :      0.388584971      -0.706165967      -0.783965470
                        -----------------------------------------
Magnitude (a.u.)       :      1.124397843
Magnitude (Debye)      :      2.857992189

Rotational constants in cm-1:             0.040983             0.025869             0.021327
Rotational constants in MHz :          1228.652587           775.523081           639.353922

                             ****ORCA TERMINATED NORMALLY****
TOTAL RUN TIME: 0 days 0 hours 0 minutes 30 seconds 386 msec
