                         Program Version 6.0.1  -  RELEASE   -
|  1> ! r2scan-3c def2/J RI DEFGRID2 scfconv6 printgap
|  2> %output
|  3>     printlevel normal
|  4> end
|  5> * xyz 0 1
|  6> C -3.5250283107 0.0002146037 3.70684e-05
|  7> C -2.8401027749 -0.9215531628 -0.7721074982
|  8> C -1.4549596518 -0.9153565376 -0.7669924933
|  9> C -0.7397935752 -5.3004e-06 5.80345e-05
| 10> C -1.4547903471 0.9154459278 0.7671877295
| 11> C -2.8399388781 0.9218424188 0.7722262994
| 12> Cl -0.5853870108 2.0510461661 1.7325013362
| 13> C 0.7397926137 -2.33068e-05 -7.2866e-06
| 14> C 1.4548814821 -0.9153883307 0.7671644753
| 15> C 2.8400186665 -0.921719922 0.7721959432
| 16> C 3.5250400964 -6.19154e-05 -5.35925e-05
| 17> C 2.8400296989 0.9215895229 -0.7722612787
| 18> C 1.4548594579 0.9153115838 -0.7671883284
| 19> Cl 0.5855888363 2.050972897 -1.732552659
| 20> Cl 0.5855178852 -2.0510886443 1.7324436735
| 21> Cl -0.5857248669 -2.0510374156 -1.7324976172
| 22> H -4.6038346788 0.0002221103 0.0002750264
| 23> H -3.369310852 -1.6410869677 -1.3757434356
| 24> H -3.3690046085 1.6412370504 1.376194625
| 25> H 3.3692184445 -1.6411562419 1.3759743925
| 26> H 4.6038474025 -3.59359e-05 -1.69152e-05
| 27> H 3.369164633 1.6410612113 -1.3760682564
| 28> *
| 29>
| 30>                          ****END OF INPUT****

CARTESIAN COORDINATES (ANGSTROEM)
---------------------------------
  C     -3.525028    0.000215    0.000037
  C     -2.840103   -0.921553   -0.772107
  C     -1.454960   -0.915357   -0.766992
  C     -0.739794   -0.000005    0.000058
  C     -1.454790    0.915446    0.767188
  C     -2.839939    0.921842    0.772226
  Cl    -0.585387    2.051046    1.732501
  C      0.739793   -0.000023   -0.000007
  C      1.454881   -0.915388    0.767164
  C      2.840019   -0.921720    0.772196
  C      3.525040   -0.000062   -0.000054
  C      2.840030    0.921590   -0.772261
  C      1.454859    0.915312   -0.767188
  Cl     0.585589    2.050973   -1.732553
  Cl     0.585518   -2.051089    1.732444
  Cl    -0.585725   -2.051037   -1.732498
  H     -4.603835    0.000222    0.000275
  H     -3.369311   -1.641087   -1.375743
  H     -3.369005    1.641237    1.376195
  H      3.369218   -1.641156    1.375974
  H      4.603847   -0.000036   -0.000017
  H      3.369165    1.641061   -1.376068

 Total Charge           Charge          ....    0
 Multiplicity           Mult            ....    1
 Number of Electrons    NEL             ....  146
 Basis Dimension        Dim             ....  366

ORBITAL ENERGIES
----------------

  NO   OCC          E(Eh)            E(eV)
   0   2.0000    -101.228005     -2754.5541
   1   2.0000    -101.228004     -2754.5540
   2   2.0000    -101.228001     -2754.5539
   3   2.0000    -101.227997     -2754.5538
   4   2.0000     -10.115072      -275.2451
   5   2.0000     -10.115070      -275.2451
   6   2.0000     -10.115069      -275.2450
   7   2.0000     -10.115068      -275.2450
   8   2.0000     -10.077137      -274.2128
   9   2.0000     -10.076931      -274.2072
  10   2.0000     -10.061034      -273.7746
  11   2.0000     -10.061033      -273.7746
  12   2.0000     -10.057818      -273.6872
  13   2.0000     -10.057818      -273.6871
  14   2.0000     -10.057780      -273.6861
  15   2.0000     -10.057778      -273.6861
  16   2.0000      -9.383959      -255.3505
  17   2.0000      -9.383957      -255.3505
  18   2.0000      -9.383954      -255.3504
  19   2.0000      -9.383949      -255.3502
  20   2.0000      -7.130244      -194.0238
  21   2.0000      -7.130243      -194.0238
  22   2.0000      -7.130240      -194.0237
  23   2.0000      -7.130235      -194.0236
  24   2.0000      -7.120263      -193.7522
  25   2.0000      -7.120262      -193.7522
  26   2.0000      -7.120259      -193.7521
  27   2.0000      -7.120254      -193.7520
  28   2.0000      -7.119618      -193.7346
  29   2.0000      -7.119616      -193.7346
  30   2.0000      -7.119613      -193.7345
  31   2.0000      -7.119608      -193.7344
  32   2.0000      -0.903146       -24.5759
  33   2.0000      -0.876301       -23.8454
  34   2.0000      -0.852862       -23.2076
  35   2.0000      -0.849147       -23.1065
  36   2.0000      -0.802524       -21.8378
  37   2.0000      -0.801640       -21.8137
  38   2.0000      -0.764612       -20.8062
  39   2.0000      -0.710540       -19.3348
  40   2.0000      -0.710469       -19.3328
  41   2.0000      -0.708778       -19.2868
  42   2.0000      -0.620296       -16.8791
  43   2.0000      -0.587389       -15.9837
  44   2.0000      -0.582356       -15.8467
  45   2.0000      -0.575810       -15.6686
  46   2.0000      -0.515851       -14.0370
  47   2.0000      -0.487944       -13.2776
  48   2.0000      -0.477418       -12.9912
  49   2.0000      -0.471924       -12.8417
  50   2.0000      -0.454693       -12.3728
  51   2.0000      -0.439252       -11.9526
  52   2.0000      -0.420818       -11.4511
  53   2.0000      -0.420718       -11.4483
  54   2.0000      -0.418027       -11.3751
  55   2.0000      -0.395791       -10.7700
  56   2.0000      -0.394519       -10.7354
  57   2.0000      -0.374553       -10.1921
  58   2.0000      -0.358449        -9.7539
  59   2.0000      -0.357157        -9.7187
  60   2.0000      -0.355251        -9.6669
  61   2.0000      -0.348243        -9.4762
  62   2.0000      -0.337120        -9.1735
  63   2.0000      -0.308869        -8.4047
  64   2.0000      -0.303522        -8.2593
  65   2.0000      -0.298068        -8.1108
  66   2.0000      -0.296211        -8.0603
  67   2.0000      -0.291354        -7.9281
  68   2.0000      -0.290022        -7.8919
  69   2.0000      -0.249496        -6.7891
  70   2.0000      -0.241829        -6.5805
  71   2.0000      -0.235476        -6.4076
  72   2.0000      -0.234872        -6.3912
  73   0.0000      -0.063706        -1.7335
  74   0.0000      -0.057941        -1.5766
  75   0.0000      -0.051344        -1.3971
  76   0.0000      -0.050721        -1.3802
  77   0.0000      -0.021569        -0.5869

MULLIKEN ATOMIC CHARGES
-----------------------
   0 C :   -0.088555
   1 C :   -0.235607
   2 C :    0.147809
   3 C :    0.003982
   4 C :    0.147767
   5 C :   -0.235619
   6 Cl:   -0.109072
   7 C :    0.003932
   8 C :    0.147816
   9 C :   -0.235631
  10 C :   -0.088558
  11 C :   -0.235637
  12 C :    0.147823
  13 Cl:   -0.109073
  14 Cl:   -0.109089
  15 Cl:   -0.109121
  16 H :    0.153367
  17 H :    0.162527
  18 H :    0.162523
  19 H :    0.162524
  20 H :    0.153368
  21 H :    0.162525
Sum of atomic charges:   -0.0000000

LOEWDIN ATOMIC CHARGES
----------------------
   0 C :   -0.140635
   1 C :   -0.169297
   2 C :   -0.143771
   3 C :   -0.117943
   4 C :   -0.143803
   5 C :   -0.169303
   6 Cl:    0.174854
   7 C :   -0.117941
   8 C :   -0.143788
   9 C :   -0.169301
  10 C :   -0.140638
  11 C :   -0.169301
  12 C :   -0.143803
  13 Cl:    0.174849
  14 Cl:    0.174836
  15 Cl:    0.174796
  16 H :    0.174543
  17 H :    0.180276
  18 H :    0.180275
  19 H :    0.180275
  20 H :    0.174543
  21 H :    0.180275

  Mayer bond orders larger than 0.100000
B(  0-C ,  1-C ) :   1.3802 B(  0-C ,  5-C ) :   1.3803 B(  0-C , 16-H ) :   0.9502
B(  1-C ,  2-C ) :   1.3478 B(  1-C , 17-H ) :   0.9349 B(  2-C ,  3-C ) :   1.3622
B(  2-C ,  7-C ) :  -0.1141 B(  2-C , 15-Cl) :   1.0168 B(  3-C ,  4-C ) :   1.3621
B(  3-C ,  7-C ) :   0.7513 B(  3-C ,  8-C ) :  -0.1141 B(  3-C , 12-C ) :  -0.1141
B(  4-C ,  5-C ) :   1.3478 B(  4-C ,  6-Cl) :   1.0168 B(  4-C ,  7-C ) :  -0.1141
B(  5-C , 18-H ) :   0.9349 B(  7-C ,  8-C ) :   1.3621 B(  7-C , 12-C ) :   1.3621
B(  8-C ,  9-C ) :   1.3479 B(  8-C , 14-Cl) :   1.0168 B(  9-C , 10-C ) :   1.3802
B(  9-C , 19-H ) :   0.9350 B( 10-C , 11-C ) :   1.3803 B( 10-C , 20-H ) :   0.9502
B( 11-C , 12-C ) :   1.3478 B( 11-C , 21-H ) :   0.9349 B( 12-C , 13-Cl) :   1.0168

Dispersion correction           -0.013896774
FINAL SINGLE POINT ENERGY     -2301.494740167314

DIPOLE MOMENT
-------------

Method             : SCF
Type of density    : Electron Density
Multiplicity       :   1
Irrep              :   0
Energy             : -2301.4901876615404035 Eh
Relativity type    :
Basis              : AO
                                X                 Y                 Z
Electronic contribution:     -0.000103589      -0.000275595      -0.000513456
Nuclear contribution   :      0.000082294       0.000369925       0.000718678
                        -----------------------------------------
Total Dipole Moment    :     -0.000021295       0.000094330       0.000205222
                        -----------------------------------------
Magnitude (a.u.)       :      0.000226864
Magnitude (Debye)      :      0.000576643

Rotational constants in cm-1:             0.014302             0.011804             0.010365
Rotational constants in MHz :           428.757008           353.863188           310.723151

                             ****ORCA TERMINATED NORMALLY****
TOTAL RUN TIME: 0 days 0 hours 0 minutes 59 seconds 271 msec
