                         Program Version 6.0.1  -  RELEASE   -
|  1> ! pbe def2-sv(p) def2/J RI DEFGRID1 loosescf d4 GCP(DFT/SV(P)) printgap
|  2> %output
|  3>     printlevel normal
|  4> end
|  5> * xyz 0 1
|  6> C -2.3225577956 -0.8221545935 -0.6512540046
|  7> C -1.0433391374 -0.550643783 0.1545491308
|  8> H -1.1694897095 -0.9436428856 1.1808167394
|  9> C -0.7420956347 0.9679282204 0.2590604445
| 10> H -1.5468565514 1.5290043924 -0.2321848038
| 11> C 0.5781252946 1.2732637634 -0.4793076032
| 12> H 0.8306961132 2.3282726934 -0.332698278
| 13> C 1.7139861487 0.4121100015 0.1134844941
| 14> H 2.580892123 0.4659030314 -0.5565999288
| 15> C 1.2512847619 -1.0729918595 0.2032368483
| 16> H 1.1356264484 -1.3455654165 1.2642534177
| 17> O 0.0104068497 -1.2466638918 -0.4740236006
| 18> O 2.1523470575 -1.9703910807 -0.3236330272
| 19> O 2.148172806 0.8993184529 1.3495822515
| 20> O 0.4374332088 1.0870336449 -1.8604970855
| 21> O -0.606534073 1.380235479 1.6051910203
| 22> O -3.4572960649 -0.2995482996 -0.0114758597
| 23> H -2.4085995198 -1.9014683196 -0.8224207839
| 24> H -2.259367521 -0.3193598878 -1.6188938784
| 25> H 2.243963658 -1.813477432 -1.2716572851
| 26> H 1.3681780392 1.1181505887 1.8799268584
| 27> H 0.226238873 0.1540017455 -2.0107776994
| 28> H -1.4816244982 1.4690520438 1.9968684892
| 29> H -3.6576661025 -0.832409897 0.7664892141
| 30> *
| 31>
| 32>                          ****END OF INPUT****

CARTESIAN COORDINATES (ANGSTROEM)
---------------------------------
  C     -2.322558   -0.822155   -0.651254
  C     -1.043339   -0.550644    0.154549
  H     -1.169490   -0.943643    1.180817
  C     -0.742096    0.967928    0.259060
  H     -1.546857    1.529004   -0.232185
  C      0.578125    1.273264   -0.479308
  H      0.830696    2.328273   -0.332698
  C      1.713986    0.412110    0.113484
  H      2.580892    0.465903   -0.556600
  C      1.251285   -1.072992    0.203237
  H      1.135626   -1.345565    1.264253
  O      0.010407   -1.246664   -0.474024
  O      2.152347   -1.970391   -0.323633
  O      2.148173    0.899318    1.349582
  O      0.437433    1.087034   -1.860497
  O     -0.606534    1.380235    1.605191
  O     -3.457296   -0.299548   -0.011476
  H     -2.408600   -1.901468   -0.822421
  H     -2.259368   -0.319360   -1.618894
  H      2.243964   -1.813477   -1.271657
  H      1.368178    1.118151    1.879927
  H      0.226239    0.154002   -2.010778
  H     -1.481624    1.469052    1.996868
  H     -3.657666   -0.832410    0.766489

 Total Charge           Charge          ....    0
 Multiplicity           Mult            ....    1
 Number of Electrons    NEL             ....   96
 Basis Dimension        Dim             ....  192

ORBITAL ENERGIES
----------------

  NO   OCC          E(Eh)            E(eV)
   0   2.0000     -18.788185      -511.2525
   1   2.0000     -18.779879      -511.0265
   2   2.0000     -18.771940      -510.8105
   3   2.0000     -18.762182      -510.5449
   4   2.0000     -18.752443      -510.2799
   5   2.0000     -18.737978      -509.8863
   6   2.0000      -9.987429      -271.7718
   7   2.0000      -9.956527      -270.9309
   8   2.0000      -9.952139      -270.8115
   9   2.0000      -9.948973      -270.7253
  10   2.0000      -9.943376      -270.5730
  11   2.0000      -9.934834      -270.3406
  12   2.0000      -0.994771       -27.0691
  13   2.0000      -0.956435       -26.0259
  14   2.0000      -0.948189       -25.8015
  15   2.0000      -0.934513       -25.4294
  16   2.0000      -0.925363       -25.1804
  17   2.0000      -0.916690       -24.9444
  18   2.0000      -0.707580       -19.2542
  19   2.0000      -0.686097       -18.6697
  20   2.0000      -0.625848       -17.0302
  21   2.0000      -0.592111       -16.1122
  22   2.0000      -0.577503       -15.7147
  23   2.0000      -0.540713       -14.7135
  24   2.0000      -0.506437       -13.7808
  25   2.0000      -0.501190       -13.6381
  26   2.0000      -0.485932       -13.2229
  27   2.0000      -0.471731       -12.8365
  28   2.0000      -0.454575       -12.3696
  29   2.0000      -0.440076       -11.9751
  30   2.0000      -0.415689       -11.3115
  31   2.0000      -0.405845       -11.0436
  32   2.0000      -0.398613       -10.8468
  33   2.0000      -0.377176       -10.2635
  34   2.0000      -0.364931        -9.9303
  35   2.0000      -0.353903        -9.6302
  36   2.0000      -0.332413        -9.0454
  37   2.0000      -0.329964        -8.9788
  38   2.0000      -0.311277        -8.4703
  39   2.0000      -0.298900        -8.1335
  40   2.0000      -0.296423        -8.0661
  41   2.0000      -0.274525        -7.4702
  42   2.0000      -0.262658        -7.1473
  43   2.0000      -0.256658        -6.9840
  44   2.0000      -0.244620        -6.6565
  45   2.0000      -0.240592        -6.5468
  46   2.0000      -0.217382        -5.9153
  47   2.0000      -0.196236        -5.3399
  48   0.0000      -0.005990        -0.1630
  49   0.0000       0.014884         0.4050
  50   0.0000       0.025537         0.6949
  51   0.0000       0.036592         0.9957
  52   0.0000       0.053687         1.4609

MULLIKEN ATOMIC CHARGES
-----------------------
   0 C :    0.069723
   1 C :   -0.006812
   2 H :    0.043654
   3 C :    0.018216
   4 H :    0.090820
   5 C :    0.024163
   6 H :    0.086181
   7 C :    0.049339
   8 H :    0.064994
   9 C :    0.194795
  10 H :    0.056004
  11 O :   -0.311131
  12 O :   -0.372703
  13 O :   -0.423456
  14 O :   -0.420780
  15 O :   -0.426454
  16 O :   -0.431738
  17 H :    0.094447
  18 H :    0.088914
  19 H :    0.299557
  20 H :    0.303573
  21 H :    0.297789
  22 H :    0.311808
  23 H :    0.299097
Sum of atomic charges:   -0.0000000

LOEWDIN ATOMIC CHARGES
----------------------
   0 C :   -0.126726
   1 C :   -0.084812
   2 H :    0.096794
   3 C :   -0.080188
   4 H :    0.116286
   5 C :   -0.074722
   6 H :    0.122086
   7 C :   -0.093159
   8 H :    0.115185
   9 C :   -0.000275
  10 H :    0.102294
  11 O :   -0.161143
  12 O :   -0.281611
  13 O :   -0.314715
  14 O :   -0.314129
  15 O :   -0.318156
  16 O :   -0.328387
  17 H :    0.105555
  18 H :    0.116036
  19 H :    0.284613
  20 H :    0.272557
  21 H :    0.267318
  22 H :    0.293087
  23 H :    0.286214

  Mayer bond orders larger than 0.100000
B(  0-C ,  1-C ) :   1.0225 B(  0-C , 16-O ) :   1.0571 B(  0-C , 17-H ) :   0.9178
B(  0-C , 18-H ) :   0.9104 B(  1-C ,  2-H ) :   0.8775 B(  1-C ,  3-C ) :   0.9488
B(  1-C , 11-O ) :   1.0032 B(  3-C ,  4-H ) :   0.8992 B(  3-C ,  5-C ) :   0.9985
B(  3-C , 15-O ) :   1.0227 B(  5-C ,  6-H ) :   0.8906 B(  5-C ,  7-C ) :   0.9773
B(  5-C , 14-O ) :   1.0441 B(  7-C ,  8-H ) :   0.8957 B(  7-C ,  9-C ) :   0.9531
B(  7-C , 13-O ) :   1.0701 B(  9-C , 10-H ) :   0.8757 B(  9-C , 11-O ) :   0.9758
B(  9-C , 12-O ) :   1.1501 B( 12-O , 19-H ) :   0.8445 B( 13-O , 20-H ) :   0.8175
B( 14-O , 21-H ) :   0.8221 B( 15-O , 22-H ) :   0.8412 B( 16-O , 23-H ) :   0.8522

Dispersion correction           -0.024930235
FINAL SINGLE POINT ENERGY      -685.688704551501

DIPOLE MOMENT
-------------

Method             : SCF
Type of density    : Electron Density
Multiplicity       :   1
Irrep              :   0
Energy             :  -685.8210297450131065 Eh
Relativity type    :
Basis              : AO
                                X                 Y                 Z
Electronic contribution:      2.538621878      -0.328899153       0.122434553
Nuclear contribution   :     -3.872015101      -0.088101883       0.232314112
                        -----------------------------------------
Total Dipole Moment    :     -1.333393222      -0.417001036       0.354748665
                        -----------------------------------------
Magnitude (a.u.)       :      1.441413877
Magnitude (Debye)      :      3.663782910

Rotational constants in cm-1:             0.043093             0.024936             0.021302
Rotational constants in MHz :          1291.890189           747.554368           638.604935

                             ****ORCA TERMINATED NORMALLY****
TOTAL RUN TIME: 0 days 0 hours 0 minutes 9 seconds 493 msec
