                         Program Version 6.0.1  -  RELEASE   -
|  1> ! r2scan-3c def2/J RI DEFGRID2 scfconv6 printgap
|  2> %output
|  3>     printlevel normal
|  4> end
|  5> * xyz 0 1
|  6> C 1.1595361691 -0.6975514156 0.0011147878
|  7> C 1.1595696931 0.6974845631 0.0012788293
|  8> C 2.3646731901 1.392740015 0.0005745797
|  9> C 3.5758368341 0.6960764874 -0.0003676778
| 10> C 3.5758097883 -0.6960386797 -0.0005036327
| 11> C 2.3646833324 -1.3927434008 0.0002227214
| 12> Cl 2.3334273187 -3.1033277094 1.43829e-05
| 13> Cl 5.0515600641 -1.5579548202 -0.0015795908
| 14> Cl 5.0515396941 1.5579975307 -0.0011276541
| 15> Cl 2.3333385876 3.1033225323 0.001000157
| 16> O 1.36578e-05 1.4228098443 0.0021291479
| 17> C -1.1595627214 0.6975079857 0.0012362702
| 18> C -1.1595406591 -0.6975286558 0.001235095
| 19> C -2.3646788958 -1.3927346429 0.0005926252
| 20> C -3.5758470527 -0.6960805117 -0.0002224216
| 21> C -3.5757950311 0.6960360626 -0.0003654186
| 22> C -2.3646716186 1.3927229783 0.0004154055
| 23> Cl -2.3334003106 3.1033423416 2.54645e-05
| 24> Cl -5.0515506282 1.5579601103 -0.0018152499
| 25> Cl -5.0515502439 -1.5579888439 -0.0009703545
| 26> Cl -2.3333718367 -3.103310517 0.0009260936
| 27> O -7.1407e-06 -1.4228178746 0.0017736629
| 28> *
| 29>
| 30>                          ****END OF INPUT****

CARTESIAN COORDINATES (ANGSTROEM)
---------------------------------
  C      1.159536   -0.697551    0.001115
  C      1.159570    0.697485    0.001279
  C      2.364673    1.392740    0.000575
  C      3.575837    0.696076   -0.000368
  C      3.575810   -0.696039   -0.000504
  C      2.364683   -1.392743    0.000223
  Cl     2.333427   -3.103328    0.000014
  Cl     5.051560   -1.557955   -0.001580
  Cl     5.051540    1.557998   -0.001128
  Cl     2.333339    3.103323    0.001000
  O      0.000014    1.422810    0.002129
  C     -1.159563    0.697508    0.001236
  C     -1.159541   -0.697529    0.001235
  C     -2.364679   -1.392735    0.000593
  C     -3.575847   -0.696081   -0.000222
  C     -3.575795    0.696036   -0.000365
  C     -2.364672    1.392723    0.000415
  Cl    -2.333400    3.103342    0.000025
  Cl    -5.051551    1.557960   -0.001815
  Cl    -5.051550   -1.557989   -0.000970
  Cl    -2.333372   -3.103311    0.000926
  O     -0.000007   -1.422818    0.001774

 Total Charge           Charge          ....    0
 Multiplicity           Mult            ....    1
 Number of Electrons    NEL             ....  224
 Basis Dimension        Dim             ....  492

ORBITAL ENERGIES
----------------

  NO   OCC          E(Eh)            E(eV)
   0   2.0000    -101.250093     -2755.1551
   1   2.0000    -101.250091     -2755.1551
   2   2.0000    -101.250090     -2755.1550
   3   2.0000    -101.250089     -2755.1550
   4   2.0000    -101.248552     -2755.1132
   5   2.0000    -101.248550     -2755.1131
   6   2.0000    -101.248543     -2755.1129
   7   2.0000    -101.248542     -2755.1129
   8   2.0000     -19.058996      -518.6217
   9   2.0000     -19.058983      -518.6213
  10   2.0000     -10.157911      -276.4108
  11   2.0000     -10.157900      -276.4105
  12   2.0000     -10.157489      -276.3993
  13   2.0000     -10.157481      -276.3991
  14   2.0000     -10.143284      -276.0128
  15   2.0000     -10.143281      -276.0127
  16   2.0000     -10.142995      -276.0049
  17   2.0000     -10.142990      -276.0048
  18   2.0000     -10.142704      -275.9970
  19   2.0000     -10.142703      -275.9970
  20   2.0000     -10.142576      -275.9935
  21   2.0000     -10.142573      -275.9935
  22   2.0000      -9.405676      -255.9414
  23   2.0000      -9.405675      -255.9414
  24   2.0000      -9.405673      -255.9414
  25   2.0000      -9.405672      -255.9414
  26   2.0000      -9.404351      -255.9054
  27   2.0000      -9.404348      -255.9053
  28   2.0000      -9.404341      -255.9051
  29   2.0000      -9.404340      -255.9051
  30   2.0000      -7.152469      -194.6286
  31   2.0000      -7.152469      -194.6286
  32   2.0000      -7.152468      -194.6285
  33   2.0000      -7.152467      -194.6285
  34   2.0000      -7.151084      -194.5909
  35   2.0000      -7.151081      -194.5908
  36   2.0000      -7.151076      -194.5907
  37   2.0000      -7.151075      -194.5906
  38   2.0000      -7.141910      -194.3413
  39   2.0000      -7.141910      -194.3413
  40   2.0000      -7.141910      -194.3412
  41   2.0000      -7.141909      -194.3412
  42   2.0000      -7.140926      -194.3145
  43   2.0000      -7.140926      -194.3145
  44   2.0000      -7.140926      -194.3145
  45   2.0000      -7.140925      -194.3144
  46   2.0000      -7.140592      -194.3054
  47   2.0000      -7.140590      -194.3053
  48   2.0000      -7.140584      -194.3052
  49   2.0000      -7.140583      -194.3051
  50   2.0000      -7.139607      -194.2786
  51   2.0000      -7.139604      -194.2785
  52   2.0000      -7.139599      -194.2784
  53   2.0000      -7.139598      -194.2783
  54   2.0000      -1.132532       -30.8178
  55   2.0000      -1.098517       -29.8922
  56   2.0000      -0.940384       -25.5891
  57   2.0000      -0.930380       -25.3169
  58   2.0000      -0.893825       -24.3222
  59   2.0000      -0.886932       -24.1346
  60   2.0000      -0.875264       -23.8171
  61   2.0000      -0.859825       -23.3970
  62   2.0000      -0.838056       -22.8047
  63   2.0000      -0.835277       -22.7290
  64   2.0000      -0.827200       -22.5092
  65   2.0000      -0.812571       -22.1112
  66   2.0000      -0.751859       -20.4591
  67   2.0000      -0.748871       -20.3778
  68   2.0000      -0.716778       -19.5045
  69   2.0000      -0.710721       -19.3397
  70   2.0000      -0.666548       -18.1377
  71   2.0000      -0.632101       -17.2003
  72   2.0000      -0.613290       -16.6885
  73   2.0000      -0.587821       -15.9954
  74   2.0000      -0.585639       -15.9361
  75   2.0000      -0.554900       -15.0996
  76   2.0000      -0.518886       -14.1196
  77   2.0000      -0.512939       -13.9578
  78   2.0000      -0.499101       -13.5812
  79   2.0000      -0.493734       -13.4352
  80   2.0000      -0.478565       -13.0224
  81   2.0000      -0.461182       -12.5494
  82   2.0000      -0.457346       -12.4450
  83   2.0000      -0.444880       -12.1058
  84   2.0000      -0.442116       -12.0306
  85   2.0000      -0.440046       -11.9743
  86   2.0000      -0.435535       -11.8515
  87   2.0000      -0.429056       -11.6752
  88   2.0000      -0.422079       -11.4853
  89   2.0000      -0.418772       -11.3954
  90   2.0000      -0.417635       -11.3644
  91   2.0000      -0.385203       -10.4819
  92   2.0000      -0.369981       -10.0677
  93   2.0000      -0.365079        -9.9343
  94   2.0000      -0.357905        -9.7391
  95   2.0000      -0.344646        -9.3783
  96   2.0000      -0.331499        -9.0205
  97   2.0000      -0.330002        -8.9798
  98   2.0000      -0.328278        -8.9329
  99   2.0000      -0.326514        -8.8849
 100   2.0000      -0.324499        -8.8301
 101   2.0000      -0.324430        -8.8282
 102   2.0000      -0.319616        -8.6972
 103   2.0000      -0.313145        -8.5211
 104   2.0000      -0.308883        -8.4051
 105   2.0000      -0.290790        -7.9128
 106   2.0000      -0.289004        -7.8642
 107   2.0000      -0.288590        -7.8529
 108   2.0000      -0.260370        -7.0850
 109   2.0000      -0.252241        -6.8638
 110   2.0000      -0.237093        -6.4516
 111   2.0000      -0.217802        -5.9267
 112   0.0000      -0.090689        -2.4678
 113   0.0000      -0.078899        -2.1470
 114   0.0000      -0.077674        -2.1136
 115   0.0000      -0.075647        -2.0585
 116   0.0000      -0.064653        -1.7593

MULLIKEN ATOMIC CHARGES
-----------------------
   0 C :    0.504385
   1 C :    0.504384
   2 C :   -0.400915
   3 C :    0.034409
   4 C :    0.034498
   5 C :   -0.400978
   6 Cl:   -0.053966
   7 Cl:   -0.052931
   8 Cl:   -0.052902
   9 Cl:   -0.053957
  10 O :   -0.062056
  11 C :    0.504403
  12 C :    0.504508
  13 C :   -0.401075
  14 C :    0.034455
  15 C :    0.034453
  16 C :   -0.400948
  17 Cl:   -0.053976
  18 Cl:   -0.052940
  19 Cl:   -0.052890
  20 Cl:   -0.053968
  21 O :   -0.061993
Sum of atomic charges:    0.0000000

LOEWDIN ATOMIC CHARGES
----------------------
   0 C :    0.214598
   1 C :    0.214599
   2 C :   -0.149107
   3 C :   -0.199650
   4 C :   -0.199636
   5 C :   -0.149110
   6 Cl:    0.227573
   7 Cl:    0.195830
   8 Cl:    0.195861
   9 Cl:    0.227585
  10 O :   -0.578552
  11 C :    0.214603
  12 C :    0.214596
  13 C :   -0.149107
  14 C :   -0.199656
  15 C :   -0.199627
  16 C :   -0.149100
  17 Cl:    0.227558
  18 Cl:    0.195824
  19 Cl:    0.195869
  20 Cl:    0.227579
  21 O :   -0.578527

  Mayer bond orders larger than 0.100000
B(  0-C ,  1-C ) :   1.4319 B(  0-C ,  2-C ) :  -0.1648 B(  0-C ,  5-C ) :   0.7234
B(  0-C ,  6-Cl) :  -0.2933 B(  0-C , 12-C ) :   0.1378 B(  0-C , 21-O ) :   1.0611
B(  1-C ,  2-C ) :   0.7234 B(  1-C ,  5-C ) :  -0.1648 B(  1-C ,  9-Cl) :  -0.2933
B(  1-C , 10-O ) :   1.0610 B(  1-C , 11-C ) :   0.1378 B(  2-C ,  3-C ) :   0.9231
B(  2-C ,  5-C ) :   0.1465 B(  2-C ,  9-Cl) :   1.5244 B(  3-C ,  4-C ) :   1.0817
B(  3-C ,  8-Cl) :   1.2712 B(  4-C ,  5-C ) :   0.9230 B(  4-C ,  7-Cl) :   1.2711
B(  5-C ,  6-Cl) :   1.5244 B( 10-O , 11-C ) :   1.0610 B( 11-C , 12-C ) :   1.4319
B( 11-C , 13-C ) :  -0.1648 B( 11-C , 16-C ) :   0.7233 B( 11-C , 17-Cl) :  -0.2933
B( 12-C , 13-C ) :   0.7233 B( 12-C , 16-C ) :  -0.1649 B( 12-C , 20-Cl) :  -0.2933
B( 12-C , 21-O ) :   1.0610 B( 13-C , 14-C ) :   0.9230 B( 13-C , 16-C ) :   0.1465
B( 13-C , 20-Cl) :   1.5244 B( 14-C , 15-C ) :   1.0816 B( 14-C , 19-Cl) :   1.2712
B( 15-C , 16-C ) :   0.9230 B( 15-C , 18-Cl) :   1.2711 B( 16-C , 17-Cl) :   1.5244

Dispersion correction           -0.016965160
FINAL SINGLE POINT ENERGY     -4288.996623825529

DIPOLE MOMENT
-------------

Method             : SCF
Type of density    : Electron Density
Multiplicity       :   1
Irrep              :   0
Energy             : -4288.9975104611203278 Eh
Relativity type    :
Basis              : AO
                                X                 Y                 Z
Electronic contribution:     -0.000030294      -0.000032158      -0.004650441
Nuclear contribution   :      0.000009968      -0.000054645       0.004791315
                        -----------------------------------------
Total Dipole Moment    :     -0.000020326      -0.000086803       0.000140875
                        -----------------------------------------
Magnitude (a.u.)       :      0.000166714
Magnitude (Debye)      :      0.000423753

Rotational constants in cm-1:             0.008805             0.003158             0.002324
Rotational constants in MHz :           263.963856            94.667591            69.678291

                             ****ORCA TERMINATED NORMALLY****
TOTAL RUN TIME: 0 days 0 hours 1 minutes 5 seconds 880 msec
