                         Program Version 6.0.1  -  RELEASE   -
|  1> ! pbe def2-sv(p) def2/J RI DEFGRID1 loosescf d4 GCP(DFT/SV(P)) printgap
|  2> %output
|  3>     printlevel normal
|  4> end
|  5> * xyz 0 1
|  6> C 0.442933318 -5.69897e-05 -0.39245666
|  7> F 1.0402453632 1.0759752974 0.1234286642
|  8> F 1.0402826052 -1.0759289674 0.1234508417
|  9> Cl -1.280964232 -3.9617e-06 0.0429035896
| 10> H 0.562804129 -5.4805e-05 -1.4858414782
| 11> *
| 12>
| 13>                          ****END OF INPUT****

CARTESIAN COORDINATES (ANGSTROEM)
---------------------------------
  C      0.442933   -0.000057   -0.392457
  F      1.040245    1.075975    0.123429
  F      1.040283   -1.075929    0.123451
  Cl    -1.280964   -0.000004    0.042904
  H      0.562804   -0.000055   -1.485841

 Total Charge           Charge          ....    0
 Multiplicity           Mult            ....    1
 Number of Electrons    NEL             ....   42
 Basis Dimension        Dim             ....   62

ORBITAL ENERGIES
----------------

  NO   OCC          E(Eh)            E(eV)
   0   2.0000    -100.647186     -2738.7492
   1   2.0000     -24.299834      -661.2321
   2   2.0000     -24.299721      -661.2290
   3   2.0000     -10.103858      -274.9399
   4   2.0000      -9.184734      -249.9293
   5   2.0000      -7.015973      -190.9143
   6   2.0000      -7.004433      -190.6003
   7   2.0000      -7.004212      -190.5943
   8   2.0000      -1.174580       -31.9619
   9   2.0000      -1.107556       -30.1381
  10   2.0000      -0.792202       -21.5569
  11   2.0000      -0.621434       -16.9101
  12   2.0000      -0.526566       -14.3286
  13   2.0000      -0.519316       -14.1313
  14   2.0000      -0.486656       -13.2426
  15   2.0000      -0.384947       -10.4750
  16   2.0000      -0.383097       -10.4246
  17   2.0000      -0.363620        -9.8946
  18   2.0000      -0.324237        -8.8229
  19   2.0000      -0.286163        -7.7869
  20   2.0000      -0.285781        -7.7765
  21   0.0000      -0.004194        -0.1141
  22   0.0000       0.056827         1.5463
  23   0.0000       0.077420         2.1067
  24   0.0000       0.126992         3.4556
  25   0.0000       0.348546         9.4844

MULLIKEN ATOMIC CHARGES
-----------------------
   0 C :    0.277042
   1 F :   -0.141306
   2 F :   -0.141195
   3 Cl:   -0.115541
   4 H :    0.121001
Sum of atomic charges:    0.0000000

LOEWDIN ATOMIC CHARGES
----------------------
   0 C :   -0.051085
   1 F :   -0.056384
   2 F :   -0.056271
   3 Cl:    0.061577
   4 H :    0.102164

  Mayer bond orders larger than 0.100000
B(  0-C ,  1-F ) :   1.1350 B(  0-C ,  2-F ) :   1.1352 B(  0-C ,  3-Cl) :   1.0634
B(  0-C ,  4-H ) :   0.9160

Dispersion correction           -0.002700814
FINAL SINGLE POINT ENERGY      -697.807370186518

DIPOLE MOMENT
-------------

Method             : SCF
Type of density    : Electron Density
Multiplicity       :   1
Irrep              :   0
Energy             :  -697.8334233191560543 Eh
Relativity type    :
Basis              : AO
                                X                 Y                 Z
Electronic contribution:     -0.256895187      -0.000109948       1.171578812
Nuclear contribution   :      0.319629600      -0.000089026      -1.680315608
                        -----------------------------------------
Total Dipole Moment    :      0.062734413      -0.000198974      -0.508736796
                        -----------------------------------------
Magnitude (a.u.)       :      0.512590259
Magnitude (Debye)      :      1.302900896

Rotational constants in cm-1:             0.346107             0.158011             0.115500
Rotational constants in MHz :         10376.015256          4737.057756          3462.600322

                             ****ORCA TERMINATED NORMALLY****
TOTAL RUN TIME: 0 days 0 hours 0 minutes 28 seconds 538 msec
