                         Program Version 6.0.0  -   RELEASE  -
|  1> ! r2SCAN-3c DEF2-TZVP FREQ
|  2> * xyzfile 0 1 censo.xyz
|  3>
|  4>                          ****END OF INPUT****

CARTESIAN COORDINATES (ANGSTROEM)
---------------------------------
  C      2.419987    0.696006    0.000032
  C      2.396775   -0.716399   -0.000074
  C      1.203113   -1.399504   -0.000056
  C     -0.023574   -0.695194    0.000004
  C      0.000101    0.734216    0.000027
  C      1.244612    1.408541    0.000058
  C     -1.238555    1.413990    0.000021
  C     -2.401233    0.685970    0.000005
  C     -2.322460   -0.721874   -0.000008
  N     -1.191695   -1.405669   -0.000022
  H      3.372677    1.215901    0.000006
  H      3.333616   -1.264839   -0.000058
  H      1.177966   -2.484770   -0.000074
  H      1.251199    2.494977    0.000077
  H     -1.251307    2.500293    0.000068
  H     -3.371990    1.169625   -0.000003
  H     -3.241865   -1.305203   -0.000038

 Total Charge           Charge          ....    0
 Multiplicity           Mult            ....    1
 Number of Electrons    NEL             ....   68
 Basis Dimension        Dim             ....  352

ORBITAL ENERGIES
----------------

  NO   OCC          E(Eh)            E(eV)
   0   2.0000     -14.159031      -385.2868
   1   2.0000     -10.074557      -274.1426
   2   2.0000     -10.072458      -274.0855
   3   2.0000     -10.059597      -273.7356
   4   2.0000     -10.056394      -273.6484
   5   2.0000     -10.048333      -273.4290
   6   2.0000     -10.048259      -273.4270
   7   2.0000     -10.046745      -273.3858
   8   2.0000     -10.046247      -273.3723
   9   2.0000     -10.039901      -273.1996
  10   2.0000      -0.909766       -24.7560
  11   2.0000      -0.820403       -22.3243
  12   2.0000      -0.778984       -21.1972
  13   2.0000      -0.723122       -19.6771
  14   2.0000      -0.712924       -19.3997
  15   2.0000      -0.617185       -16.7945
  16   2.0000      -0.600643       -16.3443
  17   2.0000      -0.574464       -15.6320
  18   2.0000      -0.500074       -13.6077
  19   2.0000      -0.489318       -13.3150
  20   2.0000      -0.478119       -13.0103
  21   2.0000      -0.427324       -11.6281
  22   2.0000      -0.413103       -11.2411
  23   2.0000      -0.400148       -10.8886
  24   2.0000      -0.390971       -10.6389
  25   2.0000      -0.383466       -10.4346
  26   2.0000      -0.374611       -10.1937
  27   2.0000      -0.331760        -9.0276
  28   2.0000      -0.325792        -8.8653
  29   2.0000      -0.322132        -8.7657
  30   2.0000      -0.292034        -7.9466
  31   2.0000      -0.241988        -6.5848
  32   2.0000      -0.228457        -6.2166
  33   2.0000      -0.222585        -6.0569
  34   0.0000      -0.086081        -2.3424
  35   0.0000      -0.047467        -1.2917
  36   0.0000      -0.019258        -0.5240
  37   0.0000       0.051773         1.4088
  38   0.0000       0.055597         1.5129

MULLIKEN ATOMIC CHARGES
-----------------------
   0 C :   -0.105178
   1 C :   -0.038457
   2 C :   -0.274384
   3 C :    0.238967
   4 C :    0.118926
   5 C :   -0.195937
   6 C :   -0.176094
   7 C :   -0.096985
   8 C :   -0.009103
   9 N :   -0.231280
  10 H :    0.113002
  11 H :    0.113875
  12 H :    0.101360
  13 H :    0.104941
  14 H :    0.111929
  15 H :    0.115294
  16 H :    0.109123
Sum of atomic charges:    0.0000000

LOEWDIN ATOMIC CHARGES
----------------------
   0 C :   -0.137768
   1 C :   -0.133136
   2 C :   -0.095798
   3 C :   -0.163692
   4 C :   -0.104108
   5 C :   -0.102362
   6 C :   -0.081371
   7 C :   -0.151699
   8 C :   -0.202114
   9 N :    0.154955
  10 H :    0.144412
  11 H :    0.145067
  12 H :    0.150913
  13 H :    0.146421
  14 H :    0.148877
  15 H :    0.145171
  16 H :    0.136231

  Mayer bond orders larger than 0.100000
B(  0-C ,  1-C ) :   1.2538 B(  0-C ,  5-C ) :   1.5324 B(  0-C , 10-H ) :   0.9706
B(  1-C ,  2-C ) :   1.5134 B(  1-C , 11-H ) :   0.9710 B(  2-C ,  3-C ) :   1.2585
B(  2-C , 12-H ) :   0.9907 B(  3-C ,  4-C ) :   1.1737 B(  3-C ,  9-N ) :   1.2670
B(  4-C ,  5-C ) :   1.1555 B(  4-C ,  6-C ) :   1.1972 B(  5-C , 13-H ) :   0.9735
B(  6-C ,  7-C ) :   1.5511 B(  6-C , 14-H ) :   0.9744 B(  7-C ,  8-C ) :   1.2327
B(  7-C , 15-H ) :   0.9619 B(  8-C ,  9-N ) :   1.5808 B(  8-C , 16-H ) :   0.9834

Dispersion correction           -0.006501759
FINAL SINGLE POINT ENERGY      -401.854706233457

DIPOLE MOMENT
-------------

Method             : SCF
Type of density    : Electron Density
Multiplicity       :   1
Irrep              :   0
Energy             :  -401.8534302122164377 Eh
Relativity type    :
Basis              : AO
                                X                 Y                 Z
Electronic contribution:     -1.089720591      -1.387923797       0.000022614
Nuclear contribution   :      1.187863741       2.197856001      -0.000009771
                        -----------------------------------------
Total Dipole Moment    :      0.098143150       0.809932204       0.000012844
                        -----------------------------------------
Magnitude (a.u.)       :      0.815856760
Magnitude (Debye)      :      2.073743081

VIBRATIONAL FREQUENCIES
-----------------------

Scaling factor for frequencies =  1.000000000  (already applied!)

     0:       0.00 cm**-1
     1:       0.00 cm**-1
     2:       0.00 cm**-1
     3:       0.00 cm**-1
     4:       0.00 cm**-1
     5:       0.00 cm**-1
     6:     173.72 cm**-1
     7:     182.97 cm**-1
     8:     386.18 cm**-1
     9:     401.41 cm**-1
    10:     475.64 cm**-1
    11:     484.91 cm**-1
    12:     529.92 cm**-1
    13:     531.84 cm**-1
    14:     627.70 cm**-1
    15:     650.03 cm**-1
    16:     737.27 cm**-1
    17:     769.96 cm**-1
    18:     806.34 cm**-1
    19:     814.89 cm**-1
    20:     835.31 cm**-1
    21:     883.88 cm**-1
    22:     953.45 cm**-1
    23:     954.78 cm**-1
    24:     960.19 cm**-1
    25:     980.59 cm**-1
    26:     986.58 cm**-1
    27:    1035.65 cm**-1
    28:    1058.03 cm**-1
    29:    1142.52 cm**-1
    30:    1160.72 cm**-1
    31:    1170.43 cm**-1
    32:    1237.57 cm**-1
    33:    1255.33 cm**-1
    34:    1280.42 cm**-1
    35:    1342.41 cm**-1
    36:    1387.49 cm**-1
    37:    1416.12 cm**-1
    38:    1460.66 cm**-1
    39:    1490.54 cm**-1
    40:    1534.04 cm**-1
    41:    1591.46 cm**-1
    42:    1621.86 cm**-1
    43:    1645.11 cm**-1
    44:    3130.45 cm**-1
    45:    3152.33 cm**-1
    46:    3156.99 cm**-1
    47:    3161.99 cm**-1
    48:    3174.95 cm**-1
    49:    3182.27 cm**-1
    50:    3183.75 cm**-1

IR SPECTRUM
-----------

 Mode   freq       eps      Int      T**2         TX        TY        TZ
       cm**-1   L/(mol*cm) km/mol    a.u.
----------------------------------------------------------------------------
  6:    173.72   0.000669    3.38  0.001202  (-0.000006 -0.000009 -0.034677)
  7:    182.97   0.000239    1.21  0.000407  ( 0.000038 -0.000007 -0.020177)
  8:    386.18   0.000853    4.31  0.000689  (-0.014258 -0.022046 -0.000003)
  9:    401.41   0.000320    1.62  0.000249  ( 0.000022  0.000018  0.015775)
 10:    475.64   0.000000    0.00  0.000000  ( 0.000137  0.000018 -0.000009)
 11:    484.91   0.001764    8.92  0.001136  ( 0.000014 -0.000004 -0.033697)
 12:    529.92   0.000020    0.10  0.000012  ( 0.003309  0.000825  0.000001)
 13:    531.84   0.000028    0.14  0.000016  (-0.001288 -0.003837 -0.000004)
 14:    627.70   0.001128    5.70  0.000561  ( 0.016375 -0.017110  0.000001)
 15:    650.03   0.000157    0.80  0.000076  ( 0.000088  0.000000  0.008692)
 16:    737.27   0.001610    8.13  0.000681  (-0.000002 -0.000014  0.026103)
 17:    769.96   0.000398    2.01  0.000161  (-0.009380 -0.008570  0.000002)
 18:    806.34   0.007568   38.25  0.002929  ( 0.000012  0.000021  0.054120)
 19:    814.89   0.010229   51.69  0.003917  (-0.000002 -0.000014  0.062588)
 20:    835.31   0.000112    0.57  0.000042  (-0.001252  0.006341  0.000009)
 21:    883.88   0.000030    0.15  0.000010  (-0.000027 -0.000018 -0.003237)
 22:    953.45   0.000248    1.25  0.000081  ( 0.000003 -0.000001  0.009012)
 23:    954.78   0.000014    0.07  0.000005  (-0.000011  0.000000  0.002169)
 24:    960.19   0.000725    3.66  0.000236  ( 0.005205  0.014439  0.000002)
 25:    980.59   0.000162    0.82  0.000052  ( 0.000012  0.000006  0.007177)
 26:    986.58   0.000231    1.17  0.000073  (-0.000010  0.000009  0.008543)
 27:   1035.65   0.000746    3.77  0.000225  (-0.014964  0.000871  0.000000)
 28:   1058.03   0.000520    2.63  0.000153  (-0.006856 -0.010317  0.000001)
 29:   1142.52   0.001892    9.56  0.000517  (-0.008191  0.021208  0.000001)
 30:   1160.72   0.000440    2.22  0.000118  ( 0.007960  0.007409  0.000001)
 31:   1170.43   0.000108    0.55  0.000029  (-0.003352 -0.004205 -0.000000)
 32:   1237.57   0.000029    0.15  0.000007  ( 0.002639  0.000609 -0.000000)
 33:   1255.33   0.000224    1.13  0.000056  ( 0.006798  0.003087 -0.000000)
 34:   1280.42   0.000091    0.46  0.000022  (-0.002361 -0.004084  0.000000)
 35:   1342.41   0.001646    8.32  0.000383  (-0.012135  0.015341  0.000000)
 36:   1387.49   0.000971    4.91  0.000218  ( 0.013118 -0.006814 -0.000000)
 37:   1416.12   0.000494    2.50  0.000109  (-0.003641  0.009775  0.000000)
 38:   1460.66   0.000921    4.66  0.000197  ( 0.011278  0.008348  0.000000)
 39:   1490.54   0.000321    1.62  0.000067  ( 0.003947  0.007180 -0.000000)
 40:   1534.04   0.005392   27.25  0.001097  (-0.029409 -0.015228 -0.000000)
 41:   1591.46   0.002312   11.68  0.000453  ( 0.013461 -0.016497 -0.000001)
 42:   1621.86   0.002619   13.23  0.000504  ( 0.016684  0.015016  0.000000)
 43:   1645.11   0.001175    5.94  0.000223  (-0.013806  0.005674  0.000000)
 44:   3130.45   0.004823   24.37  0.000481  (-0.019344 -0.010325 -0.000000)
 45:   3152.33   0.000344    1.74  0.000034  ( 0.000389 -0.005824 -0.000000)
 46:   3156.99   0.001510    7.63  0.000149  ( 0.004032  0.011531  0.000000)
 47:   3161.99   0.001590    8.04  0.000157  (-0.003506  0.012027  0.000001)
 48:   3174.95   0.002931   14.81  0.000288  (-0.008912 -0.014444 -0.000001)
 49:   3182.27   0.004746   23.99  0.000465  ( 0.019263 -0.009714 -0.000000)
 50:   3183.75   0.001483    7.50  0.000145  (-0.011973  0.001430  0.000000)

--------------------------
THERMOCHEMISTRY AT 298.15K
--------------------------

Temperature         ...   298.15 K
Pressure            ...     1.00 atm
Total Mass          ...   129.16 AMU
Quasi RRHO          ...     True
Cut-Off Frequency   ...     1.00 cm^-1

Throughout the following assumptions are being made:
  (1) The electronic state is orbitally nondegenerate
  (2) There are no thermally accessible electronically excited states
  (3) Hindered rotations indicated by low frequency modes are not
      treated as such but are treated as vibrations and this may
      cause some error
  (4) All equations used are the standard statistical mechanics
      equations for an ideal gas
  (5) All vibrations are strictly harmonic

freq.     173.72  E(vib)   ...       0.38
freq.     182.97  E(vib)   ...       0.37
freq.     386.18  E(vib)   ...       0.20
freq.     401.41  E(vib)   ...       0.19
freq.     475.64  E(vib)   ...       0.15
freq.     484.91  E(vib)   ...       0.15
freq.     529.92  E(vib)   ...       0.13
freq.     531.84  E(vib)   ...       0.13
freq.     627.70  E(vib)   ...       0.09
freq.     650.03  E(vib)   ...       0.08
freq.     737.27  E(vib)   ...       0.06
freq.     769.96  E(vib)   ...       0.05
freq.     806.34  E(vib)   ...       0.05
freq.     814.89  E(vib)   ...       0.05
freq.     835.31  E(vib)   ...       0.04
freq.     883.88  E(vib)   ...       0.04
freq.     953.45  E(vib)   ...       0.03
freq.     954.78  E(vib)   ...       0.03
freq.     960.19  E(vib)   ...       0.03
freq.     980.59  E(vib)   ...       0.02
freq.     986.58  E(vib)   ...       0.02
freq.    1035.65  E(vib)   ...       0.02
freq.    1058.03  E(vib)   ...       0.02
freq.    1142.52  E(vib)   ...       0.01
freq.    1160.72  E(vib)   ...       0.01
freq.    1170.43  E(vib)   ...       0.01
freq.    1237.57  E(vib)   ...       0.01
freq.    1255.33  E(vib)   ...       0.01
freq.    1280.42  E(vib)   ...       0.01
freq.    1342.41  E(vib)   ...       0.01
freq.    1387.49  E(vib)   ...       0.00
freq.    1416.12  E(vib)   ...       0.00
freq.    1460.66  E(vib)   ...       0.00
freq.    1490.54  E(vib)   ...       0.00
freq.    1534.04  E(vib)   ...       0.00
freq.    1591.46  E(vib)   ...       0.00
freq.    1621.86  E(vib)   ...       0.00
freq.    1645.11  E(vib)   ...       0.00
freq.    3130.45  E(vib)   ...       0.00
freq.    3152.33  E(vib)   ...       0.00
freq.    3156.99  E(vib)   ...       0.00
freq.    3161.99  E(vib)   ...       0.00
freq.    3174.95  E(vib)   ...       0.00
freq.    3182.27  E(vib)   ...       0.00
freq.    3183.75  E(vib)   ...       0.00

------------
INNER ENERGY
------------

The inner energy is: U= E(el) + E(ZPE) + E(vib) + E(rot) + E(trans)
    E(el)   - is the total energy from the electronic structure calculation
              = E(kin-el) + E(nuc-el) + E(el-el) + E(nuc-nuc)
    E(ZPE)  - the the zero temperature vibrational energy from the frequency calculation
    E(vib)  - the the finite temperature correction to E(ZPE) due to population
              of excited vibrational states
    E(rot)  - is the rotational thermal energy
    E(trans)- is the translational thermal energy

Summary of contributions to the inner energy U:
Electronic energy                ...   -401.85470623 Eh
Zero point energy                ...      0.13464118 Eh      84.49 kcal/mol
Thermal vibrational correction   ...      0.00386658 Eh       2.43 kcal/mol
Thermal rotational correction    ...      0.00141627 Eh       0.89 kcal/mol
Thermal translational correction ...      0.00141627 Eh       0.89 kcal/mol
-----------------------------------------------------------------------
Total thermal energy                   -401.71336593 Eh

Summary of corrections to the electronic energy:
(perhaps to be used in another calculation)
Total thermal correction                  0.00669912 Eh       4.20 kcal/mol
Non-thermal (ZPE) correction              0.13464118 Eh      84.49 kcal/mol
-----------------------------------------------------------------------
Total correction                          0.14134030 Eh      88.69 kcal/mol

--------
ENTHALPY
--------

The enthalpy is H = U + kB*T
                kB is Boltzmann's constant
Total thermal energy              ...   -401.71336593 Eh
Thermal Enthalpy correction       ...      0.00094421 Eh       0.59 kcal/mol
-----------------------------------------------------------------------
Total Enthalpy                    ...   -401.71242172 Eh

Note: Rotational entropy computed according to Herzberg
Infrared and Raman Spectra, Chapter V,1, Van Nostrand Reinhold, 1945
Point Group:  Cs, Symmetry Number:   1
Rotational constants in cm-1:     0.105220     0.042466     0.030255

Vibrational entropy computed according to the QRRHO of S. Grimme
Chem.Eur.J. 2012 18 9955 using a reference frequency of 100.0 cm-1

-------
ENTROPY
-------

The entropy contributions are T*S = T*(S(el)+S(vib)+S(rot)+S(trans))
     S(el)   - electronic entropy
     S(vib)  - vibrational entropy
     S(rot)  - rotational entropy
     S(trans)- translational entropy
The entropies will be listed as multiplied by the temperature to get
units of energy

Electronic entropy                ...      0.00000000 Eh      0.00 kcal/mol
Vibrational entropy               ...      0.00584645 Eh      3.67 kcal/mol
Rotational entropy                ...      0.01371660 Eh      8.61 kcal/mol
Translational entropy             ...      0.01923366 Eh     12.07 kcal/mol
-----------------------------------------------------------------------
Final entropy term                ...      0.03879671 Eh     24.35 kcal/mol

In case the symmetry of your molecule has not been determined correctly
or in case you have a reason to use a different symmetry number we print
out the resulting rotational entropy values for sn=1,12:

 non-linear molecules -----------------------------------
|  sn= 1 | S(rot)=       0.01371660 Eh      8.61 kcal/mol|
|  sn= 2 | S(rot)=       0.01306214 Eh      8.20 kcal/mol|
|  sn= 3 | S(rot)=       0.01267931 Eh      7.96 kcal/mol|
|  sn= 4 | S(rot)=       0.01240769 Eh      7.79 kcal/mol|
|  sn= 5 | S(rot)=       0.01219700 Eh      7.65 kcal/mol|
|  sn= 6 | S(rot)=       0.01202486 Eh      7.55 kcal/mol|
|  sn= 7 | S(rot)=       0.01187931 Eh      7.45 kcal/mol|
|  sn= 8 | S(rot)=       0.01175323 Eh      7.38 kcal/mol|
|  sn= 9 | S(rot)=       0.01164202 Eh      7.31 kcal/mol|
|  sn=10 | S(rot)=       0.01154254 Eh      7.24 kcal/mol|
|  sn=11 | S(rot)=       0.01145255 Eh      7.19 kcal/mol|
|  sn=12 | S(rot)=       0.01137040 Eh      7.14 kcal/mol|
 linear molecules ---------------------------------------
|  Dinfh | S(rot)=       0.00862864 Eh      5.41 kcal/mol|
|  Cinfv | S(rot)=       0.00928310 Eh      5.83 kcal/mol|
 --------------------------------------------------------

-------------------
GIBBS FREE ENERGY

                             ****ORCA TERMINATED NORMALLY****
TOTAL RUN TIME: 0 days 0 hours 17 minutes 12 seconds 410 msec
