                         Program Version 6.0.0  -   RELEASE  -
|  1> ! r2SCAN-3c DEF2-TZVP FREQ
|  2> * xyzfile 0 1 vacuum_censo.xyz
|  3>
|  4>                          ****END OF INPUT****

CARTESIAN COORDINATES (ANGSTROEM)
---------------------------------
  C      2.419599    0.694611   -0.000044
  C      2.394501   -0.717338   -0.000034
  C      1.200807   -1.397174   -0.000014
  C     -0.024438   -0.690114   -0.000016
  C      0.000975    0.739934   -0.000017
  C      1.246847    1.409695   -0.000027
  C     -1.239851    1.414291   -0.000031
  C     -2.400373    0.683904   -0.000055
  C     -2.316697   -0.726583   -0.000047
  N     -1.186425   -1.401421   -0.000024
  H      3.372931    1.213175   -0.000065
  H      3.330754   -1.266580   -0.000048
  H      1.159219   -2.481136   -0.000004
  H      1.260033    2.496347   -0.000028
  H     -1.257601    2.500931   -0.000029
  H     -3.371535    1.167386   -0.000080
  H     -3.232890   -1.317189   -0.000073

 Total Charge           Charge          ....    0
 Multiplicity           Mult            ....    1
 Number of Electrons    NEL             ....   68
 Basis Dimension        Dim             ....  352

ORBITAL ENERGIES
----------------

  NO   OCC          E(Eh)            E(eV)
   0   2.0000     -14.158286      -385.2665
   1   2.0000     -10.073833      -274.1229
   2   2.0000     -10.072308      -274.0814
   3   2.0000     -10.059292      -273.7272
   4   2.0000     -10.056207      -273.6433
   5   2.0000     -10.048347      -273.4294
   6   2.0000     -10.048076      -273.4220
   7   2.0000     -10.046524      -273.3798
   8   2.0000     -10.045948      -273.3642
   9   2.0000     -10.039327      -273.1840
  10   2.0000      -0.911718       -24.8091
  11   2.0000      -0.820787       -22.3347
  12   2.0000      -0.779102       -21.2004
  13   2.0000      -0.723132       -19.6774
  14   2.0000      -0.713068       -19.4036
  15   2.0000      -0.616722       -16.7819
  16   2.0000      -0.601353       -16.3636
  17   2.0000      -0.574301       -15.6275
  18   2.0000      -0.500295       -13.6137
  19   2.0000      -0.489482       -13.3195
  20   2.0000      -0.478046       -13.0083
  21   2.0000      -0.427290       -11.6271
  22   2.0000      -0.413040       -11.2394
  23   2.0000      -0.399914       -10.8822
  24   2.0000      -0.391616       -10.6564
  25   2.0000      -0.383669       -10.4402
  26   2.0000      -0.374620       -10.1939
  27   2.0000      -0.331829        -9.0295
  28   2.0000      -0.326107        -8.8738
  29   2.0000      -0.321907        -8.7595
  30   2.0000      -0.292424        -7.9573
  31   2.0000      -0.241717        -6.5775
  32   2.0000      -0.228163        -6.2086
  33   2.0000      -0.222763        -6.0617
  34   0.0000      -0.085448        -2.3252
  35   0.0000      -0.047618        -1.2957
  36   0.0000      -0.018595        -0.5060
  37   0.0000       0.052067         1.4168
  38   0.0000       0.055779         1.5178

MULLIKEN ATOMIC CHARGES
-----------------------
   0 C :   -0.101713
   1 C :   -0.040651
   2 C :   -0.268771
   3 C :    0.239726
   4 C :    0.115247
   5 C :   -0.198838
   6 C :   -0.175379
   7 C :   -0.098455
   8 C :   -0.009370
   9 N :   -0.229835
  10 H :    0.113036
  11 H :    0.113340
  12 H :    0.100921
  13 H :    0.104864
  14 H :    0.111708
  15 H :    0.115459
  16 H :    0.108710
Sum of atomic charges:    0.0000000

LOEWDIN ATOMIC CHARGES
----------------------
   0 C :   -0.137621
   1 C :   -0.133381
   2 C :   -0.095589
   3 C :   -0.165022
   4 C :   -0.104151
   5 C :   -0.102841
   6 C :   -0.082258
   7 C :   -0.150679
   8 C :   -0.203409
   9 N :    0.157567
  10 H :    0.144529
  11 H :    0.145136
  12 H :    0.150839
  13 H :    0.146575
  14 H :    0.148931
  15 H :    0.145051
  16 H :    0.136324

  Mayer bond orders larger than 0.100000
B(  0-C ,  1-C ) :   1.2532 B(  0-C ,  5-C ) :   1.5336 B(  0-C , 10-H ) :   0.9705
B(  1-C ,  2-C ) :   1.5152 B(  1-C , 11-H ) :   0.9718 B(  2-C ,  3-C ) :   1.2603
B(  2-C , 12-H ) :   0.9901 B(  3-C ,  4-C ) :   1.1723 B(  3-C ,  9-N ) :   1.2672
B(  4-C ,  5-C ) :   1.1556 B(  4-C ,  6-C ) :   1.1965 B(  5-C , 13-H ) :   0.9733
B(  6-C ,  7-C ) :   1.5541 B(  6-C , 14-H ) :   0.9743 B(  7-C ,  8-C ) :   1.2286
B(  7-C , 15-H ) :   0.9619 B(  8-C ,  9-N ) :   1.5849 B(  8-C , 16-H ) :   0.9832

Dispersion correction           -0.006505538
FINAL SINGLE POINT ENERGY      -401.854825671961

DIPOLE MOMENT
-------------

Method             : SCF
Type of density    : Electron Density
Multiplicity       :   1
Irrep              :   0
Energy             :  -401.8535640573765590 Eh
Relativity type    :
Basis              : AO
                                X                 Y                 Z
Electronic contribution:     -1.081123057      -1.378641992       0.000078290
Nuclear contribution   :      1.174221882       2.179932884      -0.000099593
                        -----------------------------------------
Total Dipole Moment    :      0.093098826       0.801290892      -0.000021304
                        -----------------------------------------
Magnitude (a.u.)       :      0.806681154
Magnitude (Debye)      :      2.050420545

VIBRATIONAL FREQUENCIES
-----------------------

Scaling factor for frequencies =  1.000000000  (already applied!)

     0:       0.00 cm**-1
     1:       0.00 cm**-1
     2:       0.00 cm**-1
     3:       0.00 cm**-1
     4:       0.00 cm**-1
     5:       0.00 cm**-1
     6:     171.80 cm**-1
     7:     180.50 cm**-1
     8:     385.40 cm**-1
     9:     398.98 cm**-1
    10:     474.74 cm**-1
    11:     482.68 cm**-1
    12:     531.02 cm**-1
    13:     532.68 cm**-1
    14:     627.07 cm**-1
    15:     649.15 cm**-1
    16:     737.89 cm**-1
    17:     770.63 cm**-1
    18:     806.28 cm**-1
    19:     815.62 cm**-1
    20:     836.92 cm**-1
    21:     884.51 cm**-1
    22:     953.86 cm**-1
    23:     957.97 cm**-1
    24:     961.00 cm**-1
    25:     981.92 cm**-1
    26:     986.25 cm**-1
    27:    1036.37 cm**-1
    28:    1053.45 cm**-1
    29:    1143.81 cm**-1
    30:    1161.42 cm**-1
    31:    1171.88 cm**-1
    32:    1242.12 cm**-1
    33:    1260.88 cm**-1
    34:    1282.14 cm**-1
    35:    1355.47 cm**-1
    36:    1388.45 cm**-1
    37:    1419.00 cm**-1
    38:    1462.72 cm**-1
    39:    1494.54 cm**-1
    40:    1534.55 cm**-1
    41:    1595.24 cm**-1
    42:    1627.22 cm**-1
    43:    1649.44 cm**-1
    44:    3119.12 cm**-1
    45:    3150.37 cm**-1
    46:    3153.05 cm**-1
    47:    3162.96 cm**-1
    48:    3177.38 cm**-1
    49:    3179.61 cm**-1
    50:    3187.94 cm**-1

IR SPECTRUM
-----------

 Mode   freq       eps      Int      T**2         TX        TY        TZ
       cm**-1   L/(mol*cm) km/mol    a.u.
----------------------------------------------------------------------------
  6:    171.80   0.000854    4.32  0.001552  ( 0.000000  0.000007 -0.039390)
  7:    180.50   0.000061    0.31  0.000106  ( 0.000005 -0.000006  0.010291)
  8:    385.40   0.000852    4.30  0.000689  ( 0.014150  0.022120 -0.000000)
  9:    398.98   0.000307    1.55  0.000240  (-0.000007  0.000007 -0.015492)
 10:    474.74   0.000006    0.03  0.000004  (-0.000005 -0.000001  0.001964)
 11:    482.68   0.001734    8.76  0.001121  ( 0.000003  0.000002  0.033483)
 12:    531.02   0.000022    0.11  0.000013  ( 0.003512  0.000708 -0.000001)
 13:    532.68   0.000028    0.14  0.000016  (-0.001029 -0.003906 -0.000001)
 14:    627.07   0.001140    5.76  0.000567  ( 0.016534 -0.017142 -0.000000)
 15:    649.15   0.000156    0.79  0.000075  ( 0.000004  0.000008 -0.008665)
 16:    737.89   0.001734    8.77  0.000734  ( 0.000008  0.000003 -0.027084)
 17:    770.63   0.000384    1.94  0.000155  (-0.009195 -0.008413 -0.000000)
 18:    806.28   0.006132   30.99  0.002373  ( 0.000002 -0.000001 -0.048715)
 19:    815.62   0.011521   58.22  0.004408  (-0.000001 -0.000001 -0.066393)
 20:    836.92   0.000115    0.58  0.000043  (-0.001400  0.006397 -0.000002)
 21:    884.51   0.000024    0.12  0.000008  (-0.000003 -0.000004  0.002893)
 22:    953.86   0.000266    1.35  0.000087  (-0.000002  0.000002 -0.009333)
 23:    957.97   0.000003    0.01  0.000001  (-0.000000  0.000002 -0.000980)
 24:    961.00   0.000735    3.72  0.000239  ( 0.005295  0.014519 -0.000000)
 25:    981.92   0.000119    0.60  0.000038  ( 0.000002 -0.000001 -0.006145)
 26:    986.25   0.000272    1.38  0.000086  ( 0.000000 -0.000001 -0.009285)
 27:   1036.37   0.000732    3.70  0.000220  (-0.014685  0.002183  0.000000)
 28:   1053.45   0.000593    3.00  0.000176  (-0.007841 -0.010691  0.000000)
 29:   1143.81   0.001953    9.87  0.000533  (-0.008163  0.021592 -0.000000)
 30:   1161.42   0.000357    1.81  0.000096  ( 0.007425  0.006392 -0.000000)
 31:   1171.88   0.000146    0.74  0.000039  (-0.004672 -0.004119 -0.000000)
 32:   1242.12   0.000077    0.39  0.000019  ( 0.004398  0.000262 -0.000000)
 33:   1260.88   0.000167    0.84  0.000041  ( 0.005928  0.002464 -0.000000)
 34:   1282.14   0.000106    0.53  0.000026  (-0.002140 -0.004602 -0.000000)
 35:   1355.47   0.001618    8.18  0.000373  (-0.011443  0.015545 -0.000000)
 36:   1388.45   0.000966    4.88  0.000217  ( 0.013265 -0.006423  0.000000)
 37:   1419.00   0.000516    2.61  0.000114  (-0.002440  0.010374  0.000000)
 38:   1462.72   0.000904    4.57  0.000193  ( 0.010934  0.008563  0.000000)
 39:   1494.54   0.000315    1.59  0.000066  ( 0.004039  0.007029 -0.000000)
 40:   1534.55   0.005372   27.15  0.001092  (-0.029270 -0.015352  0.000000)
 41:   1595.24   0.002438   12.32  0.000477  ( 0.012183 -0.018123 -0.000000)
 42:   1627.22   0.002437   12.32  0.000467  (-0.017466 -0.012742 -0.000000)
 43:   1649.44   0.001193    6.03  0.000226  (-0.014216  0.004865 -0.000000)
 44:   3119.12   0.005195   26.25  0.000520  (-0.020223 -0.010526 -0.000000)
 45:   3150.37   0.000370    1.87  0.000037  ( 0.000420 -0.006041 -0.000000)
 46:   3153.05   0.001870    9.45  0.000185  ( 0.003086  0.013248  0.000000)
 47:   3162.96   0.001721    8.70  0.000170  (-0.003354  0.012592  0.000000)
 48:   3177.38   0.003387   17.11  0.000333  (-0.015085 -0.010250  0.000000)
 49:   3179.61   0.003241   16.38  0.000318  (-0.014590  0.010258 -0.000000)
 50:   3187.94   0.001965    9.93  0.000192  ( 0.012120 -0.006741  0.000000)

--------------------------
THERMOCHEMISTRY AT 298.15K
--------------------------

Temperature         ...   298.15 K
Pressure            ...     1.00 atm
Total Mass          ...   129.16 AMU
Quasi RRHO          ...     True
Cut-Off Frequency   ...     1.00 cm^-1

Throughout the following assumptions are being made:
  (1) The electronic state is orbitally nondegenerate
  (2) There are no thermally accessible electronically excited states
  (3) Hindered rotations indicated by low frequency modes are not
      treated as such but are treated as vibrations and this may
      cause some error
  (4) All equations used are the standard statistical mechanics
      equations for an ideal gas
  (5) All vibrations are strictly harmonic

freq.     171.80  E(vib)   ...       0.38
freq.     180.50  E(vib)   ...       0.37
freq.     385.40  E(vib)   ...       0.20
freq.     398.98  E(vib)   ...       0.19
freq.     474.74  E(vib)   ...       0.15
freq.     482.68  E(vib)   ...       0.15
freq.     531.02  E(vib)   ...       0.13
freq.     532.68  E(vib)   ...       0.13
freq.     627.07  E(vib)   ...       0.09
freq.     649.15  E(vib)   ...       0.08
freq.     737.89  E(vib)   ...       0.06
freq.     770.63  E(vib)   ...       0.05
freq.     806.28  E(vib)   ...       0.05
freq.     815.62  E(vib)   ...       0.05
freq.     836.92  E(vib)   ...       0.04
freq.     884.51  E(vib)   ...       0.04
freq.     953.86  E(vib)   ...       0.03
freq.     957.97  E(vib)   ...       0.03
freq.     961.00  E(vib)   ...       0.03
freq.     981.92  E(vib)   ...       0.02
freq.     986.25  E(vib)   ...       0.02
freq.    1036.37  E(vib)   ...       0.02
freq.    1053.45  E(vib)   ...       0.02
freq.    1143.81  E(vib)   ...       0.01
freq.    1161.42  E(vib)   ...       0.01
freq.    1171.88  E(vib)   ...       0.01
freq.    1242.12  E(vib)   ...       0.01
freq.    1260.88  E(vib)   ...       0.01
freq.    1282.14  E(vib)   ...       0.01
freq.    1355.47  E(vib)   ...       0.01
freq.    1388.45  E(vib)   ...       0.00
freq.    1419.00  E(vib)   ...       0.00
freq.    1462.72  E(vib)   ...       0.00
freq.    1494.54  E(vib)   ...       0.00
freq.    1534.55  E(vib)   ...       0.00
freq.    1595.24  E(vib)   ...       0.00
freq.    1627.22  E(vib)   ...       0.00
freq.    1649.44  E(vib)   ...       0.00
freq.    3119.12  E(vib)   ...       0.00
freq.    3150.37  E(vib)   ...       0.00
freq.    3153.05  E(vib)   ...       0.00
freq.    3162.96  E(vib)   ...       0.00
freq.    3177.38  E(vib)   ...       0.00
freq.    3179.61  E(vib)   ...       0.00
freq.    3187.94  E(vib)   ...       0.00

------------
INNER ENERGY
------------

The inner energy is: U= E(el) + E(ZPE) + E(vib) + E(rot) + E(trans)
    E(el)   - is the total energy from the electronic structure calculation
              = E(kin-el) + E(nuc-el) + E(el-el) + E(nuc-nuc)
    E(ZPE)  - the the zero temperature vibrational energy from the frequency calculation
    E(vib)  - the the finite temperature correction to E(ZPE) due to population
              of excited vibrational states
    E(rot)  - is the rotational thermal energy
    E(trans)- is the translational thermal energy

Summary of contributions to the inner energy U:
Electronic energy                ...   -401.85482567 Eh
Zero point energy                ...      0.13472175 Eh      84.54 kcal/mol
Thermal vibrational correction   ...      0.00387536 Eh       2.43 kcal/mol
Thermal rotational correction    ...      0.00141627 Eh       0.89 kcal/mol
Thermal translational correction ...      0.00141627 Eh       0.89 kcal/mol
-----------------------------------------------------------------------
Total thermal energy                   -401.71339602 Eh

Summary of corrections to the electronic energy:
(perhaps to be used in another calculation)
Total thermal correction                  0.00670790 Eh       4.21 kcal/mol
Non-thermal (ZPE) correction              0.13472175 Eh      84.54 kcal/mol
-----------------------------------------------------------------------
Total correction                          0.14142965 Eh      88.75 kcal/mol

--------
ENTHALPY
--------

The enthalpy is H = U + kB*T
                kB is Boltzmann's constant
Total thermal energy              ...   -401.71339602 Eh
Thermal Enthalpy correction       ...      0.00094421 Eh       0.59 kcal/mol
-----------------------------------------------------------------------
Total Enthalpy                    ...   -401.71245181 Eh

Note: Rotational entropy computed according to Herzberg
Infrared and Raman Spectra, Chapter V,1, Van Nostrand Reinhold, 1945
Point Group:  Cs, Symmetry Number:   1
Rotational constants in cm-1:     0.105300     0.042545     0.030302

Vibrational entropy computed according to the QRRHO of S. Grimme
Chem.Eur.J. 2012 18 9955 using a reference frequency of 100.0 cm-1

-------
ENTROPY
-------

The entropy contributions are T*S = T*(S(el)+S(vib)+S(rot)+S(trans))
     S(el)   - electronic entropy
     S(vib)  - vibrational entropy
     S(rot)  - rotational entropy
     S(trans)- translational entropy
The entropies will be listed as multiplied by the temperature to get
units of energy

Electronic entropy                ...      0.00000000 Eh      0.00 kcal/mol
Vibrational entropy               ...      0.00587156 Eh      3.68 kcal/mol
Rotational entropy                ...      0.01371462 Eh      8.61 kcal/mol
Translational entropy             ...      0.01923366 Eh     12.07 kcal/mol
-----------------------------------------------------------------------
Final entropy term                ...      0.03881984 Eh     24.36 kcal/mol

In case the symmetry of your molecule has not been determined correctly
or in case you have a reason to use a different symmetry number we print
out the resulting rotational entropy values for sn=1,12:

 non-linear molecules -----------------------------------
|  sn= 1 | S(rot)=       0.01371462 Eh      8.61 kcal/mol|
|  sn= 2 | S(rot)=       0.01306016 Eh      8.20 kcal/mol|
|  sn= 3 | S(rot)=       0.01267733 Eh      7.96 kcal/mol|
|  sn= 4 | S(rot)=       0.01240571 Eh      7.78 kcal/mol|
|  sn= 5 | S(rot)=       0.01219502 Eh      7.65 kcal/mol|
|  sn= 6 | S(rot)=       0.01202287 Eh      7.54 kcal/mol|
|  sn= 7 | S(rot)=       0.01187733 Eh      7.45 kcal/mol|
|  sn= 8 | S(rot)=       0.01175125 Eh      7.37 kcal/mol|
|  sn= 9 | S(rot)=       0.01164004 Eh      7.30 kcal/mol|
|  sn=10 | S(rot)=       0.01154056 Eh      7.24 kcal/mol|
|  sn=11 | S(rot)=       0.01145057 Eh      7.19 kcal/mol|
|  sn=12 | S(rot)=       0.01136842 Eh      7.13 kcal/mol|
 linear molecules ---------------------------------------
|  Dinfh | S(rot)=       0.00862717 Eh      5.41 kcal/mol|
|  Cinfv | S(rot)=       0.00928163 Eh      5.82 kcal/mol|
 --------------------------------------------------------

-------------------
GIBBS FREE ENERGY

                             ****ORCA TERMINATED NORMALLY****
TOTAL RUN TIME: 0 days 0 hours 16 minutes 57 seconds 509 msec
