                         Program Version 6.0.1  -  RELEASE   -
|  1> ! pbe def2-sv(p) def2/J RI DEFGRID1 loosescf d4 GCP(DFT/SV(P)) printgap
|  2> %output
|  3>     printlevel normal
|  4> end
|  5> * xyz 0 1
|  6> C 0.0152407282 1.4193741702 2.3544e-06
|  7> C 0.7980806049 0.3221329532 1.02794e-05
|  8> C 0.2102738635 -1.0207396721 -3.80388e-05
|  9> O 0.8078592567 -2.065540821 5.24082e-05
| 10> N -1.181882321 -0.9876336072 -8.38641e-05
| 11> C -2.0154202264 0.1063910726 5.997e-06
| 12> O -3.2164659667 0.0318387182 6.32093e-05
| 13> N -1.344616978 1.3140059526 3.61243e-05
| 14> Cl 2.5103659666 0.4327462376 2.9524e-06
| 15> H 0.4282950572 2.4162299767 -7.15834e-05
| 16> H -1.6444492611 -1.8911806303 -0.0003815412
| 17> H -1.9220680924 2.1433309492 -0.0005913196
| 18> *
| 19>
| 20>                          ****END OF INPUT****

CARTESIAN COORDINATES (ANGSTROEM)
---------------------------------
  C      0.015241    1.419374    0.000002
  C      0.798081    0.322133    0.000010
  C      0.210274   -1.020740   -0.000038
  O      0.807859   -2.065541    0.000052
  N     -1.181882   -0.987634   -0.000084
  C     -2.015420    0.106391    0.000006
  O     -3.216466    0.031839    0.000063
  N     -1.344617    1.314006    0.000036
  Cl     2.510366    0.432746    0.000003
  H      0.428295    2.416230   -0.000072
  H     -1.644449   -1.891181   -0.000382
  H     -1.922068    2.143331   -0.000591

 Total Charge           Charge          ....    0
 Multiplicity           Mult            ....    1
 Number of Electrons    NEL             ....   74
 Basis Dimension        Dim             ....  136

ORBITAL ENERGIES
----------------

  NO   OCC          E(Eh)            E(eV)
   0   2.0000    -100.654584     -2738.9505
   1   2.0000     -18.742501      -510.0094
   2   2.0000     -18.741525      -509.9828
   3   2.0000     -14.074054      -382.9745
   4   2.0000     -14.056754      -382.5037
   5   2.0000     -10.041060      -273.2311
   6   2.0000     -10.013151      -272.4717
   7   2.0000      -9.975802      -271.4554
   8   2.0000      -9.963446      -271.1192
   9   2.0000      -9.190090      -250.0751
  10   2.0000      -7.021951      -191.0770
  11   2.0000      -7.009820      -190.7469
  12   2.0000      -7.009280      -190.7322
  13   2.0000      -0.995034       -27.0763
  14   2.0000      -0.961181       -26.1551
  15   2.0000      -0.904815       -24.6213
  16   2.0000      -0.855755       -23.2863
  17   2.0000      -0.812831       -22.1183
  18   2.0000      -0.704284       -19.1645
  19   2.0000      -0.639713       -17.4075
  20   2.0000      -0.617394       -16.8001
  21   2.0000      -0.539434       -14.6787
  22   2.0000      -0.530411       -14.4332
  23   2.0000      -0.486506       -13.2385
  24   2.0000      -0.449439       -12.2299
  25   2.0000      -0.434212       -11.8155
  26   2.0000      -0.408590       -11.1183
  27   2.0000      -0.383933       -10.4474
  28   2.0000      -0.381281       -10.3752
  29   2.0000      -0.375982       -10.2310
  30   2.0000      -0.354049        -9.6342
  31   2.0000      -0.302710        -8.2372
  32   2.0000      -0.281233        -7.6527
  33   2.0000      -0.259664        -7.0658
  34   2.0000      -0.254366        -6.9217
  35   2.0000      -0.227482        -6.1901
  36   2.0000      -0.215628        -5.8675
  37   0.0000      -0.080477        -2.1899
  38   0.0000      -0.027897        -0.7591
  39   0.0000      -0.013293        -0.3617
  40   0.0000       0.032779         0.8920
  41   0.0000       0.048277         1.3137

MULLIKEN ATOMIC CHARGES
-----------------------
   0 C :    0.044079
   1 C :   -0.142324
   2 C :    0.176064
   3 O :   -0.134412
   4 N :   -0.261086
   5 C :    0.142259
   6 O :   -0.170049
   7 N :   -0.215956
   8 Cl:   -0.037322
   9 H :    0.088760
  10 H :    0.253435
  11 H :    0.256552
Sum of atomic charges:   -0.0000000

LOEWDIN ATOMIC CHARGES
----------------------
   0 C :   -0.078785
   1 C :   -0.228867
   2 C :    0.008777
   3 O :   -0.148683
   4 N :   -0.122486
   5 C :    0.025059
   6 O :   -0.178627
   7 N :   -0.101241
   8 Cl:    0.167966
   9 H :    0.140307
  10 H :    0.258177
  11 H :    0.258404

  Mayer bond orders larger than 0.100000
B(  0-C ,  1-C ) :   1.6701 B(  0-C ,  7-N ) :   1.1748 B(  0-C ,  9-H ) :   0.9268
B(  1-C ,  2-C ) :   0.9797 B(  1-C ,  8-Cl) :   1.0485 B(  2-C ,  3-O ) :   2.2139
B(  2-C ,  4-N ) :   1.0521 B(  4-N ,  5-C ) :   1.1000 B(  4-N , 10-H ) :   0.8284
B(  5-C ,  6-O ) :   2.1507 B(  5-C ,  7-N ) :   1.0685 B(  7-N , 11-H ) :   0.8441

Dispersion correction           -0.014137024
FINAL SINGLE POINT ENERGY      -873.281776380868

DIPOLE MOMENT
-------------

Method             : SCF
Type of density    : Electron Density
Multiplicity       :   1
Irrep              :   0
Energy             :  -873.3210059007797099 Eh
Relativity type    :
Basis              : AO
                                X                 Y                 Z
Electronic contribution:      6.130036902      -0.441389842       0.000360071
Nuclear contribution   :     -6.363171083       1.894284269      -0.000982387
                        -----------------------------------------
Total Dipole Moment    :     -0.233134181       1.452894427      -0.000622316
                        -----------------------------------------
Magnitude (a.u.)       :      1.471480258
Magnitude (Debye)      :      3.740205576

Rotational constants in cm-1:             0.102182             0.033192             0.025054
Rotational constants in MHz :          3063.334381           995.074909           751.094079

                             ****ORCA TERMINATED NORMALLY****
TOTAL RUN TIME: 0 days 0 hours 0 minutes 26 seconds 318 msec
