                         Program Version 6.0.1  -  RELEASE   -
|  1> ! pbe def2-sv(p) def2/J RI DEFGRID1 loosescf d4 GCP(DFT/SV(P)) printgap
|  2> %output
|  3>     printlevel normal
|  4> end
|  5> * xyz 0 1
|  6> C -2.0634319817 -1.0767422111 -0.2376022845
|  7> C -1.1103622896 -0.4450872425 0.8063197017
|  8> H -1.6338118825 -0.4951498306 1.7722539134
|  9> C -0.7872080022 1.0336827281 0.5214499536
| 10> H -1.6841846969 1.4937098332 0.0730509075
| 11> C 0.4134013728 1.2690820641 -0.4224678128
| 12> H 0.7446755745 2.3040646928 -0.2247207673
| 13> C 1.579882528 0.341473485 -0.0478630579
| 14> H 2.3053922776 0.3538429496 -0.8663861058
| 15> C 1.0998402006 -1.1127211237 0.1274288937
| 16> H 1.917443248 -1.6806808818 0.5966245444
| 17> O 0.0485697669 -1.2300386505 1.048700851
| 18> O 0.7704428985 -1.6446117233 -1.1237499482
| 19> O 2.2357307823 0.7785461713 1.1060027037
| 20> O 0.1414715987 1.1017353154 -1.783153151
| 21> O -0.4396811326 1.7063227169 1.7171131421
| 22> O -1.8482532831 -0.6959076679 -1.5613842234
| 23> H -3.0863054435 -0.7686709186 -0.0014686866
| 24> H -1.9985846384 -2.1690228694 -0.1169042885
| 25> H 0.589477763 -2.5880121253 -1.0285241946
| 26> H 1.5633779256 0.9976502018 1.7682606215
| 27> H -0.7368029451 1.4426830302 -1.9917343684
| 28> H -1.1436746361 1.6016058154 2.3672158421
| 29> H -0.9126652066 -0.8621835307 -1.7843501395
| 30> *
| 31>
| 32>                          ****END OF INPUT****

CARTESIAN COORDINATES (ANGSTROEM)
---------------------------------
  C     -2.063432   -1.076742   -0.237602
  C     -1.110362   -0.445087    0.806320
  H     -1.633812   -0.495150    1.772254
  C     -0.787208    1.033683    0.521450
  H     -1.684185    1.493710    0.073051
  C      0.413401    1.269082   -0.422468
  H      0.744676    2.304065   -0.224721
  C      1.579883    0.341473   -0.047863
  H      2.305392    0.353843   -0.866386
  C      1.099840   -1.112721    0.127429
  H      1.917443   -1.680681    0.596625
  O      0.048570   -1.230039    1.048701
  O      0.770443   -1.644612   -1.123750
  O      2.235731    0.778546    1.106003
  O      0.141472    1.101735   -1.783153
  O     -0.439681    1.706323    1.717113
  O     -1.848253   -0.695908   -1.561384
  H     -3.086305   -0.768671   -0.001469
  H     -1.998585   -2.169023   -0.116904
  H      0.589478   -2.588012   -1.028524
  H      1.563378    0.997650    1.768261
  H     -0.736803    1.442683   -1.991734
  H     -1.143675    1.601606    2.367216
  H     -0.912665   -0.862184   -1.784350

 Total Charge           Charge          ....    0
 Multiplicity           Mult            ....    1
 Number of Electrons    NEL             ....   96
 Basis Dimension        Dim             ....  192

ORBITAL ENERGIES
----------------

  NO   OCC          E(Eh)            E(eV)
   0   2.0000     -18.779413      -511.0138
   1   2.0000     -18.776978      -510.9475
   2   2.0000     -18.771756      -510.8054
   3   2.0000     -18.755303      -510.3577
   4   2.0000     -18.740496      -509.9548
   5   2.0000     -18.737606      -509.8762
   6   2.0000      -9.986659      -271.7508
   7   2.0000      -9.959930      -271.0235
   8   2.0000      -9.953662      -270.8529
   9   2.0000      -9.946457      -270.6569
  10   2.0000      -9.937768      -270.4204
  11   2.0000      -9.935646      -270.3627
  12   2.0000      -0.991130       -26.9700
  13   2.0000      -0.955936       -26.0123
  14   2.0000      -0.936274       -25.4773
  15   2.0000      -0.924172       -25.1480
  16   2.0000      -0.921301       -25.0699
  17   2.0000      -0.913515       -24.8580
  18   2.0000      -0.707081       -19.2407
  19   2.0000      -0.690673       -18.7942
  20   2.0000      -0.627291       -17.0695
  21   2.0000      -0.594613       -16.1802
  22   2.0000      -0.577274       -15.7084
  23   2.0000      -0.526485       -14.3264
  24   2.0000      -0.508767       -13.8442
  25   2.0000      -0.479830       -13.0568
  26   2.0000      -0.473070       -12.8729
  27   2.0000      -0.465855       -12.6766
  28   2.0000      -0.452397       -12.3103
  29   2.0000      -0.436135       -11.8678
  30   2.0000      -0.419316       -11.4102
  31   2.0000      -0.401204       -10.9173
  32   2.0000      -0.391658       -10.6576
  33   2.0000      -0.381377       -10.3778
  34   2.0000      -0.364897        -9.9293
  35   2.0000      -0.355373        -9.6702
  36   2.0000      -0.345532        -9.4024
  37   2.0000      -0.324699        -8.8355
  38   2.0000      -0.309158        -8.4126
  39   2.0000      -0.290506        -7.9051
  40   2.0000      -0.285447        -7.7674
  41   2.0000      -0.272083        -7.4038
  42   2.0000      -0.259559        -7.0630
  43   2.0000      -0.246127        -6.6974
  44   2.0000      -0.240924        -6.5559
  45   2.0000      -0.226182        -6.1547
  46   2.0000      -0.210957        -5.7404
  47   2.0000      -0.203606        -5.5404
  48   0.0000       0.002818         0.0767
  49   0.0000       0.011982         0.3260
  50   0.0000       0.031863         0.8670
  51   0.0000       0.054332         1.4784
  52   0.0000       0.067576         1.8388

MULLIKEN ATOMIC CHARGES
-----------------------
   0 C :    0.030326
   1 C :    0.033534
   2 H :    0.055792
   3 C :    0.010692
   4 H :    0.071945
   5 C :    0.036973
   6 H :    0.083976
   7 C :    0.077195
   8 H :    0.089599
   9 C :    0.155940
  10 H :    0.075384
  11 O :   -0.307295
  12 O :   -0.394888
  13 O :   -0.421768
  14 O :   -0.398419
  15 O :   -0.420759
  16 O :   -0.456001
  17 H :    0.077799
  18 H :    0.067658
  19 H :    0.310470
  20 H :    0.299747
  21 H :    0.302306
  22 H :    0.306522
  23 H :    0.313270
Sum of atomic charges:    0.0000000

LOEWDIN ATOMIC CHARGES
----------------------
   0 C :   -0.140801
   1 C :   -0.082336
   2 H :    0.113494
   3 C :   -0.074864
   4 H :    0.106107
   5 C :   -0.071915
   6 H :    0.108891
   7 C :   -0.071311
   8 H :    0.126871
   9 C :   -0.011545
  10 H :    0.105130
  11 O :   -0.145150
  12 O :   -0.297452
  13 O :   -0.310669
  14 O :   -0.299398
  15 O :   -0.309472
  16 O :   -0.344836
  17 H :    0.112173
  18 H :    0.093858
  19 H :    0.290107
  20 H :    0.272662
  21 H :    0.280386
  22 H :    0.287838
  23 H :    0.262232

  Mayer bond orders larger than 0.100000
B(  0-C ,  1-C ) :   1.0275 B(  0-C , 16-O ) :   1.1234 B(  0-C , 17-H ) :   0.9147
B(  0-C , 18-H ) :   0.9108 B(  1-C ,  2-H ) :   0.8872 B(  1-C ,  3-C ) :   0.9761
B(  1-C , 11-O ) :   1.0117 B(  3-C ,  4-H ) :   0.8935 B(  3-C ,  5-C ) :   0.9827
B(  3-C , 15-O ) :   1.0041 B(  5-C ,  6-H ) :   0.9003 B(  5-C ,  7-C ) :   0.9925
B(  5-C , 14-O ) :   1.0976 B(  7-C ,  8-H ) :   0.8859 B(  7-C ,  9-C ) :   0.9903
B(  7-C , 13-O ) :   1.0716 B(  9-C , 10-H ) :   0.9026 B(  9-C , 11-O ) :   1.0558
B(  9-C , 12-O ) :   1.0759 B( 12-O , 19-H ) :   0.8319 B( 13-O , 20-H ) :   0.8176
B( 14-O , 21-H ) :   0.8239 B( 15-O , 22-H ) :   0.8417 B( 16-O , 23-H ) :   0.7722

Dispersion correction           -0.026755576
FINAL SINGLE POINT ENERGY      -685.697523331715

DIPOLE MOMENT
-------------

Method             : SCF
Type of density    : Electron Density
Multiplicity       :   1
Irrep              :   0
Energy             :  -685.8322345107742422 Eh
Relativity type    :
Basis              : AO
                                X                 Y                 Z
Electronic contribution:      2.778890437       0.070140988       0.144950988
Nuclear contribution   :     -3.810209204      -0.347038744       0.519651029
                        -----------------------------------------
Total Dipole Moment    :     -1.031318766      -0.276897756       0.664602017
                        -----------------------------------------
Magnitude (a.u.)       :      1.257770490
Magnitude (Debye)      :      3.196998516

Rotational constants in cm-1:             0.040298             0.031330             0.028224
Rotational constants in MHz :          1208.097124           939.257160           846.134076

                             ****ORCA TERMINATED NORMALLY****
TOTAL RUN TIME: 0 days 0 hours 0 minutes 21 seconds 84 msec
