                         Program Version 6.0.1  -  RELEASE   -
|  1> ! pbe def2-sv(p) def2/J RI DEFGRID1 loosescf d4 GCP(DFT/SV(P)) printgap
|  2> %output
|  3>     printlevel normal
|  4> end
|  5> * xyz 0 1
|  6> C 2.8889454339 2.2093565412 1.2122882314
|  7> C 2.1820052948 1.7191654963 -0.0506401657
|  8> C 2.8750295617 0.4635646152 -0.6395027918
|  9> C 1.8657448367 -0.6171169072 -0.3957654512
| 10> C 1.9079089535 -1.9704611068 -0.644880773
| 11> C 0.8011124409 -2.7422108754 -0.3142368827
| 12> C -0.3186404814 -2.16258225 0.2544644029
| 13> C -0.3722108822 -0.7929534183 0.5071709445
| 14> C 0.7364881395 -0.0229741653 0.1691519484
| 15> O 0.8474037851 1.3094895277 0.3267346181
| 16> O -1.4575908713 -0.2171125251 1.1430575118
| 17> C -2.6805073005 -0.1585137224 0.5562934008
| 18> O -3.6406974384 0.1651472795 1.2014923816
| 19> N -2.7168049293 -0.4775514052 -0.7607105537
| 20> C -3.9386999975 -0.4170776372 -1.5230965889
| 21> C 2.0511945846 2.84326914 -1.0747530386
| 22> H 2.9549878406 1.4014791578 1.9377641657
| 23> H 3.8898367332 2.5586192752 0.9727058505
| 24> H 2.3237211365 3.0243013655 1.6565707204
| 25> H 3.0789085825 0.5817018744 -1.7060512304
| 26> H 3.8202124697 0.2571107203 -0.1362000459
| 27> H 2.7839621662 -2.4215697752 -1.0844175919
| 28> H 0.8140282165 -3.8054706511 -0.4952684254
| 29> H -1.1725085625 -2.7665661035 0.5224452178
| 30> H -1.856283955 -0.66306757 -1.2521588241
| 31> H -3.8889193476 0.366503548 -2.2821028101
| 32> H -4.7451827871 -0.1921449077 -0.8277002168
| 33> H -4.1316211123 -1.3757097919 -2.0079062256
| 34> H 3.035714887 3.1946936685 -1.3715379789
| 35> H 1.4933350361 3.6699987418 -0.643314472
| 36> H 1.5180985867 2.490023836 -1.9547649918
| 37> *
| 38>
| 39>                          ****END OF INPUT****

CARTESIAN COORDINATES (ANGSTROEM)
---------------------------------
  C      2.888945    2.209357    1.212288
  C      2.182005    1.719165   -0.050640
  C      2.875030    0.463565   -0.639503
  C      1.865745   -0.617117   -0.395765
  C      1.907909   -1.970461   -0.644881
  C      0.801112   -2.742211   -0.314237
  C     -0.318640   -2.162582    0.254464
  C     -0.372211   -0.792953    0.507171
  C      0.736488   -0.022974    0.169152
  O      0.847404    1.309490    0.326735
  O     -1.457591   -0.217113    1.143058
  C     -2.680507   -0.158514    0.556293
  O     -3.640697    0.165147    1.201492
  N     -2.716805   -0.477551   -0.760711
  C     -3.938700   -0.417078   -1.523097
  C      2.051195    2.843269   -1.074753
  H      2.954988    1.401479    1.937764
  H      3.889837    2.558619    0.972706
  H      2.323721    3.024301    1.656571
  H      3.078909    0.581702   -1.706051
  H      3.820212    0.257111   -0.136200
  H      2.783962   -2.421570   -1.084418
  H      0.814028   -3.805471   -0.495268
  H     -1.172509   -2.766566    0.522445
  H     -1.856284   -0.663068   -1.252159
  H     -3.888919    0.366504   -2.282103
  H     -4.745183   -0.192145   -0.827700
  H     -4.131621   -1.375710   -2.007906
  H      3.035715    3.194694   -1.371538
  H      1.493335    3.669999   -0.643314
  H      1.518099    2.490024   -1.954765

 Total Charge           Charge          ....    0
 Multiplicity           Mult            ....    1
 Number of Electrons    NEL             ....  118
 Basis Dimension        Dim             ....  254

ORBITAL ENERGIES
----------------

  NO   OCC          E(Eh)            E(eV)
   0   2.0000     -18.797532      -511.5069
   1   2.0000     -18.791473      -511.3420
   2   2.0000     -18.704994      -508.9888
   3   2.0000     -14.017246      -381.4287
   4   2.0000     -10.018568      -272.6191
   5   2.0000      -9.970342      -271.3068
   6   2.0000      -9.957359      -270.9535
   7   2.0000      -9.954311      -270.8706
   8   2.0000      -9.916492      -269.8415
   9   2.0000      -9.907988      -269.6101
  10   2.0000      -9.907934      -269.6086
  11   2.0000      -9.902398      -269.4580
  12   2.0000      -9.902121      -269.4504
  13   2.0000      -9.898659      -269.3562
  14   2.0000      -9.889721      -269.1130
  15   2.0000      -9.887492      -269.0523
  16   2.0000      -1.007318       -27.4105
  17   2.0000      -0.986560       -26.8457
  18   2.0000      -0.913903       -24.8686
  19   2.0000      -0.834867       -22.7179
  20   2.0000      -0.784363       -21.3436
  21   2.0000      -0.745062       -20.2742
  22   2.0000      -0.702004       -19.1025
  23   2.0000      -0.678032       -18.4502
  24   2.0000      -0.638634       -17.3781
  25   2.0000      -0.633375       -17.2350
  26   2.0000      -0.625952       -17.0330
  27   2.0000      -0.580445       -15.7947
  28   2.0000      -0.561878       -15.2895
  29   2.0000      -0.530138       -14.4258
  30   2.0000      -0.523686       -14.2502
  31   2.0000      -0.511334       -13.9141
  32   2.0000      -0.466269       -12.6878
  33   2.0000      -0.446697       -12.1552
  34   2.0000      -0.439173       -11.9505
  35   2.0000      -0.435619       -11.8538
  36   2.0000      -0.430020       -11.7014
  37   2.0000      -0.413856       -11.2616
  38   2.0000      -0.399833       -10.8800
  39   2.0000      -0.381885       -10.3916
  40   2.0000      -0.378484       -10.2991
  41   2.0000      -0.371021       -10.0960
  42   2.0000      -0.368034       -10.0147
  43   2.0000      -0.362509        -9.8644
  44   2.0000      -0.361548        -9.8382
  45   2.0000      -0.348863        -9.4931
  46   2.0000      -0.345208        -9.3936
  47   2.0000      -0.340196        -9.2572
  48   2.0000      -0.330549        -8.9947
  49   2.0000      -0.328293        -8.9333
  50   2.0000      -0.320707        -8.7269
  51   2.0000      -0.310879        -8.4595
  52   2.0000      -0.293698        -7.9919
  53   2.0000      -0.286665        -7.8006
  54   2.0000      -0.259876        -7.0716
  55   2.0000      -0.225988        -6.1494
  56   2.0000      -0.217114        -5.9080
  57   2.0000      -0.209772        -5.7082
  58   2.0000      -0.193341        -5.2611
  59   0.0000      -0.046080        -1.2539
  60   0.0000      -0.027904        -0.7593
  61   0.0000       0.021968         0.5978
  62   0.0000       0.031100         0.8463
  63   0.0000       0.041174         1.1204

MULLIKEN ATOMIC CHARGES
-----------------------
   0 C :   -0.194149
   1 C :   -0.091811
   2 C :   -0.005202
   3 C :   -0.048588
   4 C :   -0.149400
   5 C :   -0.046772
   6 C :   -0.140117
   7 C :    0.035639
   8 C :    0.203426
   9 O :   -0.235575
  10 O :   -0.201440
  11 C :    0.201270
  12 O :   -0.195091
  13 N :   -0.335493
  14 C :   -0.179625
  15 C :   -0.201484
  16 H :    0.109146
  17 H :    0.103372
  18 H :    0.114184
  19 H :    0.092740
  20 H :    0.095030
  21 H :    0.035090
  22 H :    0.053451
  23 H :    0.051061
  24 H :    0.246243
  25 H :    0.112075
  26 H :    0.139460
  27 H :    0.110292
  28 H :    0.105694
  29 H :    0.113621
  30 H :    0.102954
Sum of atomic charges:    0.0000000

LOEWDIN ATOMIC CHARGES
----------------------
   0 C :   -0.326871
   1 C :    0.015592
   2 C :   -0.199480
   3 C :   -0.067713
   4 C :   -0.126883
   5 C :   -0.140699
   6 C :   -0.140658
   7 C :   -0.015436
   8 C :    0.019206
   9 O :   -0.060847
  10 O :   -0.037193
  11 C :    0.028783
  12 O :   -0.181640
  13 N :   -0.194876
  14 C :   -0.258589
  15 C :   -0.326686
  16 H :    0.126358
  17 H :    0.124658
  18 H :    0.128265
  19 H :    0.131493
  20 H :    0.133822
  21 H :    0.125443
  22 H :    0.125783
  23 H :    0.135050
  24 H :    0.237037
  25 H :    0.115398
  26 H :    0.138303
  27 H :    0.115508
  28 H :    0.126229
  29 H :    0.128157
  30 H :    0.122486

  Mayer bond orders larger than 0.100000
B(  0-C ,  1-C ) :   1.0996 B(  0-C , 16-H ) :   0.9372 B(  0-C , 17-H ) :   0.9396
B(  0-C , 18-H ) :   0.9394 B(  1-C ,  2-C ) :   1.0551 B(  1-C ,  9-O ) :   0.9371
B(  1-C , 15-C ) :   1.1031 B(  2-C ,  3-C ) :   1.0660 B(  2-C , 19-H ) :   0.8786
B(  2-C , 20-H ) :   0.8804 B(  3-C ,  4-C ) :   1.3879 B(  3-C ,  6-C ) :   0.1023
B(  3-C ,  8-C ) :   1.3281 B(  4-C ,  5-C ) :   1.2983 B(  4-C , 21-H ) :   0.9853
B(  5-C ,  6-C ) :   1.3346 B(  5-C , 22-H ) :   0.9646 B(  6-C ,  7-C ) :   1.3682
B(  6-C , 23-H ) :   0.9719 B(  7-C ,  8-C ) :   1.3324 B(  7-C , 10-O ) :   1.0601
B(  8-C ,  9-O ) :   1.1734 B( 10-O , 11-C ) :   1.0545 B( 11-C , 12-O ) :   2.0979
B( 11-C , 13-N ) :   1.1821 B( 13-N , 14-C ) :   1.0297 B( 13-N , 24-H ) :   0.8390
B( 14-C , 25-H ) :   0.9591 B( 14-C , 26-H ) :   0.9347 B( 14-C , 27-H ) :   0.9579
B( 15-C , 28-H ) :   0.9410 B( 15-C , 29-H ) :   0.9407 B( 15-C , 30-H ) :   0.9380

Dispersion correction           -0.036272536
FINAL SINGLE POINT ENERGY      -745.170237027948

DIPOLE MOMENT
-------------

Method             : SCF
Type of density    : Electron Density
Multiplicity       :   1
Irrep              :   0
Energy             :  -745.2717501523657120 Eh
Relativity type    :
Basis              : AO
                                X                 Y                 Z
Electronic contribution:     -7.619744887      -6.162345347       6.479826429
Nuclear contribution   :      9.227157749       5.945153415      -8.100351071
                        -----------------------------------------
Total Dipole Moment    :      1.607412862      -0.217191932      -1.620524642
                        -----------------------------------------
Magnitude (a.u.)       :      2.292825453
Magnitude (Debye)      :      5.827899151

Rotational constants in cm-1:             0.027970             0.011935             0.009935
Rotational constants in MHz :           838.515416           357.797428           297.856902

                             ****ORCA TERMINATED NORMALLY****
TOTAL RUN TIME: 0 days 0 hours 0 minutes 27 seconds 67 msec
