                         Program Version 6.0.1  -  RELEASE   -
|  1> ! pbe def2-sv(p) def2/J RI DEFGRID1 loosescf d4 GCP(DFT/SV(P)) printgap
|  2> %output
|  3>     printlevel normal
|  4> end
|  5> * xyz 0 1
|  6> C -1.8839892075 -0.5727686879 0.2465311586
|  7> C -0.9257566605 0.3938135923 -0.4443986297
|  8> C 0.5107983876 0.0670950055 -0.0710684407
|  9> O 0.9824626368 -1.0435570022 -0.1510234262
| 10> N 1.2417598638 1.1236158294 0.3610478511
| 11> H -1.5754028477 -1.5948496054 0.0435775076
| 12> H -1.8708805224 -0.417096811 1.3230567885
| 13> H -2.8996374944 -0.4299954249 -0.1143783872
| 14> H -1.1672811064 1.4261814801 -0.1879853477
| 15> H -1.0141309289 0.2754777064 -1.5268103202
| 16> H 0.8669679922 2.0517532632 0.4332614784
| 17> H 2.2043549783 0.9721761884 0.6140431455
| 18> *
| 19>
| 20>                          ****END OF INPUT****

CARTESIAN COORDINATES (ANGSTROEM)
---------------------------------
  C     -1.883989   -0.572769    0.246531
  C     -0.925757    0.393814   -0.444399
  C      0.510798    0.067095   -0.071068
  O      0.982463   -1.043557   -0.151023
  N      1.241760    1.123616    0.361048
  H     -1.575403   -1.594850    0.043578
  H     -1.870881   -0.417097    1.323057
  H     -2.899637   -0.429995   -0.114378
  H     -1.167281    1.426181   -0.187985
  H     -1.014131    0.275478   -1.526810
  H      0.866968    2.051753    0.433261
  H      2.204355    0.972176    0.614043

 Total Charge           Charge          ....    0
 Multiplicity           Mult            ....    1
 Number of Electrons    NEL             ....   40
 Basis Dimension        Dim             ....   84

ORBITAL ENERGIES
----------------

  NO   OCC          E(Eh)            E(eV)
   0   2.0000     -18.705813      -509.0110
   1   2.0000     -14.006987      -381.1495
   2   2.0000      -9.975818      -271.4558
   3   2.0000      -9.892463      -269.1876
   4   2.0000      -9.876126      -268.7431
   5   2.0000      -0.929110       -25.2824
   6   2.0000      -0.814243       -22.1567
   7   2.0000      -0.695677       -18.9303
   8   2.0000      -0.582468       -15.8498
   9   2.0000      -0.519562       -14.1380
  10   2.0000      -0.484548       -13.1852
  11   2.0000      -0.426082       -11.5943
  12   2.0000      -0.406029       -11.0486
  13   2.0000      -0.359300        -9.7770
  14   2.0000      -0.350198        -9.5294
  15   2.0000      -0.319374        -8.6906
  16   2.0000      -0.314877        -8.5683
  17   2.0000      -0.301688        -8.2093
  18   2.0000      -0.225494        -6.1360
  19   2.0000      -0.194952        -5.3049
  20   0.0000       0.003074         0.0837
  21   0.0000       0.023439         0.6378
  22   0.0000       0.064822         1.7639
  23   0.0000       0.077517         2.1093
  24   0.0000       0.094767         2.5787

MULLIKEN ATOMIC CHARGES
-----------------------
   0 C :   -0.288717
   1 C :   -0.196640
   2 C :    0.040801
   3 O :   -0.203426
   4 N :   -0.326692
   5 H :    0.127205
   6 H :    0.103356
   7 H :    0.104169
   8 H :    0.071654
   9 H :    0.114990
  10 H :    0.225319
  11 H :    0.227983
Sum of atomic charges:   -0.0000000

LOEWDIN ATOMIC CHARGES
----------------------
   0 C :   -0.334945
   1 C :   -0.258385
   2 C :    0.010286
   3 O :   -0.194401
   4 N :   -0.302264
   5 H :    0.129554
   6 H :    0.119661
   7 H :    0.119119
   8 H :    0.112209
   9 H :    0.139757
  10 H :    0.229157
  11 H :    0.230251

  Mayer bond orders larger than 0.100000
B(  0-C ,  1-C ) :   1.1464 B(  0-C ,  5-H ) :   0.9456 B(  0-C ,  6-H ) :   0.9585
B(  0-C ,  7-H ) :   0.9529 B(  1-C ,  2-C ) :   0.9881 B(  1-C ,  8-H ) :   0.9199
B(  1-C ,  9-H ) :   0.9014 B(  2-C ,  3-O ) :   2.1114 B(  2-C ,  4-N ) :   1.2628
B(  4-N , 10-H ) :   0.8720 B(  4-N , 11-H ) :   0.8706

Dispersion correction           -0.007432106
FINAL SINGLE POINT ENERGY      -247.973834039223

DIPOLE MOMENT
-------------

Method             : SCF
Type of density    : Electron Density
Multiplicity       :   1
Irrep              :   0
Energy             :  -248.0197631397963391 Eh
Relativity type    :
Basis              : AO
                                X                 Y                 Z
Electronic contribution:      4.926389143      -0.780912317      -0.339571975
Nuclear contribution   :     -5.097280954       2.133128876       0.548346764
                        -----------------------------------------
Total Dipole Moment    :     -0.170891811       1.352216560       0.208774789
                        -----------------------------------------
Magnitude (a.u.)       :      1.378869300
Magnitude (Debye)      :      3.504807230

Rotational constants in cm-1:             0.300896             0.129188             0.100684
Rotational constants in MHz :          9020.650071          3872.968139          3018.438134

                             ****ORCA TERMINATED NORMALLY****
TOTAL RUN TIME: 0 days 0 hours 0 minutes 20 seconds 145 msec
