                         Program Version 6.0.1  -  RELEASE   -
|  1> ! pbe def2-sv(p) def2/J RI DEFGRID1 loosescf d4 GCP(DFT/SV(P)) printgap
|  2> %output
|  3>     printlevel normal
|  4> end
|  5> * xyz 0 1
|  6> C -2.4702922078 -0.5322410004 -0.1599758725
|  7> C -1.0383398991 -0.1942293471 0.2657791001
|  8> H -0.9491810337 -0.3226587766 1.3563144806
|  9> C -0.6435547285 1.2528707082 -0.096672814
| 10> H -1.2293301392 1.5946574402 -0.9590929933
| 11> C 0.8606079972 1.3088786358 -0.4629367565
| 12> H 1.2109950928 2.3350794127 -0.2557793882
| 13> C 1.6186908235 0.312423112 0.4280729844
| 14> H 2.6891504314 0.3428360851 0.1909247682
| 15> C 1.133665241 -1.1212531585 0.0912365687
| 16> H 1.2185294119 -1.7358215806 1.0019775374
| 17> O -0.1933133165 -1.1260262903 -0.3807668997
| 18> O 1.9262825163 -1.7046109062 -0.8709882965
| 19> O 1.3892489606 0.5832122709 1.7938300795
| 20> O 1.1301129828 0.9578181433 -1.7972906149
| 21> O -0.9382303581 2.1471799517 0.9399241426
| 22> O -2.841752831 -1.8133934478 0.2605492908
| 23> H -2.5383319732 -0.446715104 -1.2543478532
| 24> H -3.165195748 0.171436125 0.3022204969
| 25> H 1.7938000689 -1.2043513738 -1.690382153
| 26> H 1.9632887949 1.3049945524 2.073552431
| 27> H 0.5887166173 1.4995696481 -2.38228571
| 28> H -0.5025303098 1.8228711502 1.7412214581
| 29> H -2.1521198848 -2.4212560222 -0.0359364596
| 30> *
| 31>
| 32>                          ****END OF INPUT****

CARTESIAN COORDINATES (ANGSTROEM)
---------------------------------
  C     -2.470292   -0.532241   -0.159976
  C     -1.038340   -0.194229    0.265779
  H     -0.949181   -0.322659    1.356314
  C     -0.643555    1.252871   -0.096673
  H     -1.229330    1.594657   -0.959093
  C      0.860608    1.308879   -0.462937
  H      1.210995    2.335079   -0.255779
  C      1.618691    0.312423    0.428073
  H      2.689150    0.342836    0.190925
  C      1.133665   -1.121253    0.091237
  H      1.218529   -1.735822    1.001978
  O     -0.193313   -1.126026   -0.380767
  O      1.926283   -1.704611   -0.870988
  O      1.389249    0.583212    1.793830
  O      1.130113    0.957818   -1.797291
  O     -0.938230    2.147180    0.939924
  O     -2.841753   -1.813393    0.260549
  H     -2.538332   -0.446715   -1.254348
  H     -3.165196    0.171436    0.302220
  H      1.793800   -1.204351   -1.690382
  H      1.963289    1.304995    2.073552
  H      0.588717    1.499570   -2.382286
  H     -0.502530    1.822871    1.741221
  H     -2.152120   -2.421256   -0.035936

 Total Charge           Charge          ....    0
 Multiplicity           Mult            ....    1
 Number of Electrons    NEL             ....   96
 Basis Dimension        Dim             ....  192

ORBITAL ENERGIES
----------------

  NO   OCC          E(Eh)            E(eV)
   0   2.0000     -18.785112      -511.1689
   1   2.0000     -18.776037      -510.9219
   2   2.0000     -18.770554      -510.7727
   3   2.0000     -18.753041      -510.2962
   4   2.0000     -18.751297      -510.2487
   5   2.0000     -18.737856      -509.8830
   6   2.0000      -9.987514      -271.7741
   7   2.0000      -9.954142      -270.8660
   8   2.0000      -9.952902      -270.8322
   9   2.0000      -9.948261      -270.7060
  10   2.0000      -9.941841      -270.5312
  11   2.0000      -9.929527      -270.1962
  12   2.0000      -0.988623       -26.9018
  13   2.0000      -0.958065       -26.0703
  14   2.0000      -0.949431       -25.8353
  15   2.0000      -0.934532       -25.4299
  16   2.0000      -0.923570       -25.1316
  17   2.0000      -0.907276       -24.6882
  18   2.0000      -0.704316       -19.1654
  19   2.0000      -0.691671       -18.8213
  20   2.0000      -0.620944       -16.8967
  21   2.0000      -0.592208       -16.1148
  22   2.0000      -0.570447       -15.5226
  23   2.0000      -0.528904       -14.3922
  24   2.0000      -0.509069       -13.8525
  25   2.0000      -0.503244       -13.6940
  26   2.0000      -0.474765       -12.9190
  27   2.0000      -0.471885       -12.8407
  28   2.0000      -0.455968       -12.4075
  29   2.0000      -0.432661       -11.7733
  30   2.0000      -0.420439       -11.4407
  31   2.0000      -0.399502       -10.8710
  32   2.0000      -0.383630       -10.4391
  33   2.0000      -0.372776       -10.1437
  34   2.0000      -0.367565       -10.0020
  35   2.0000      -0.357152        -9.7186
  36   2.0000      -0.340207        -9.2575
  37   2.0000      -0.332370        -9.0442
  38   2.0000      -0.307268        -8.3612
  39   2.0000      -0.301660        -8.2086
  40   2.0000      -0.281587        -7.6624
  41   2.0000      -0.277089        -7.5400
  42   2.0000      -0.259488        -7.0610
  43   2.0000      -0.255171        -6.9436
  44   2.0000      -0.246865        -6.7175
  45   2.0000      -0.220424        -5.9980
  46   2.0000      -0.214567        -5.8387
  47   2.0000      -0.200533        -5.4568
  48   0.0000      -0.004770        -0.1298
  49   0.0000       0.009460         0.2574
  50   0.0000       0.039445         1.0734
  51   0.0000       0.060373         1.6428
  52   0.0000       0.061338         1.6691

MULLIKEN ATOMIC CHARGES
-----------------------
   0 C :    0.083257
   1 C :   -0.010713
   2 H :    0.067629
   3 C :    0.060402
   4 H :    0.049767
   5 C :    0.061522
   6 H :    0.059339
   7 C :   -0.056608
   8 H :    0.090820
   9 C :    0.233055
  10 H :    0.071947
  11 O :   -0.310107
  12 O :   -0.391606
  13 O :   -0.410678
  14 O :   -0.417968
  15 O :   -0.423156
  16 O :   -0.432068
  17 H :    0.066577
  18 H :    0.093843
  19 H :    0.302282
  20 H :    0.311968
  21 H :    0.309134
  22 H :    0.291976
  23 H :    0.299385
Sum of atomic charges:   -0.0000000

LOEWDIN ATOMIC CHARGES
----------------------
   0 C :   -0.124725
   1 C :   -0.084241
   2 H :    0.107618
   3 C :   -0.073256
   4 H :    0.107956
   5 C :   -0.083917
   6 H :    0.097166
   7 C :   -0.091769
   8 H :    0.115856
   9 C :    0.010187
  10 H :    0.102222
  11 O :   -0.153824
  12 O :   -0.291046
  13 O :   -0.308907
  14 O :   -0.314502
  15 O :   -0.312937
  16 O :   -0.333379
  17 H :    0.096367
  18 H :    0.120010
  19 H :    0.278845
  20 H :    0.294315
  21 H :    0.290018
  22 H :    0.271075
  23 H :    0.280868

  Mayer bond orders larger than 0.100000
B(  0-C ,  1-C ) :   1.0538 B(  0-C , 16-O ) :   1.0814 B(  0-C , 17-H ) :   0.9017
B(  0-C , 18-H ) :   0.9191 B(  1-C ,  2-H ) :   0.8683 B(  1-C ,  3-C ) :   0.9734
B(  1-C , 11-O ) :   1.0142 B(  3-C ,  4-H ) :   0.8870 B(  3-C ,  5-C ) :   0.9576
B(  3-C , 15-O ) :   1.0382 B(  5-C ,  6-H ) :   0.8937 B(  5-C ,  7-C ) :   1.0091
B(  5-C , 14-O ) :   1.0366 B(  7-C ,  8-H ) :   0.9046 B(  7-C ,  9-C ) :   0.9512
B(  7-C , 13-O ) :   1.0435 B(  9-C , 10-H ) :   0.9028 B(  9-C , 11-O ) :   1.0168
B(  9-C , 12-O ) :   1.1492 B( 12-O , 19-H ) :   0.8283 B( 13-O , 20-H ) :   0.8406
B( 14-O , 21-H ) :   0.8415 B( 15-O , 22-H ) :   0.8287 B( 16-O , 23-H ) :   0.8419

Dispersion correction           -0.025003132
FINAL SINGLE POINT ENERGY      -685.694147920284

DIPOLE MOMENT
-------------

Method             : SCF
Type of density    : Electron Density
Multiplicity       :   1
Irrep              :   0
Energy             :  -685.8261032641023576 Eh
Relativity type    :
Basis              : AO
                                X                 Y                 Z
Electronic contribution:      1.834348828      -1.584586641      -0.283710643
Nuclear contribution   :     -0.998916541       2.744662045       0.082110702
                        -----------------------------------------
Total Dipole Moment    :      0.835432287       1.160075404      -0.201599942
                        -----------------------------------------
Magnitude (a.u.)       :      1.443732864
Magnitude (Debye)      :      3.669677307

Rotational constants in cm-1:             0.038138             0.027882             0.022205
Rotational constants in MHz :          1143.355214           835.866996           665.698248

                             ****ORCA TERMINATED NORMALLY****
TOTAL RUN TIME: 0 days 0 hours 0 minutes 8 seconds 158 msec
