                         Program Version 6.0.1  -  RELEASE   -
|  1> ! pbe def2-sv(p) def2/J RI DEFGRID1 loosescf d4 GCP(DFT/SV(P)) printgap
|  2> %output
|  3>     printlevel normal
|  4> end
|  5> * xyz 0 1
|  6> C -3.4056520451 -0.1254540403 0.1603500767
|  7> O -2.2172969701 0.0325209824 -0.6038792471
|  8> C -1.0450260941 0.0157106699 0.0496035286
|  9> O -0.9550397213 -0.117140904 1.2419269208
| 10> C 0.0932634572 0.1826792467 -0.9348566712
| 11> C 0.9422795498 -1.0965885035 -0.9954144363
| 12> C 1.7470240849 -1.3048162897 0.2829719592
| 13> C 2.6404193574 -0.0981593068 0.5495799802
| 14> C 1.7838053033 1.1554243215 0.6899238824
| 15> C 0.9714351524 1.3906381677 -0.5792897774
| 16> H -3.190012882 0.0318567367 1.2188924093
| 17> H -3.7958902515 -1.1334828514 0.0109533574
| 18> H -4.1263852761 0.608338455 -0.197034448
| 19> H -0.3677469137 0.3496036906 -1.9139231898
| 20> H 0.2944444842 -1.9571596271 -1.1778889518
| 21> H 1.6267142267 -1.0066586506 -1.8428980469
| 22> H 1.0651975764 -1.436655019 1.1237495779
| 23> H 2.3511049373 -2.209729415 0.1882663735
| 24> H 3.217385305 -0.2575292064 1.4621756084
| 25> H 3.3451244152 0.0275048768 -0.2770303657
| 26> H 1.1060354589 1.032459336 1.5348274753
| 27> H 2.4153849082 2.0254234499 0.8820945092
| 28> H 0.3437579553 2.2771937497 -0.4634615927
| 29> H 1.6518792446 1.5688096833 -1.4161242543
| 30> *
| 31>
| 32>                          ****END OF INPUT****

CARTESIAN COORDINATES (ANGSTROEM)
---------------------------------
  C     -3.405652   -0.125454    0.160350
  O     -2.217297    0.032521   -0.603879
  C     -1.045026    0.015711    0.049604
  O     -0.955040   -0.117141    1.241927
  C      0.093263    0.182679   -0.934857
  C      0.942280   -1.096589   -0.995414
  C      1.747024   -1.304816    0.282972
  C      2.640419   -0.098159    0.549580
  C      1.783805    1.155424    0.689924
  C      0.971435    1.390638   -0.579290
  H     -3.190013    0.031857    1.218892
  H     -3.795890   -1.133483    0.010953
  H     -4.126385    0.608338   -0.197034
  H     -0.367747    0.349604   -1.913923
  H      0.294444   -1.957160   -1.177889
  H      1.626714   -1.006659   -1.842898
  H      1.065198   -1.436655    1.123750
  H      2.351105   -2.209729    0.188266
  H      3.217385   -0.257529    1.462176
  H      3.345124    0.027505   -0.277030
  H      1.106035    1.032459    1.534827
  H      2.415385    2.025423    0.882095
  H      0.343758    2.277194   -0.463462
  H      1.651879    1.568810   -1.416124

 Total Charge           Charge          ....    0
 Multiplicity           Mult            ....    1
 Number of Electrons    NEL             ....   78
 Basis Dimension        Dim             ....  168

ORBITAL ENERGIES
----------------

  NO   OCC          E(Eh)            E(eV)
   0   2.0000     -18.797145      -511.4963
   1   2.0000     -18.740567      -509.9568
   2   2.0000     -10.006211      -272.2828
   3   2.0000      -9.937220      -270.4055
   4   2.0000      -9.902638      -269.4645
   5   2.0000      -9.889345      -269.1028
   6   2.0000      -9.888103      -269.0690
   7   2.0000      -9.876168      -268.7442
   8   2.0000      -9.874779      -268.7064
   9   2.0000      -9.873307      -268.6664
  10   2.0000      -1.005746       -27.3677
  11   2.0000      -0.918448       -24.9922
  12   2.0000      -0.758657       -20.6441
  13   2.0000      -0.690476       -18.7888
  14   2.0000      -0.665382       -18.1060
  15   2.0000      -0.649128       -17.6637
  16   2.0000      -0.556724       -15.1492
  17   2.0000      -0.540068       -14.6960
  18   2.0000      -0.510257       -13.8848
  19   2.0000      -0.494714       -13.4619
  20   2.0000      -0.437465       -11.9040
  21   2.0000      -0.435231       -11.8432
  22   2.0000      -0.430080       -11.7031
  23   2.0000      -0.412501       -11.2247
  24   2.0000      -0.397367       -10.8129
  25   2.0000      -0.388703       -10.5771
  26   2.0000      -0.376607       -10.2480
  27   2.0000      -0.354185        -9.6379
  28   2.0000      -0.333824        -9.0838
  29   2.0000      -0.333600        -9.0777
  30   2.0000      -0.327445        -8.9102
  31   2.0000      -0.325180        -8.8486
  32   2.0000      -0.298548        -8.1239
  33   2.0000      -0.296406        -8.0656
  34   2.0000      -0.284625        -7.7450
  35   2.0000      -0.259018        -7.0482
  36   2.0000      -0.258237        -7.0270
  37   2.0000      -0.256944        -6.9918
  38   2.0000      -0.218559        -5.9473
  39   0.0000      -0.020552        -0.5592
  40   0.0000       0.033240         0.9045
  41   0.0000       0.055690         1.5154
  42   0.0000       0.064897         1.7659
  43   0.0000       0.077355         2.1049

MULLIKEN ATOMIC CHARGES
-----------------------
   0 C :   -0.135667
   1 O :   -0.243296
   2 C :    0.137913
   3 O :   -0.187201
   4 C :   -0.148976
   5 C :   -0.132741
   6 C :   -0.154202
   7 C :   -0.160954
   8 C :   -0.152966
   9 C :   -0.129984
  10 H :    0.131193
  11 H :    0.119666
  12 H :    0.121178
  13 H :    0.077476
  14 H :    0.088846
  15 H :    0.081333
  16 H :    0.102655
  17 H :    0.081205
  18 H :    0.083888
  19 H :    0.067637
  20 H :    0.104494
  21 H :    0.080164
  22 H :    0.088319
  23 H :    0.080018
Sum of atomic charges:   -0.0000000

LOEWDIN ATOMIC CHARGES
----------------------
   0 C :   -0.215074
   1 O :   -0.075839
   2 C :    0.053522
   3 O :   -0.152422
   4 C :   -0.164995
   5 C :   -0.206176
   6 C :   -0.234270
   7 C :   -0.224207
   8 C :   -0.234934
   9 C :   -0.206908
  10 H :    0.122365
  11 H :    0.118418
  12 H :    0.119685
  13 H :    0.126873
  14 H :    0.117603
  15 H :    0.117681
  16 H :    0.124215
  17 H :    0.114782
  18 H :    0.116429
  19 H :    0.108689
  20 H :    0.124994
  21 H :    0.114275
  22 H :    0.117961
  23 H :    0.117335

  Mayer bond orders larger than 0.100000
B(  0-C ,  1-O ) :   0.9462 B(  0-C , 10-H ) :   0.9294 B(  0-C , 11-H ) :   0.9591
B(  0-C , 12-H ) :   0.9603 B(  1-O ,  2-C ) :   1.2107 B(  2-C ,  3-O ) :   2.0317
B(  2-C ,  4-C ) :   0.9414 B(  4-C ,  5-C ) :   1.0777 B(  4-C ,  9-C ) :   1.0764
B(  4-C , 13-H ) :   0.8776 B(  5-C ,  6-C ) :   1.1302 B(  5-C , 14-H ) :   0.9187
B(  5-C , 15-H ) :   0.9123 B(  6-C ,  7-C ) :   1.1337 B(  6-C , 16-H ) :   0.9019
B(  6-C , 17-H ) :   0.9166 B(  7-C ,  8-C ) :   1.1346 B(  7-C , 18-H ) :   0.9188
B(  7-C , 19-H ) :   0.9180 B(  8-C ,  9-C ) :   1.1286 B(  8-C , 20-H ) :   0.9011
B(  8-C , 21-H ) :   0.9164 B(  9-C , 22-H ) :   0.9201 B(  9-C , 23-H ) :   0.9127

Dispersion correction           -0.023557776
FINAL SINGLE POINT ENERGY      -462.705070448422

DIPOLE MOMENT
-------------

Method             : SCF
Type of density    : Electron Density
Multiplicity       :   1
Irrep              :   0
Energy             :  -462.7935534586079029 Eh
Relativity type    :
Basis              : AO
                                X                 Y                 Z
Electronic contribution:     -5.876880759       0.099027694       0.334751030
Nuclear contribution   :      5.522857927      -0.076331234      -0.804307733
                        -----------------------------------------
Total Dipole Moment    :     -0.354022832       0.022696460      -0.469556703
                        -----------------------------------------
Magnitude (a.u.)       :      0.588498761
Magnitude (Debye)      :      1.495844975

Rotational constants in cm-1:             0.089806             0.028314             0.027506
Rotational constants in MHz :          2692.306726           848.847324           824.599837

                             ****ORCA TERMINATED NORMALLY****
TOTAL RUN TIME: 0 days 0 hours 0 minutes 8 seconds 477 msec
