                         Program Version 6.0.1  -  RELEASE   -
|  1> ! pbe def2-sv(p) def2/J RI DEFGRID1 loosescf d4 GCP(DFT/SV(P)) printgap
|  2> %output
|  3>     printlevel normal
|  4> end
|  5> * xyz 0 1
|  6> C -2.3994571654 -0.8911106364 0.1146835984
|  7> C -1.1548608199 -0.1470610553 0.6776801589
|  8> H -1.4228547738 0.3419306324 1.6207409878
|  9> C -0.6486553417 0.9396338531 -0.275085655
| 10> H -0.6409108351 0.5641651542 -1.3127929495
| 11> C 0.7877639068 1.3290817323 0.11560475
| 12> H 0.8098189336 1.6382573069 1.1661179171
| 13> C 1.7245795162 0.1241945947 -0.0452375747
| 14> H 2.1556109777 0.129648082 -1.0604598121
| 15> C 0.9103955746 -1.1890178204 0.0752265058
| 16> H 1.5579776001 -1.9745069185 0.5075906411
| 17> O -0.1371518429 -1.0913675652 0.9963716027
| 18> O 0.4959912856 -1.5547270299 -1.204180948
| 19> O 2.7282070659 0.2265850206 0.9271464652
| 20> O 1.1864603186 2.4606164204 -0.6146011333
| 21> O -1.501152759 2.0513403587 -0.1849571519
| 22> O -2.0671954167 -2.171733946 -0.3719166446
| 23> H -2.8141514036 -0.3342404046 -0.7258606289
| 24> H -3.1644622682 -0.9741134717 0.8937361726
| 25> H -0.3925729513 -1.9629808759 -1.1430808686
| 26> H 3.3487999193 -0.5048655962 0.8325800295
| 27> H 1.3481850465 2.2057057172 -1.5316628667
| 28> H -0.9561835998 2.8369529382 -0.3439876877
| 29> H -1.7250010637 -2.6822246673 0.374964456
| 30> *
| 31>
| 32>                          ****END OF INPUT****

CARTESIAN COORDINATES (ANGSTROEM)
---------------------------------
  C     -2.399457   -0.891111    0.114684
  C     -1.154861   -0.147061    0.677680
  H     -1.422855    0.341931    1.620741
  C     -0.648655    0.939634   -0.275086
  H     -0.640911    0.564165   -1.312793
  C      0.787764    1.329082    0.115605
  H      0.809819    1.638257    1.166118
  C      1.724580    0.124195   -0.045238
  H      2.155611    0.129648   -1.060460
  C      0.910396   -1.189018    0.075227
  H      1.557978   -1.974507    0.507591
  O     -0.137152   -1.091368    0.996372
  O      0.495991   -1.554727   -1.204181
  O      2.728207    0.226585    0.927146
  O      1.186460    2.460616   -0.614601
  O     -1.501153    2.051340   -0.184957
  O     -2.067195   -2.171734   -0.371917
  H     -2.814151   -0.334240   -0.725861
  H     -3.164462   -0.974113    0.893736
  H     -0.392573   -1.962981   -1.143081
  H      3.348800   -0.504866    0.832580
  H      1.348185    2.205706   -1.531663
  H     -0.956184    2.836953   -0.343988
  H     -1.725001   -2.682225    0.374964

 Total Charge           Charge          ....    0
 Multiplicity           Mult            ....    1
 Number of Electrons    NEL             ....   96
 Basis Dimension        Dim             ....  192

ORBITAL ENERGIES
----------------

  NO   OCC          E(Eh)            E(eV)
   0   2.0000     -18.780353      -511.0394
   1   2.0000     -18.780191      -511.0350
   2   2.0000     -18.765387      -510.6322
   3   2.0000     -18.755375      -510.3597
   4   2.0000     -18.748838      -510.1818
   5   2.0000     -18.746627      -510.1217
   6   2.0000      -9.988207      -271.7929
   7   2.0000      -9.949280      -270.7337
   8   2.0000      -9.946074      -270.6464
   9   2.0000      -9.945095      -270.6198
  10   2.0000      -9.942719      -270.5551
  11   2.0000      -9.940492      -270.4945
  12   2.0000      -0.991863       -26.9900
  13   2.0000      -0.954162       -25.9641
  14   2.0000      -0.947474       -25.7821
  15   2.0000      -0.933050       -25.3896
  16   2.0000      -0.918856       -25.0033
  17   2.0000      -0.906999       -24.6807
  18   2.0000      -0.708585       -19.2816
  19   2.0000      -0.693923       -18.8826
  20   2.0000      -0.627067       -17.0634
  21   2.0000      -0.589210       -16.0332
  22   2.0000      -0.575078       -15.6487
  23   2.0000      -0.531568       -14.4647
  24   2.0000      -0.511792       -13.9266
  25   2.0000      -0.477631       -12.9970
  26   2.0000      -0.471979       -12.8432
  27   2.0000      -0.457231       -12.4419
  28   2.0000      -0.452057       -12.3011
  29   2.0000      -0.441909       -12.0250
  30   2.0000      -0.421234       -11.4624
  31   2.0000      -0.405199       -11.0260
  32   2.0000      -0.396863       -10.7992
  33   2.0000      -0.387608       -10.5473
  34   2.0000      -0.369983       -10.0677
  35   2.0000      -0.355727        -9.6798
  36   2.0000      -0.342573        -9.3219
  37   2.0000      -0.314015        -8.5448
  38   2.0000      -0.305319        -8.3082
  39   2.0000      -0.300239        -8.1699
  40   2.0000      -0.288763        -7.8576
  41   2.0000      -0.275539        -7.4978
  42   2.0000      -0.261257        -7.1092
  43   2.0000      -0.249982        -6.8024
  44   2.0000      -0.238858        -6.4997
  45   2.0000      -0.226509        -6.1636
  46   2.0000      -0.215018        -5.8509
  47   2.0000      -0.209169        -5.6918
  48   0.0000       0.014648         0.3986
  49   0.0000       0.022211         0.6044
  50   0.0000       0.026846         0.7305
  51   0.0000       0.051837         1.4106
  52   0.0000       0.062464         1.6997

MULLIKEN ATOMIC CHARGES
-----------------------
   0 C :    0.053183
   1 C :    0.053618
   2 H :    0.078313
   3 C :    0.023387
   4 H :    0.049760
   5 C :    0.013534
   6 H :    0.079272
   7 C :    0.111228
   8 H :    0.053493
   9 C :    0.141084
  10 H :    0.041552
  11 O :   -0.318780
  12 O :   -0.424527
  13 O :   -0.404553
  14 O :   -0.415380
  15 O :   -0.417340
  16 O :   -0.432305
  17 H :    0.114875
  18 H :    0.089860
  19 H :    0.295953
  20 H :    0.299350
  21 H :    0.302265
  22 H :    0.301684
  23 H :    0.310476
Sum of atomic charges:    0.0000000

LOEWDIN ATOMIC CHARGES
----------------------
   0 C :   -0.127606
   1 C :   -0.068378
   2 H :    0.121249
   3 C :   -0.092569
   4 H :    0.098437
   5 C :   -0.070340
   6 H :    0.127796
   7 C :   -0.083392
   8 H :    0.102967
   9 C :   -0.006560
  10 H :    0.087877
  11 O :   -0.140124
  12 O :   -0.334347
  13 O :   -0.310755
  14 O :   -0.303476
  15 O :   -0.326158
  16 O :   -0.311728
  17 H :    0.126197
  18 H :    0.107604
  19 H :    0.268016
  20 H :    0.284825
  21 H :    0.285647
  22 H :    0.280126
  23 H :    0.284691

  Mayer bond orders larger than 0.100000
B(  0-C ,  1-C ) :   1.0076 B(  0-C , 16-O ) :   1.0325 B(  0-C , 17-H ) :   0.9273
B(  0-C , 18-H ) :   0.9266 B(  1-C ,  2-H ) :   0.8808 B(  1-C ,  3-C ) :   0.9756
B(  1-C , 11-O ) :   1.0080 B(  3-C ,  4-H ) :   0.8588 B(  3-C ,  5-C ) :   1.0555
B(  3-C , 15-O ) :   1.0859 B(  5-C ,  6-H ) :   0.8509 B(  5-C ,  7-C ) :   1.0082
B(  5-C , 14-O ) :   1.0147 B(  7-C ,  8-H ) :   0.8707 B(  7-C ,  9-C ) :   0.9703
B(  7-C , 13-O ) :   1.0916 B(  9-C , 10-H ) :   0.8928 B(  9-C , 11-O ) :   1.0648
B(  9-C , 12-O ) :   1.0833 B( 12-O , 19-H ) :   0.7653 B( 13-O , 20-H ) :   0.8471
B( 14-O , 21-H ) :   0.8474 B( 15-O , 22-H ) :   0.8211 B( 16-O , 19-H ) :   0.1562
B( 16-O , 23-H ) :   0.8265

Dispersion correction           -0.025130777
FINAL SINGLE POINT ENERGY      -685.690216556126

DIPOLE MOMENT
-------------

Method             : SCF
Type of density    : Electron Density
Multiplicity       :   1
Irrep              :   0
Energy             :  -685.8246625771167828 Eh
Relativity type    :
Basis              : AO
                                X                 Y                 Z
Electronic contribution:      1.938989300       0.125352258       0.618649439
Nuclear contribution   :     -1.768084198      -0.673159676      -0.684164540
                        -----------------------------------------
Total Dipole Moment    :      0.170905102      -0.547807419      -0.065515101
                        -----------------------------------------
Magnitude (a.u.)       :      0.577575753
Magnitude (Debye)      :      1.468080894

Rotational constants in cm-1:             0.042671             0.028352             0.020287
Rotational constants in MHz :          1279.236156           849.973583           608.176128

                             ****ORCA TERMINATED NORMALLY****
TOTAL RUN TIME: 0 days 0 hours 0 minutes 9 seconds 715 msec
