                         Program Version 6.0.0  -   RELEASE  -
|  1> ! r2SCAN-3c DEF2-TZVP FREQ
|  2> * xyzfile 0 1 censo.xyz
|  3>
|  4>                          ****END OF INPUT****

CARTESIAN COORDINATES (ANGSTROEM)
---------------------------------
  C     -4.280260   -0.247554   -0.084096
  C     -2.793257   -0.046340   -0.068443
  C     -1.962019   -0.866489    0.700340
  C     -0.580653   -0.707122    0.683350
  C      0.002849    0.296933   -0.093657
  C     -0.822816    1.138898   -0.844796
  C     -2.199342    0.958359   -0.841496
  C      1.467695    0.582017   -0.059504
  O      1.857063    1.758610    0.108654
  N      2.340024   -0.442427   -0.174382
  C      3.769411   -0.163702   -0.040208
  C      2.009232   -1.765754   -0.702992
  H     -4.807827    0.706541   -0.170426
  H     -4.575425   -0.860966   -0.943990
  H     -4.621512   -0.759470    0.819297
  H     -2.402964   -1.639500    1.323518
  H      0.041334   -1.355862    1.292130
  H     -0.378070    1.932670   -1.437025
  H     -2.827584    1.610674   -1.441793
  H      4.193476    0.208851   -0.981277
  H      4.279942   -1.090589    0.232152
  H      3.938658    0.579140    0.740621
  H      0.981050   -1.795719   -1.059840
  H      2.150229   -2.541059    0.057958
  H      2.672445   -1.984341   -1.547418

 Total Charge           Charge          ....    0
 Multiplicity           Mult            ....    1
 Number of Electrons    NEL             ....   88
 Basis Dimension        Dim             ....  450

ORBITAL ENERGIES
----------------

  NO   OCC          E(Eh)            E(eV)
   0   2.0000     -18.902046      -514.3508
   1   2.0000     -14.198285      -386.3550
   2   2.0000     -10.121180      -275.4113
   3   2.0000     -10.073112      -274.1033
   4   2.0000     -10.062403      -273.8119
   5   2.0000     -10.051438      -273.5135
   6   2.0000     -10.046802      -273.3874
   7   2.0000     -10.044340      -273.3204
   8   2.0000     -10.039630      -273.1922
   9   2.0000     -10.038879      -273.1718
  10   2.0000     -10.036709      -273.1127
  11   2.0000     -10.034279      -273.0466
  12   2.0000      -0.982118       -26.7248
  13   2.0000      -0.896709       -24.4007
  14   2.0000      -0.829805       -22.5801
  15   2.0000      -0.752477       -20.4759
  16   2.0000      -0.717850       -19.5337
  17   2.0000      -0.694845       -18.9077
  18   2.0000      -0.681705       -18.5501
  19   2.0000      -0.650250       -17.6942
  20   2.0000      -0.580861       -15.8060
  21   2.0000      -0.567625       -15.4459
  22   2.0000      -0.522235       -14.2107
  23   2.0000      -0.491566       -13.3762
  24   2.0000      -0.451606       -12.2888
  25   2.0000      -0.444542       -12.0966
  26   2.0000      -0.437604       -11.9078
  27   2.0000      -0.429814       -11.6958
  28   2.0000      -0.409122       -11.1328
  29   2.0000      -0.396664       -10.7938
  30   2.0000      -0.392071       -10.6688
  31   2.0000      -0.380362       -10.3502
  32   2.0000      -0.375921       -10.2293
  33   2.0000      -0.367648       -10.0042
  34   2.0000      -0.361093        -9.8258
  35   2.0000      -0.356491        -9.7006
  36   2.0000      -0.341380        -9.2894
  37   2.0000      -0.324208        -8.8221
  38   2.0000      -0.319562        -8.6957
  39   2.0000      -0.309802        -8.4301
  40   2.0000      -0.241813        -6.5801
  41   2.0000      -0.234268        -6.3748
  42   2.0000      -0.218383        -5.9425
  43   2.0000      -0.204085        -5.5534
  44   0.0000      -0.052892        -1.4393
  45   0.0000      -0.038938        -1.0596
  46   0.0000       0.016973         0.4619
  47   0.0000       0.037549         1.0218
  48   0.0000       0.057551         1.5660

MULLIKEN ATOMIC CHARGES
-----------------------
   0 C :   -0.351962
   1 C :    0.175009
   2 C :   -0.173981
   3 C :   -0.197879
   4 C :    0.143022
   5 C :   -0.170414
   6 C :   -0.181134
   7 C :    0.228243
   8 O :   -0.426540
   9 N :   -0.073690
  10 C :   -0.259274
  11 C :   -0.282549
  12 H :    0.117947
  13 H :    0.121898
  14 H :    0.113297
  15 H :    0.100135
  16 H :    0.118292
  17 H :    0.120299
  18 H :    0.103062
  19 H :    0.121329
  20 H :    0.112823
  21 H :    0.147697
  22 H :    0.151477
  23 H :    0.120775
  24 H :    0.122119
Sum of atomic charges:   -0.0000000

LOEWDIN ATOMIC CHARGES
----------------------
   0 C :   -0.252401
   1 C :   -0.166625
   2 C :   -0.117610
   3 C :   -0.107617
   4 C :   -0.124347
   5 C :   -0.083670
   6 C :   -0.110651
   7 C :   -0.391978
   8 O :    0.038428
   9 N :    0.162836
  10 C :   -0.274266
  11 C :   -0.281266
  12 H :    0.129177
  13 H :    0.132359
  14 H :    0.127182
  15 H :    0.144953
  16 H :    0.149238
  17 H :    0.154973
  18 H :    0.146181
  19 H :    0.117522
  20 H :    0.116705
  21 H :    0.128824
  22 H :    0.130653
  23 H :    0.113096
  24 H :    0.118305

  Mayer bond orders larger than 0.100000
B(  0-C ,  1-C ) :   0.9138 B(  0-C , 12-H ) :   0.9794 B(  0-C , 13-H ) :   0.9534
B(  0-C , 14-H ) :   0.9857 B(  1-C ,  2-C ) :   1.3388 B(  1-C ,  6-C ) :   1.3107
B(  2-C ,  3-C ) :   1.4281 B(  2-C , 15-H ) :   0.9806 B(  3-C ,  4-C ) :   1.2926
B(  3-C , 16-H ) :   0.9754 B(  4-C ,  5-C ) :   1.3434 B(  4-C ,  7-C ) :   0.8710
B(  5-C ,  6-C ) :   1.4345 B(  5-C , 17-H ) :   0.9766 B(  6-C , 18-H ) :   0.9854
B(  7-C ,  8-O ) :   1.9157 B(  7-C ,  9-N ) :   1.2634 B(  9-N , 10-C ) :   0.9145
B(  9-N , 11-C ) :   0.9125 B( 10-C , 19-H ) :   0.9694 B( 10-C , 20-H ) :   0.9639
B( 10-C , 21-H ) :   0.9626 B( 11-C , 22-H ) :   0.9649 B( 11-C , 23-H ) :   0.9711
B( 11-C , 24-H ) :   0.9627

Dispersion correction           -0.009097738
FINAL SINGLE POINT ENERGY      -518.781548389647

DIPOLE MOMENT
-------------

Method             : SCF
Type of density    : Electron Density
Multiplicity       :   1
Irrep              :   0
Energy             :  -518.7878868824906249 Eh
Relativity type    :
Basis              : AO
                                X                 Y                 Z
Electronic contribution:      0.652020126       5.387893112       1.083440990
Nuclear contribution   :     -0.961968335      -6.910814445      -1.420002085
                        -----------------------------------------
Total Dipole Moment    :     -0.309948209      -1.522921333      -0.336561094
                        -----------------------------------------
Magnitude (a.u.)       :      1.590166862
Magnitude (Debye)      :      4.041882948

VIBRATIONAL FREQUENCIES
-----------------------

Scaling factor for frequencies =  1.000000000  (already applied!)

     0:       0.00 cm**-1
     1:       0.00 cm**-1
     2:       0.00 cm**-1
     3:       0.00 cm**-1
     4:       0.00 cm**-1
     5:       0.00 cm**-1
     6:      62.60 cm**-1
     7:      63.99 cm**-1
     8:      79.89 cm**-1
     9:      88.78 cm**-1
    10:     103.13 cm**-1
    11:     138.30 cm**-1
    12:     199.74 cm**-1
    13:     218.66 cm**-1
    14:     267.61 cm**-1
    15:     304.23 cm**-1
    16:     337.68 cm**-1
    17:     363.22 cm**-1
    18:     402.40 cm**-1
    19:     419.32 cm**-1
    20:     461.88 cm**-1
    21:     555.37 cm**-1
    22:     595.60 cm**-1
    23:     653.12 cm**-1
    24:     693.63 cm**-1
    25:     729.44 cm**-1
    26:     762.92 cm**-1
    27:     815.67 cm**-1
    28:     839.25 cm**-1
    29:     849.80 cm**-1
    30:     925.03 cm**-1
    31:     956.81 cm**-1
    32:     965.93 cm**-1
    33:    1007.41 cm**-1
    34:    1040.58 cm**-1
    35:    1055.94 cm**-1
    36:    1060.89 cm**-1
    37:    1099.79 cm**-1
    38:    1119.33 cm**-1
    39:    1136.21 cm**-1
    40:    1154.36 cm**-1
    41:    1200.16 cm**-1
    42:    1228.26 cm**-1
    43:    1236.27 cm**-1
    44:    1274.04 cm**-1
    45:    1326.74 cm**-1
    46:    1335.09 cm**-1
    47:    1400.84 cm**-1
    48:    1420.21 cm**-1
    49:    1429.73 cm**-1
    50:    1431.42 cm**-1
    51:    1466.39 cm**-1
    52:    1477.27 cm**-1
    53:    1480.56 cm**-1
    54:    1484.01 cm**-1
    55:    1484.68 cm**-1
    56:    1495.01 cm**-1
    57:    1519.37 cm**-1
    58:    1539.39 cm**-1
    59:    1588.67 cm**-1
    60:    1611.00 cm**-1
    61:    1641.06 cm**-1
    62:    2999.47 cm**-1
    63:    3004.88 cm**-1
    64:    3005.30 cm**-1
    65:    3058.70 cm**-1
    66:    3071.23 cm**-1
    67:    3082.78 cm**-1
    68:    3104.93 cm**-1
    69:    3130.08 cm**-1
    70:    3144.56 cm**-1
    71:    3152.04 cm**-1
    72:    3153.82 cm**-1
    73:    3172.18 cm**-1
    74:    3178.24 cm**-1

IR SPECTRUM
-----------

 Mode   freq       eps      Int      T**2         TX        TY        TZ
       cm**-1   L/(mol*cm) km/mol    a.u.
----------------------------------------------------------------------------
  6:     62.60   0.000065    0.33  0.000323  (-0.012739 -0.009912 -0.007911)
  7:     63.99   0.000423    2.14  0.002061  (-0.000478  0.009539  0.044381)
  8:     79.89   0.000066    0.33  0.000256  (-0.004187 -0.013670  0.007208)
  9:     88.78   0.000113    0.57  0.000399  (-0.011298 -0.014561  0.007690)
 10:    103.13   0.000356    1.80  0.001076  ( 0.028928  0.009222 -0.012417)
 11:    138.30   0.000229    1.16  0.000516  (-0.011026  0.019251  0.004864)
 12:    199.74   0.000403    2.04  0.000630  ( 0.024051 -0.007144  0.000887)
 13:    218.66   0.000077    0.39  0.000110  (-0.003922  0.009660  0.000948)
 14:    267.61   0.000877    4.43  0.001023  ( 0.000404  0.014876 -0.028303)
 15:    304.23   0.000261    1.32  0.000267  ( 0.014749 -0.002503 -0.006597)
 16:    337.68   0.000916    4.63  0.000846  (-0.027255  0.008708  0.005269)
 17:    363.22   0.000735    3.72  0.000632  ( 0.020893 -0.006381  0.012432)
 18:    402.40   0.000682    3.45  0.000529  (-0.022841  0.002259 -0.001464)
 19:    419.32   0.000434    2.19  0.000323  ( 0.017861 -0.001159  0.001568)
 20:    461.88   0.002704   13.66  0.001827  (-0.022056 -0.031225 -0.019111)
 21:    555.37   0.001830    9.25  0.001028  ( 0.021284 -0.008878 -0.022281)
 22:    595.60   0.001985   10.03  0.001040  (-0.023705  0.019429  0.010033)
 23:    653.12   0.000143    0.72  0.000068  (-0.001203  0.002764 -0.007701)
 24:    693.63   0.000370    1.87  0.000166  (-0.005390  0.010644 -0.004890)
 25:    729.44   0.000690    3.49  0.000295  (-0.009769  0.007546  0.011950)
 26:    762.92   0.005067   25.61  0.002073  ( 0.018992 -0.016346 -0.038009)
 27:    815.67   0.000235    1.19  0.000090  ( 0.003651 -0.008077 -0.003363)
 28:    839.25   0.004124   20.84  0.001533  (-0.005045  0.029859  0.024826)
 29:    849.80   0.001200    6.07  0.000441  ( 0.006743  0.014602  0.013494)
 30:    925.03   0.000311    1.57  0.000105  (-0.006825 -0.006363 -0.004216)
 31:    956.81   0.000233    1.18  0.000076  (-0.003947  0.004710  0.006189)
 32:    965.93   0.000337    1.70  0.000109  ( 0.007607  0.004599  0.005456)
 33:   1007.41   0.000094    0.48  0.000029  (-0.002330 -0.004821 -0.000759)
 34:   1040.58   0.001272    6.43  0.000382  ( 0.018448 -0.005110 -0.003893)
 35:   1055.94   0.002484   12.56  0.000734  (-0.022439 -0.010577 -0.010901)
 36:   1060.89   0.003538   17.88  0.001041  ( 0.031114  0.007958  0.003031)
 37:   1099.79   0.011834   59.80  0.003358  ( 0.049371 -0.029401 -0.007477)
 38:   1119.33   0.000232    1.17  0.000065  ( 0.007514 -0.002718  0.000935)
 39:   1136.21   0.001237    6.25  0.000340  ( 0.003176 -0.014894  0.010388)
 40:   1154.36   0.001702    8.60  0.000460  ( 0.017467 -0.010795  0.006197)
 41:   1200.16   0.003480   17.59  0.000905  (-0.028581  0.008976  0.002714)
 42:   1228.26   0.003203   16.19  0.000814  ( 0.022104 -0.017979 -0.001415)
 43:   1236.27   0.001005    5.08  0.000254  (-0.009262 -0.012288 -0.004110)
 44:   1274.04   0.010276   51.93  0.002517  (-0.049462  0.007822  0.003037)
 45:   1326.74   0.000072    0.37  0.000017  (-0.002778 -0.001099 -0.002846)
 46:   1335.09   0.000188    0.95  0.000044  (-0.004043  0.005031 -0.001508)
 47:   1400.84   0.000212    1.07  0.000047  (-0.005672 -0.003054 -0.002397)
 48:   1420.21   0.017966   90.79  0.003948  (-0.051578  0.032914  0.014283)
 49:   1429.73   0.004769   24.10  0.001041  (-0.029358  0.012133 -0.005635)
 50:   1431.42   0.000382    1.93  0.000083  (-0.004275 -0.006406 -0.004903)
 51:   1466.39   0.010056   50.82  0.002140  ( 0.043933  0.008483  0.011743)
 52:   1477.27   0.002416   12.21  0.000510  ( 0.012736  0.006385 -0.017531)
 53:   1480.56   0.001255    6.34  0.000265  ( 0.003669 -0.014052 -0.007320)
 54:   1484.01   0.004514   22.81  0.000949  (-0.022233  0.000810  0.021312)
 55:   1484.68   0.002553   12.90  0.000537  (-0.020553  0.007321 -0.007779)
 56:   1495.01   0.000272    1.37  0.000057  (-0.001421  0.005166 -0.005294)
 57:   1519.37   0.016968   85.75  0.003485  (-0.056919 -0.015599 -0.001392)
 58:   1539.39   0.002591   13.10  0.000525  ( 0.020822  0.009569  0.000452)
 59:   1588.67   0.027260  137.76  0.005355  (-0.018403  0.070092  0.010152)
 60:   1611.00   0.037932  191.69  0.007348  (-0.020399  0.081667  0.016190)
 61:   1641.06   0.006046   30.55  0.001150  ( 0.032962 -0.007417 -0.002860)
 62:   2999.47   0.006442   32.56  0.000670  (-0.011764 -0.023055 -0.000588)
 63:   3004.88   0.018347   92.72  0.001905  (-0.038861  0.016637  0.010881)
 64:   3005.30   0.003353   16.94  0.000348  (-0.007926 -0.014045 -0.009384)
 65:   3058.70   0.006286   31.77  0.000641  (-0.007725 -0.009550  0.022147)
 66:   3071.23   0.003093   15.63  0.000314  ( 0.009119 -0.009231 -0.012077)
 67:   3082.78   0.003980   20.12  0.000403  (-0.008276  0.012448 -0.013397)
 68:   3104.93   0.002737   13.83  0.000275  ( 0.000586  0.012491 -0.010895)
 69:   3130.08   0.001109    5.60  0.000111  (-0.001419  0.008843  0.005506)
 70:   3144.56   0.001866    9.43  0.000185  ( 0.012411 -0.002386  0.005042)
 71:   3152.04   0.002125   10.74  0.000210  ( 0.009223  0.008451 -0.007339)
 72:   3153.82   0.002842   14.36  0.000281  (-0.014592  0.006171 -0.005500)
 73:   3172.18   0.002612   13.20  0.000257  ( 0.002872 -0.011864  0.010388)
 74:   3178.24   0.000644    3.26  0.000063  (-0.002906  0.005265 -0.005204)

--------------------------
THERMOCHEMISTRY AT 298.15K
--------------------------

Temperature         ...   298.15 K
Pressure            ...     1.00 atm
Total Mass          ...   163.22 AMU
Quasi RRHO          ...     True
Cut-Off Frequency   ...     1.00 cm^-1

Throughout the following assumptions are being made:
  (1) The electronic state is orbitally nondegenerate
  (2) There are no thermally accessible electronically excited states
  (3) Hindered rotations indicated by low frequency modes are not
      treated as such but are treated as vibrations and this may
      cause some error
  (4) All equations used are the standard statistical mechanics
      equations for an ideal gas
  (5) All vibrations are strictly harmonic

freq.      62.60  E(vib)   ...       0.51
freq.      63.99  E(vib)   ...       0.51
freq.      79.89  E(vib)   ...       0.49
freq.      88.78  E(vib)   ...       0.47
freq.     103.13  E(vib)   ...       0.46
freq.     138.30  E(vib)   ...       0.42
freq.     199.74  E(vib)   ...       0.35
freq.     218.66  E(vib)   ...       0.33
freq.     267.61  E(vib)   ...       0.29
freq.     304.23  E(vib)   ...       0.26
freq.     337.68  E(vib)   ...       0.24
freq.     363.22  E(vib)   ...       0.22
freq.     402.40  E(vib)   ...       0.19
freq.     419.32  E(vib)   ...       0.18
freq.     461.88  E(vib)   ...       0.16
freq.     555.37  E(vib)   ...       0.12
freq.     595.60  E(vib)   ...       0.10
freq.     653.12  E(vib)   ...       0.08
freq.     693.63  E(vib)   ...       0.07
freq.     729.44  E(vib)   ...       0.06
freq.     762.92  E(vib)   ...       0.06
freq.     815.67  E(vib)   ...       0.05
freq.     839.25  E(vib)   ...       0.04
freq.     849.80  E(vib)   ...       0.04
freq.     925.03  E(vib)   ...       0.03
freq.     956.81  E(vib)   ...       0.03
freq.     965.93  E(vib)   ...       0.03
freq.    1007.41  E(vib)   ...       0.02
freq.    1040.58  E(vib)   ...       0.02
freq.    1055.94  E(vib)   ...       0.02
freq.    1060.89  E(vib)   ...       0.02
freq.    1099.79  E(vib)   ...       0.02
freq.    1119.33  E(vib)   ...       0.01
freq.    1136.21  E(vib)   ...       0.01
freq.    1154.36  E(vib)   ...       0.01
freq.    1200.16  E(vib)   ...       0.01
freq.    1228.26  E(vib)   ...       0.01
freq.    1236.27  E(vib)   ...       0.01
freq.    1274.04  E(vib)   ...       0.01
freq.    1326.74  E(vib)   ...       0.01
freq.    1335.09  E(vib)   ...       0.01
freq.    1400.84  E(vib)   ...       0.00
freq.    1420.21  E(vib)   ...       0.00
freq.    1429.73  E(vib)   ...       0.00
freq.    1431.42  E(vib)   ...       0.00
freq.    1466.39  E(vib)   ...       0.00
freq.    1477.27  E(vib)   ...       0.00
freq.    1480.56  E(vib)   ...       0.00
freq.    1484.01  E(vib)   ...       0.00
freq.    1484.68  E(vib)   ...       0.00
freq.    1495.01  E(vib)   ...       0.00
freq.    1519.37  E(vib)   ...       0.00
freq.    1539.39  E(vib)   ...       0.00
freq.    1588.67  E(vib)   ...       0.00
freq.    1611.00  E(vib)   ...       0.00
freq.    1641.06  E(vib)   ...       0.00
freq.    2999.47  E(vib)   ...       0.00
freq.    3004.88  E(vib)   ...       0.00
freq.    3005.30  E(vib)   ...       0.00
freq.    3058.70  E(vib)   ...       0.00
freq.    3071.23  E(vib)   ...       0.00
freq.    3082.78  E(vib)   ...       0.00
freq.    3104.93  E(vib)   ...       0.00
freq.    3130.08  E(vib)   ...       0.00
freq.    3144.56  E(vib)   ...       0.00
freq.    3152.04  E(vib)   ...       0.00
freq.    3153.82  E(vib)   ...       0.00
freq.    3172.18  E(vib)   ...       0.00
freq.    3178.24  E(vib)   ...       0.00

------------
INNER ENERGY
------------

The inner energy is: U= E(el) + E(ZPE) + E(vib) + E(rot) + E(trans)
    E(el)   - is the total energy from the electronic structure calculation
              = E(kin-el) + E(nuc-el) + E(el-el) + E(nuc-nuc)
    E(ZPE)  - the the zero temperature vibrational energy from the frequency calculation
    E(vib)  - the the finite temperature correction to E(ZPE) due to population
              of excited vibrational states
    E(rot)  - is the rotational thermal energy
    E(trans)- is the translational thermal energy

Summary of contributions to the inner energy U:
Electronic energy                ...   -518.78154839 Eh
Zero point energy                ...      0.20926544 Eh     131.32 kcal/mol
Thermal vibrational correction   ...      0.00958314 Eh       6.01 kcal/mol
Thermal rotational correction    ...      0.00141627 Eh       0.89 kcal/mol
Thermal translational correction ...      0.00141627 Eh       0.89 kcal/mol
-----------------------------------------------------------------------
Total thermal energy                   -518.55986728 Eh

Summary of corrections to the electronic energy:
(perhaps to be used in another calculation)
Total thermal correction                  0.01241568 Eh       7.79 kcal/mol
Non-thermal (ZPE) correction              0.20926544 Eh     131.32 kcal/mol
-----------------------------------------------------------------------
Total correction                          0.22168111 Eh     139.11 kcal/mol

--------
ENTHALPY
--------

The enthalpy is H = U + kB*T
                kB is Boltzmann's constant
Total thermal energy              ...   -518.55986728 Eh
Thermal Enthalpy correction       ...      0.00094421 Eh       0.59 kcal/mol
-----------------------------------------------------------------------
Total Enthalpy                    ...   -518.55892307 Eh

Note: Only C1 symmetry has been detected, increase convergence thresholds
      if your molecule has a higher symmetry. Symmetry factor of 1.0 is
      used for the rotational entropy correction.

Note: Rotational entropy computed according to Herzberg
Infrared and Raman Spectra, Chapter V,1, Van Nostrand Reinhold, 1945
Point Group:  C1, Symmetry Number:   1
Rotational constants in cm-1:     0.079314     0.016924     0.015047

Vibrational entropy computed according to the QRRHO of S. Grimme
Chem.Eur.J. 2012 18 9955 using a reference frequency of 100.0 cm-1

-------
ENTROPY
-------

The entropy contributions are T*S = T*(S(el)+S(vib)+S(rot)+S(trans))
     S(el)   - electronic entropy
     S(vib)  - vibrational entropy
     S(rot)  - rotational entropy
     S(trans)- translational entropy
The entropies will be listed as multiplied by the temperature to get
units of energy

Electronic entropy                ...      0.00000000 Eh      0.00 kcal/mol
Vibrational entropy               ...      0.01683413 Eh     10.56 kcal/mol
Rotational entropy                ...      0.01461408 Eh      9.17 kcal/mol

                             ****ORCA TERMINATED NORMALLY****
TOTAL RUN TIME: 0 days 0 hours 30 minutes 42 seconds 454 msec
