                         Program Version 6.0.0  -   RELEASE  -
|  1> ! r2SCAN-3c DEF2-TZVP FREQ
|  2> * xyzfile 0 1 vacuum_censo.xyz
|  3>
|  4>                          ****END OF INPUT****

CARTESIAN COORDINATES (ANGSTROEM)
---------------------------------
  C     -4.279451   -0.191686    0.138517
  C     -2.785465   -0.100093   -0.000546
  C     -1.955366   -0.043810    1.120085
  C     -0.574299    0.051560    0.984994
  C      0.009262    0.108334   -0.281371
  C     -0.817401    0.080044   -1.407012
  C     -2.191611   -0.040044   -1.266242
  C      1.475847    0.335366   -0.486018
  O      1.858851    1.177937   -1.293498
  N      2.351877   -0.376899    0.296339
  C      3.770457   -0.065932    0.180039
  C      2.054611   -1.671221    0.894694
  H     -4.688879   -0.974273   -0.507826
  H     -4.572051   -0.409453    1.168355
  H     -4.755311    0.751388   -0.153153
  H     -2.395897   -0.069067    2.112975
  H      0.051766    0.106229    1.870798
  H     -0.364625    0.162404   -2.389503
  H     -2.820501   -0.075357   -2.151993
  H      3.890587    0.984017   -0.087477
  H      4.254726   -0.677809   -0.594566
  H      4.260693   -0.264979    1.139152
  H      2.265810   -1.665449    1.972107
  H      2.676892   -2.448966    0.429766
  H      1.008709   -1.935162    0.742532

 Total Charge           Charge          ....    0
 Multiplicity           Mult            ....    1
 Number of Electrons    NEL             ....   88
 Basis Dimension        Dim             ....  450

ORBITAL ENERGIES
----------------

  NO   OCC          E(Eh)            E(eV)
   0   2.0000     -18.908281      -514.5205
   1   2.0000     -14.194638      -386.2557
   2   2.0000     -10.123666      -275.4790
   3   2.0000     -10.070606      -274.0351
   4   2.0000     -10.059232      -273.7256
   5   2.0000     -10.052096      -273.5314
   6   2.0000     -10.046448      -273.3777
   7   2.0000     -10.044337      -273.3203
   8   2.0000     -10.039600      -273.1914
   9   2.0000     -10.039244      -273.1817
  10   2.0000     -10.037072      -273.1226
  11   2.0000     -10.034787      -273.0604
  12   2.0000      -0.992588       -27.0097
  13   2.0000      -0.898116       -24.4390
  14   2.0000      -0.830748       -22.6058
  15   2.0000      -0.752685       -20.4816
  16   2.0000      -0.718265       -19.5450
  17   2.0000      -0.692671       -18.8485
  18   2.0000      -0.678672       -18.4676
  19   2.0000      -0.647238       -17.6122
  20   2.0000      -0.581512       -15.8237
  21   2.0000      -0.567225       -15.4350
  22   2.0000      -0.521377       -14.1874
  23   2.0000      -0.490994       -13.3606
  24   2.0000      -0.450403       -12.2561
  25   2.0000      -0.443468       -12.0674
  26   2.0000      -0.437739       -11.9115
  27   2.0000      -0.429197       -11.6790
  28   2.0000      -0.410200       -11.1621
  29   2.0000      -0.397005       -10.8030
  30   2.0000      -0.392022       -10.6675
  31   2.0000      -0.376389       -10.2421
  32   2.0000      -0.372651       -10.1404
  33   2.0000      -0.371129       -10.0989
  34   2.0000      -0.361810        -9.8454
  35   2.0000      -0.356879        -9.7112
  36   2.0000      -0.343588        -9.3495
  37   2.0000      -0.326381        -8.8813
  38   2.0000      -0.321800        -8.7566
  39   2.0000      -0.310477        -8.4485
  40   2.0000      -0.242595        -6.6013
  41   2.0000      -0.236153        -6.4261
  42   2.0000      -0.220135        -5.9902
  43   2.0000      -0.208408        -5.6711
  44   0.0000      -0.054840        -1.4923
  45   0.0000      -0.038897        -1.0584
  46   0.0000       0.015906         0.4328
  47   0.0000       0.039654         1.0790
  48   0.0000       0.057193         1.5563

MULLIKEN ATOMIC CHARGES
-----------------------
   0 C :   -0.351794
   1 C :    0.176697
   2 C :   -0.171411
   3 C :   -0.203497
   4 C :    0.137982
   5 C :   -0.171002
   6 C :   -0.180942
   7 C :    0.228132
   8 O :   -0.397956
   9 N :   -0.096412
  10 C :   -0.260269
  11 C :   -0.269509
  12 H :    0.118146
  13 H :    0.109962
  14 H :    0.124719
  15 H :    0.099603
  16 H :    0.121369
  17 H :    0.122237
  18 H :    0.103549
  19 H :    0.152224
  20 H :    0.114625
  21 H :    0.109764
  22 H :    0.118552
  23 H :    0.114442
  24 H :    0.150789
Sum of atomic charges:   -0.0000000

LOEWDIN ATOMIC CHARGES
----------------------
   0 C :   -0.252130
   1 C :   -0.165831
   2 C :   -0.118259
   3 C :   -0.107730
   4 C :   -0.125997
   5 C :   -0.084982
   6 C :   -0.109563
   7 C :   -0.395612
   8 O :    0.071052
   9 N :    0.152231
  10 C :   -0.281997
  11 C :   -0.287678
  12 H :    0.129794
  13 H :    0.125848
  14 H :    0.132708
  15 H :    0.145044
  16 H :    0.150050
  17 H :    0.155026
  18 H :    0.146801
  19 H :    0.130378
  20 H :    0.114493
  21 H :    0.115627
  22 H :    0.113750
  23 H :    0.116359
  24 H :    0.130618

  Mayer bond orders larger than 0.100000
B(  0-C ,  1-C ) :   0.9126 B(  0-C , 12-H ) :   0.9728 B(  0-C , 13-H ) :   0.9883
B(  0-C , 14-H ) :   0.9578 B(  1-C ,  2-C ) :   1.3500 B(  1-C ,  6-C ) :   1.3005
B(  2-C ,  3-C ) :   1.4202 B(  2-C , 15-H ) :   0.9789 B(  3-C ,  4-C ) :   1.3009
B(  3-C , 16-H ) :   0.9753 B(  4-C ,  5-C ) :   1.3439 B(  4-C ,  7-C ) :   0.8738
B(  5-C ,  6-C ) :   1.4362 B(  5-C , 17-H ) :   0.9728 B(  6-C , 18-H ) :   0.9883
B(  7-C ,  8-O ) :   1.9375 B(  7-C ,  9-N ) :   1.2302 B(  9-N , 10-C ) :   0.9232
B(  9-N , 11-C ) :   0.9182 B( 10-C , 19-H ) :   0.9613 B( 10-C , 20-H ) :   0.9700
B( 10-C , 21-H ) :   0.9639 B( 11-C , 22-H ) :   0.9733 B( 11-C , 23-H ) :   0.9592
B( 11-C , 24-H ) :   0.9650

Dispersion correction           -0.009091157
FINAL SINGLE POINT ENERGY      -518.782934088036

DIPOLE MOMENT
-------------

Method             : SCF
Type of density    : Electron Density
Multiplicity       :   1
Irrep              :   0
Energy             :  -518.7893596835040171 Eh
Relativity type    :
Basis              : AO
                                X                 Y                 Z
Electronic contribution:      0.552870497       4.159886495      -3.511576479
Nuclear contribution   :     -0.917434996      -5.239853084       4.394914167
                        -----------------------------------------
Total Dipole Moment    :     -0.364564500      -1.079966589       0.883337688
                        -----------------------------------------
Magnitude (a.u.)       :      1.442054291
Magnitude (Debye)      :      3.665410713

VIBRATIONAL FREQUENCIES
-----------------------

Scaling factor for frequencies =  1.000000000  (already applied!)

     0:       0.00 cm**-1
     1:       0.00 cm**-1
     2:       0.00 cm**-1
     3:       0.00 cm**-1
     4:       0.00 cm**-1
     5:       0.00 cm**-1
     6:      56.52 cm**-1
     7:      60.64 cm**-1
     8:      83.36 cm**-1
     9:      97.17 cm**-1
    10:     114.73 cm**-1
    11:     164.32 cm**-1
    12:     204.77 cm**-1
    13:     221.61 cm**-1
    14:     278.23 cm**-1
    15:     303.76 cm**-1
    16:     342.81 cm**-1
    17:     363.00 cm**-1
    18:     399.78 cm**-1
    19:     419.36 cm**-1
    20:     460.28 cm**-1
    21:     550.90 cm**-1
    22:     593.75 cm**-1
    23:     653.43 cm**-1
    24:     691.95 cm**-1
    25:     727.24 cm**-1
    26:     760.54 cm**-1
    27:     813.75 cm**-1
    28:     842.88 cm**-1
    29:     851.57 cm**-1
    30:     929.25 cm**-1
    31:     961.46 cm**-1
    32:     966.57 cm**-1
    33:    1004.97 cm**-1
    34:    1043.46 cm**-1
    35:    1055.31 cm**-1
    36:    1069.07 cm**-1
    37:    1089.06 cm**-1
    38:    1122.80 cm**-1
    39:    1135.72 cm**-1
    40:    1164.36 cm**-1
    41:    1199.70 cm**-1
    42:    1226.54 cm**-1
    43:    1234.22 cm**-1
    44:    1275.92 cm**-1
    45:    1329.19 cm**-1
    46:    1342.40 cm**-1
    47:    1399.81 cm**-1
    48:    1400.74 cm**-1
    49:    1430.09 cm**-1
    50:    1432.16 cm**-1
    51:    1461.07 cm**-1
    52:    1477.32 cm**-1
    53:    1478.37 cm**-1
    54:    1482.87 cm**-1
    55:    1486.75 cm**-1
    56:    1497.95 cm**-1
    57:    1525.73 cm**-1
    58:    1538.24 cm**-1
    59:    1602.32 cm**-1
    60:    1643.33 cm**-1
    61:    1682.75 cm**-1
    62:    2976.24 cm**-1
    63:    2983.43 cm**-1
    64:    3009.64 cm**-1
    65:    3027.88 cm**-1
    66:    3054.46 cm**-1
    67:    3073.55 cm**-1
    68:    3104.34 cm**-1
    69:    3135.05 cm**-1
    70:    3136.85 cm**-1
    71:    3149.96 cm**-1
    72:    3150.92 cm**-1
    73:    3168.06 cm**-1
    74:    3183.14 cm**-1

IR SPECTRUM
-----------

 Mode   freq       eps      Int      T**2         TX        TY        TZ
       cm**-1   L/(mol*cm) km/mol    a.u.
----------------------------------------------------------------------------
  6:     56.52   0.000122    0.62  0.000676  (-0.002454 -0.022115 -0.013449)
  7:     60.64   0.000382    1.93  0.001965  ( 0.002666 -0.038822 -0.021241)
  8:     83.36   0.000225    1.14  0.000841  (-0.021862 -0.004962  0.018397)
  9:     97.17   0.000336    1.70  0.001079  ( 0.029266 -0.005763 -0.013773)
 10:    114.73   0.000173    0.87  0.000469  (-0.015405  0.012168 -0.009157)
 11:    164.32   0.000171    0.86  0.000325  ( 0.002664 -0.014938  0.009717)
 12:    204.77   0.000527    2.66  0.000803  ( 0.024979 -0.009197  0.009738)
 13:    221.61   0.000045    0.23  0.000064  (-0.000269 -0.007669  0.002170)
 14:    278.23   0.000918    4.64  0.001029  ( 0.003356  0.007163  0.031089)
 15:    303.76   0.000248    1.25  0.000255  (-0.013992  0.006748  0.003691)
 16:    342.81   0.000740    3.74  0.000674  (-0.024101  0.007783 -0.005665)
 17:    363.00   0.000904    4.57  0.000777  ( 0.023243  0.004267  0.014790)
 18:    399.78   0.000747    3.77  0.000583  (-0.023758  0.000642 -0.004262)
 19:    419.36   0.000208    1.05  0.000155  (-0.012418  0.000378 -0.000705)
 20:    460.28   0.002583   13.05  0.001751  (-0.022264 -0.033947  0.010155)
 21:    550.90   0.001788    9.04  0.001013  ( 0.020842 -0.022875 -0.007426)
 22:    593.75   0.001476    7.46  0.000776  (-0.021574  0.016295 -0.006683)
 23:    653.43   0.000168    0.85  0.000080  (-0.001393 -0.003865 -0.007959)
 24:    691.95   0.000096    0.48  0.000043  (-0.000038 -0.000332  0.006568)
 25:    727.24   0.001546    7.81  0.000663  (-0.017119  0.018409  0.005599)
 26:    760.54   0.004321   21.84  0.001773  ( 0.016705 -0.036805 -0.011802)
 27:    813.75   0.000493    2.49  0.000189  (-0.002343  0.011713 -0.006820)
 28:    842.88   0.004103   20.73  0.001519  ( 0.000439 -0.038600  0.005377)
 29:    851.57   0.001168    5.90  0.000428  (-0.008632 -0.018714  0.001833)
 30:    929.25   0.000391    1.98  0.000131  (-0.006619 -0.009163  0.001912)
 31:    961.46   0.000425    2.15  0.000138  (-0.008074  0.008526 -0.000264)
 32:    966.57   0.000205    1.04  0.000066  ( 0.002587  0.007623  0.001169)
 33:   1004.97   0.000278    1.41  0.000086  (-0.007239 -0.004251  0.003990)
 34:   1043.46   0.002061   10.41  0.000616  (-0.024469  0.002701 -0.003197)
 35:   1055.31   0.002224   11.24  0.000658  ( 0.020587 -0.015287  0.000311)
 36:   1069.07   0.003848   19.45  0.001123  (-0.033264 -0.004102 -0.000005)
 37:   1089.06   0.019915  100.64  0.005707  ( 0.061583 -0.034656  0.026702)
 38:   1122.80   0.000146    0.74  0.000041  (-0.005675 -0.002903  0.000233)
 39:   1135.72   0.001412    7.13  0.000388  (-0.007159  0.001451 -0.018290)
 40:   1164.36   0.002253   11.39  0.000604  ( 0.017449 -0.003465  0.016955)
 41:   1199.70   0.005110   25.82  0.001329  ( 0.034260 -0.010751  0.006312)
 42:   1226.54   0.005202   26.29  0.001324  (-0.030553  0.015502 -0.012239)
 43:   1234.22   0.000943    4.77  0.000238  ( 0.001425 -0.012528  0.008917)
 44:   1275.92   0.014274   72.14  0.003491  (-0.059007  0.001720 -0.002539)
 45:   1329.19   0.000104    0.52  0.000024  (-0.003690 -0.001279 -0.003020)
 46:   1342.40   0.000409    2.07  0.000095  (-0.008290  0.001999 -0.004721)
 47:   1399.81   0.031001  156.67  0.006911  (-0.071653  0.035518 -0.022706)
 48:   1400.74   0.004963   25.08  0.001106  (-0.030193  0.011601 -0.007711)
 49:   1430.09   0.002066   10.44  0.000451  ( 0.018521  0.007201  0.007484)
 50:   1432.16   0.000533    2.69  0.000116  (-0.000933  0.007974 -0.007187)
 51:   1461.07   0.006623   33.47  0.001415  (-0.037291 -0.004157 -0.002603)
 52:   1477.32   0.000957    4.83  0.000202  (-0.005833 -0.008743 -0.009571)
 53:   1478.37   0.001543    7.80  0.000326  (-0.001074  0.017207  0.005337)
 54:   1482.87   0.003000   15.16  0.000631  (-0.010300  0.019062  0.012722)
 55:   1486.75   0.002215   11.19  0.000465  (-0.010392  0.008031 -0.017099)
 56:   1497.95   0.001456    7.36  0.000303  ( 0.005318  0.005067 -0.015792)
 57:   1525.73   0.009799   49.52  0.002004  (-0.043091  0.009078 -0.008063)
 58:   1538.24   0.001526    7.71  0.000310  ( 0.013040 -0.008627  0.008071)
 59:   1602.32   0.001261    6.37  0.000246  (-0.005450 -0.009003  0.011612)
 60:   1643.33   0.006125   30.96  0.001163  (-0.031509 -0.008458  0.009944)
 61:   1682.75   0.056254  284.29  0.010432  ( 0.003481  0.075846 -0.068319)
 62:   2976.24   0.008259   41.74  0.000866  ( 0.000198 -0.025103  0.015354)
 63:   2983.43   0.019312   97.59  0.002020  (-0.039027  0.022290 -0.000313)
 64:   3009.64   0.005778   29.20  0.000599  ( 0.024463 -0.000170 -0.000784)
 65:   3027.88   0.006767   34.20  0.000697  ( 0.005041 -0.007832 -0.024712)
 66:   3054.46   0.005238   26.47  0.000535  (-0.008549 -0.005037 -0.020898)
 67:   3073.55   0.002630   13.29  0.000267  ( 0.003543  0.015945  0.000512)
 68:   3104.34   0.003025   15.29  0.000304  ( 0.003292  0.000546 -0.017116)
 69:   3135.05   0.000496    2.50  0.000049  ( 0.002590 -0.005934  0.002723)
 70:   3136.85   0.001760    8.90  0.000175  (-0.011671 -0.005503 -0.002936)
 71:   3149.96   0.001805    9.12  0.000179  (-0.007059  0.000090  0.011358)
 72:   3150.92   0.003300   16.68  0.000327  ( 0.016179  0.000238  0.008064)
 73:   3168.06   0.002359   11.92  0.000232  (-0.000672 -0.000006 -0.015230)
 74:   3183.14   0.000725    3.66  0.000071  (-0.002348 -0.000701 -0.008065)

--------------------------
THERMOCHEMISTRY AT 298.15K
--------------------------

Temperature         ...   298.15 K
Pressure            ...     1.00 atm
Total Mass          ...   163.22 AMU
Quasi RRHO          ...     True
Cut-Off Frequency   ...     1.00 cm^-1

Throughout the following assumptions are being made:
  (1) The electronic state is orbitally nondegenerate
  (2) There are no thermally accessible electronically excited states
  (3) Hindered rotations indicated by low frequency modes are not
      treated as such but are treated as vibrations and this may
      cause some error
  (4) All equations used are the standard statistical mechanics
      equations for an ideal gas
  (5) All vibrations are strictly harmonic

freq.      56.52  E(vib)   ...       0.52
freq.      60.64  E(vib)   ...       0.51
freq.      83.36  E(vib)   ...       0.48
freq.      97.17  E(vib)   ...       0.46
freq.     114.73  E(vib)   ...       0.44
freq.     164.32  E(vib)   ...       0.39
freq.     204.77  E(vib)   ...       0.35
freq.     221.61  E(vib)   ...       0.33
freq.     278.23  E(vib)   ...       0.28
freq.     303.76  E(vib)   ...       0.26
freq.     342.81  E(vib)   ...       0.23
freq.     363.00  E(vib)   ...       0.22
freq.     399.78  E(vib)   ...       0.19
freq.     419.36  E(vib)   ...       0.18
freq.     460.28  E(vib)   ...       0.16
freq.     550.90  E(vib)   ...       0.12
freq.     593.75  E(vib)   ...       0.10
freq.     653.43  E(vib)   ...       0.08
freq.     691.95  E(vib)   ...       0.07
freq.     727.24  E(vib)   ...       0.06
freq.     760.54  E(vib)   ...       0.06
freq.     813.75  E(vib)   ...       0.05
freq.     842.88  E(vib)   ...       0.04
freq.     851.57  E(vib)   ...       0.04
freq.     929.25  E(vib)   ...       0.03
freq.     961.46  E(vib)   ...       0.03
freq.     966.57  E(vib)   ...       0.03
freq.    1004.97  E(vib)   ...       0.02
freq.    1043.46  E(vib)   ...       0.02
freq.    1055.31  E(vib)   ...       0.02
freq.    1069.07  E(vib)   ...       0.02
freq.    1089.06  E(vib)   ...       0.02
freq.    1122.80  E(vib)   ...       0.01
freq.    1135.72  E(vib)   ...       0.01
freq.    1164.36  E(vib)   ...       0.01
freq.    1199.70  E(vib)   ...       0.01
freq.    1226.54  E(vib)   ...       0.01
freq.    1234.22  E(vib)   ...       0.01
freq.    1275.92  E(vib)   ...       0.01
freq.    1329.19  E(vib)   ...       0.01
freq.    1342.40  E(vib)   ...       0.01
freq.    1399.81  E(vib)   ...       0.00
freq.    1400.74  E(vib)   ...       0.00
freq.    1430.09  E(vib)   ...       0.00
freq.    1432.16  E(vib)   ...       0.00
freq.    1461.07  E(vib)   ...       0.00
freq.    1477.32  E(vib)   ...       0.00
freq.    1478.37  E(vib)   ...       0.00
freq.    1482.87  E(vib)   ...       0.00
freq.    1486.75  E(vib)   ...       0.00
freq.    1497.95  E(vib)   ...       0.00
freq.    1525.73  E(vib)   ...       0.00
freq.    1538.24  E(vib)   ...       0.00
freq.    1602.32  E(vib)   ...       0.00
freq.    1643.33  E(vib)   ...       0.00
freq.    1682.75  E(vib)   ...       0.00
freq.    2976.24  E(vib)   ...       0.00
freq.    2983.43  E(vib)   ...       0.00
freq.    3009.64  E(vib)   ...       0.00
freq.    3027.88  E(vib)   ...       0.00
freq.    3054.46  E(vib)   ...       0.00
freq.    3073.55  E(vib)   ...       0.00
freq.    3104.34  E(vib)   ...       0.00
freq.    3135.05  E(vib)   ...       0.00
freq.    3136.85  E(vib)   ...       0.00
freq.    3149.96  E(vib)   ...       0.00
freq.    3150.92  E(vib)   ...       0.00
freq.    3168.06  E(vib)   ...       0.00
freq.    3183.14  E(vib)   ...       0.00

------------
INNER ENERGY
------------

The inner energy is: U= E(el) + E(ZPE) + E(vib) + E(rot) + E(trans)
    E(el)   - is the total energy from the electronic structure calculation
              = E(kin-el) + E(nuc-el) + E(el-el) + E(nuc-nuc)
    E(ZPE)  - the the zero temperature vibrational energy from the frequency calculation
    E(vib)  - the the finite temperature correction to E(ZPE) due to population
              of excited vibrational states
    E(rot)  - is the rotational thermal energy
    E(trans)- is the translational thermal energy

Summary of contributions to the inner energy U:
Electronic energy                ...   -518.78293409 Eh
Zero point energy                ...      0.20936216 Eh     131.38 kcal/mol
Thermal vibrational correction   ...      0.00948689 Eh       5.95 kcal/mol
Thermal rotational correction    ...      0.00141627 Eh       0.89 kcal/mol
Thermal translational correction ...      0.00141627 Eh       0.89 kcal/mol
-----------------------------------------------------------------------
Total thermal energy                   -518.56125250 Eh

Summary of corrections to the electronic energy:
(perhaps to be used in another calculation)
Total thermal correction                  0.01231943 Eh       7.73 kcal/mol
Non-thermal (ZPE) correction              0.20936216 Eh     131.38 kcal/mol
-----------------------------------------------------------------------
Total correction                          0.22168159 Eh     139.11 kcal/mol

--------
ENTHALPY
--------

The enthalpy is H = U + kB*T
                kB is Boltzmann's constant
Total thermal energy              ...   -518.56125250 Eh
Thermal Enthalpy correction       ...      0.00094421 Eh       0.59 kcal/mol
-----------------------------------------------------------------------
Total Enthalpy                    ...   -518.56030829 Eh

Note: Only C1 symmetry has been detected, increase convergence thresholds
      if your molecule has a higher symmetry. Symmetry factor of 1.0 is
      used for the rotational entropy correction.

Note: Rotational entropy computed according to Herzberg
Infrared and Raman Spectra, Chapter V,1, Van Nostrand Reinhold, 1945
Point Group:  C1, Symmetry Number:   1
Rotational constants in cm-1:     0.079601     0.016894     0.015011

Vibrational entropy computed according to the QRRHO of S. Grimme
Chem.Eur.J. 2012 18 9955 using a reference frequency of 100.0 cm-1

-------
ENTROPY
-------

The entropy contributions are T*S = T*(S(el)+S(vib)+S(rot)+S(trans))
     S(el)   - electronic entropy
     S(vib)  - vibrational entropy
     S(rot)  - rotational entropy
     S(trans)- translational entropy
The entropies will be listed as multiplied by the temperature to get
units of energy

Electronic entropy                ...      0.00000000 Eh      0.00 kcal/mol
Vibrational entropy               ...      0.01658799 Eh     10.41 kcal/mol
Rotational entropy                ...      0.01461433 Eh      9.17 kcal/mol

                             ****ORCA TERMINATED NORMALLY****
TOTAL RUN TIME: 0 days 0 hours 30 minutes 21 seconds 782 msec
