                         Program Version 6.0.1  -  RELEASE   -
|  1> ! pbe def2-sv(p) def2/J RI DEFGRID1 loosescf d4 GCP(DFT/SV(P)) printgap
|  2> %output
|  3>     printlevel normal
|  4> end
|  5> * xyz 0 1
|  6> C -1.9964175042 -0.6096654117 -0.7334488703
|  7> C -1.2098225574 -0.0959598725 0.4930770417
|  8> H -1.896646249 -0.0728295423 1.34816291
|  9> C -0.6460888481 1.3230187921 0.3022915386
| 10> H -1.3958925512 1.9328092988 -0.2180137485
| 11> C 0.6635521915 1.3165849388 -0.5188965021
| 12> H 1.1069753652 2.3238203376 -0.4338872651
| 13> C 1.6558750943 0.2985745119 0.0747687468
| 14> H 2.505369235 0.1942534207 -0.6165814951
| 15> C 0.9873384614 -1.0833374156 0.197046067
| 16> H 1.6198803717 -1.7300098777 0.817669168
| 17> O -0.2164289676 -1.0227880845 0.913306526
| 18> O 0.8676719609 -1.7017571833 -1.0403221275
| 19> O 2.0844217727 0.680932139 1.3578225885
| 20> O 0.4700372083 0.982635296 -1.8766742033
| 21> O -0.4261847659 1.9539677742 1.5347601948
| 22> O -2.3298491372 -1.9591112046 -0.5890981387
| 23> H -1.4240419285 -0.4523507596 -1.6589189796
| 24> H -2.9367307503 -0.0574073008 -0.8096526757
| 25> H 0.6142980957 -1.0440585379 -1.7056308314
| 26> H 2.5836776726 1.50430223 1.2987234217
| 27> H -0.0753425818 1.657537137 -2.2960490896
| 28> H 0.1874053321 1.3998153188 2.0425935574
| 29> H -1.525582823 -2.4273147533 -0.3208081049
| 30> *
| 31>
| 32>                          ****END OF INPUT****

CARTESIAN COORDINATES (ANGSTROEM)
---------------------------------
  C     -1.996418   -0.609665   -0.733449
  C     -1.209823   -0.095960    0.493077
  H     -1.896646   -0.072830    1.348163
  C     -0.646089    1.323019    0.302292
  H     -1.395893    1.932809   -0.218014
  C      0.663552    1.316585   -0.518897
  H      1.106975    2.323820   -0.433887
  C      1.655875    0.298575    0.074769
  H      2.505369    0.194253   -0.616581
  C      0.987338   -1.083337    0.197046
  H      1.619880   -1.730010    0.817669
  O     -0.216429   -1.022788    0.913307
  O      0.867672   -1.701757   -1.040322
  O      2.084422    0.680932    1.357823
  O      0.470037    0.982635   -1.876674
  O     -0.426185    1.953968    1.534760
  O     -2.329849   -1.959111   -0.589098
  H     -1.424042   -0.452351   -1.658919
  H     -2.936731   -0.057407   -0.809653
  H      0.614298   -1.044059   -1.705631
  H      2.583678    1.504302    1.298723
  H     -0.075343    1.657537   -2.296049
  H      0.187405    1.399815    2.042594
  H     -1.525583   -2.427315   -0.320808

 Total Charge           Charge          ....    0
 Multiplicity           Mult            ....    1
 Number of Electrons    NEL             ....   96
 Basis Dimension        Dim             ....  192

ORBITAL ENERGIES
----------------

  NO   OCC          E(Eh)            E(eV)
   0   2.0000     -18.794861      -511.4342
   1   2.0000     -18.784758      -511.1593
   2   2.0000     -18.770770      -510.7786
   3   2.0000     -18.761635      -510.5300
   4   2.0000     -18.749638      -510.2036
   5   2.0000     -18.730402      -509.6801
   6   2.0000      -9.990483      -271.8549
   7   2.0000      -9.965666      -271.1796
   8   2.0000      -9.962461      -271.0924
   9   2.0000      -9.953762      -270.8556
  10   2.0000      -9.943085      -270.5651
  11   2.0000      -9.927375      -270.1376
  12   2.0000      -0.990957       -26.9653
  13   2.0000      -0.965919       -26.2840
  14   2.0000      -0.957345       -26.0507
  15   2.0000      -0.933929       -25.4135
  16   2.0000      -0.918818       -25.0023
  17   2.0000      -0.905266       -24.6335
  18   2.0000      -0.711676       -19.3657
  19   2.0000      -0.699391       -19.0314
  20   2.0000      -0.621382       -16.9087
  21   2.0000      -0.604524       -16.4499
  22   2.0000      -0.576519       -15.6879
  23   2.0000      -0.535051       -14.5595
  24   2.0000      -0.512189       -13.9374
  25   2.0000      -0.501115       -13.6360
  26   2.0000      -0.480969       -13.0878
  27   2.0000      -0.462239       -12.5782
  28   2.0000      -0.453863       -12.3502
  29   2.0000      -0.439885       -11.9699
  30   2.0000      -0.423347       -11.5199
  31   2.0000      -0.411342       -11.1932
  32   2.0000      -0.395423       -10.7600
  33   2.0000      -0.385601       -10.4927
  34   2.0000      -0.367838       -10.0094
  35   2.0000      -0.351247        -9.5579
  36   2.0000      -0.346304        -9.4234
  37   2.0000      -0.336372        -9.1531
  38   2.0000      -0.312537        -8.5046
  39   2.0000      -0.299130        -8.1397
  40   2.0000      -0.282412        -7.6848
  41   2.0000      -0.274418        -7.4673
  42   2.0000      -0.267251        -7.2723
  43   2.0000      -0.259510        -7.0616
  44   2.0000      -0.239546        -6.5184
  45   2.0000      -0.236197        -6.4272
  46   2.0000      -0.216839        -5.9005
  47   2.0000      -0.198501        -5.4015
  48   0.0000      -0.009067        -0.2467
  49   0.0000       0.002404         0.0654
  50   0.0000       0.050774         1.3816
  51   0.0000       0.055993         1.5236
  52   0.0000       0.064762         1.7623

MULLIKEN ATOMIC CHARGES
-----------------------
   0 C :    0.029469
   1 C :    0.016043
   2 H :    0.084999
   3 C :    0.075584
   4 H :    0.062418
   5 C :    0.005794
   6 H :    0.068728
   7 C :   -0.016028
   8 H :    0.092603
   9 C :    0.218682
  10 H :    0.081235
  11 O :   -0.314378
  12 O :   -0.407209
  13 O :   -0.406115
  14 O :   -0.412119
  15 O :   -0.427951
  16 O :   -0.434954
  17 H :    0.050268
  18 H :    0.080727
  19 H :    0.321335
  20 H :    0.310296
  21 H :    0.318441
  22 H :    0.302279
  23 H :    0.299855
Sum of atomic charges:    0.0000000

LOEWDIN ATOMIC CHARGES
----------------------
   0 C :   -0.149005
   1 C :   -0.077405
   2 H :    0.123881
   3 C :   -0.075029
   4 H :    0.112041
   5 C :   -0.084024
   6 H :    0.101195
   7 C :   -0.087989
   8 H :    0.113617
   9 C :   -0.000750
  10 H :    0.115461
  11 O :   -0.138719
  12 O :   -0.303444
  13 O :   -0.298830
  14 O :   -0.307666
  15 O :   -0.317579
  16 O :   -0.334828
  17 H :    0.082741
  18 H :    0.113771
  19 H :    0.276647
  20 H :    0.291791
  21 H :    0.296479
  22 H :    0.273552
  23 H :    0.274094

  Mayer bond orders larger than 0.100000
B(  0-C ,  1-C ) :   1.0372 B(  0-C , 16-O ) :   1.0895 B(  0-C , 17-H ) :   0.8922
B(  0-C , 18-H ) :   0.9121 B(  1-C ,  2-H ) :   0.8921 B(  1-C ,  3-C ) :   0.9904
B(  1-C , 11-O ) :   1.0078 B(  3-C ,  4-H ) :   0.8952 B(  3-C ,  5-C ) :   0.9462
B(  3-C , 15-O ) :   1.0514 B(  5-C ,  6-H ) :   0.9027 B(  5-C ,  7-C ) :   0.9883
B(  5-C , 14-O ) :   1.0294 B(  7-C ,  8-H ) :   0.8973 B(  7-C ,  9-C ) :   0.9990
B(  7-C , 13-O ) :   1.0486 B(  9-C , 10-H ) :   0.9042 B(  9-C , 11-O ) :   1.0421
B(  9-C , 12-O ) :   1.1272 B( 12-O , 19-H ) :   0.8010 B( 13-O , 20-H ) :   0.8376
B( 14-O , 21-H ) :   0.8333 B( 15-O , 22-H ) :   0.8165 B( 16-O , 23-H ) :   0.8281

Dispersion correction           -0.026371734
FINAL SINGLE POINT ENERGY      -685.697915922140

DIPOLE MOMENT
-------------

Method             : SCF
Type of density    : Electron Density
Multiplicity       :   1
Irrep              :   0
Energy             :  -685.8321492532841148 Eh
Relativity type    :
Basis              : AO
                                X                 Y                 Z
Electronic contribution:      1.521857878      -1.491403444       1.791242687
Nuclear contribution   :     -0.590606400       3.013151012      -2.390137659
                        -----------------------------------------
Total Dipole Moment    :      0.931251478       1.521747568      -0.598894971
                        -----------------------------------------
Magnitude (a.u.)       :      1.881919276
Magnitude (Debye)      :      4.783458652

Rotational constants in cm-1:             0.042119             0.028778             0.025513
Rotational constants in MHz :          1262.681443           862.749845           764.867039

                             ****ORCA TERMINATED NORMALLY****
TOTAL RUN TIME: 0 days 0 hours 26 minutes 51 seconds 158 msec
