                         Program Version 6.0.1  -  RELEASE   -
|  1> ! r2scan-3c def2/J RI DEFGRID2 scfconv6 printgap
|  2> %output
|  3>     printlevel normal
|  4> end
|  5> * xyz 0 1
|  6> C 3.2578380162 -0.5244411913 0.7743929127
|  7> C 1.900731529 -0.310997486 0.1891133775
|  8> C 1.3061444139 0.8866666217 0.1826487124
|  9> C -0.033501174 1.142609217 -0.3446395607
| 10> O -0.5172203569 2.2567450054 -0.3551444735
| 11> C -0.8041431395 -0.0646023509 -0.8516029657
| 12> H -1.4175715874 0.281703183 -1.6907232036
| 13> C 0.1487024577 -1.1339208304 -1.387873778
| 14> C 1.2343399356 -1.5206718795 -0.3902162103
| 15> C -1.7904256289 -0.566774955 0.237122673
| 16> C -1.2797521777 -0.3920791884 1.6678911236
| 17> C -3.1177539411 0.1774251351 0.096407032
| 18> H 3.2323710569 -1.3423524932 1.4940007814
| 19> H 3.6218563172 0.3720523559 1.2686321233
| 20> H 3.9623037134 -0.8018131951 -0.0100189519
| 21> H 1.8082667869 1.7524741125 0.593159241
| 22> H -0.4204257601 -2.0187792291 -1.682270044
| 23> H 0.6313033023 -0.7372659543 -2.2855348152
| 24> H 0.8065959446 -2.1159563731 0.4222113158
| 25> H 1.9818391872 -2.1501083789 -0.8803863502
| 26> H -1.9658693861 -1.6344947454 0.0576882664
| 27> H -1.996240905 -0.823652992 2.3645503436
| 28> H -1.1729418206 0.6639186919 1.9050643328
| 29> H -0.3208324219 -0.8757599057 1.8265935598
| 30> H -3.5792963036 -0.0275114492 -0.8672779625
| 31> H -2.9484439884 1.2486214148 0.1783762662
| 32> H -3.8103653698 -0.1249856408 0.8789810511
| 33> *
| 34>
| 35>                          ****END OF INPUT****

CARTESIAN COORDINATES (ANGSTROEM)
---------------------------------
  C      3.257838   -0.524441    0.774393
  C      1.900732   -0.310997    0.189113
  C      1.306144    0.886667    0.182649
  C     -0.033501    1.142609   -0.344640
  O     -0.517220    2.256745   -0.355144
  C     -0.804143   -0.064602   -0.851603
  H     -1.417572    0.281703   -1.690723
  C      0.148702   -1.133921   -1.387874
  C      1.234340   -1.520672   -0.390216
  C     -1.790426   -0.566775    0.237123
  C     -1.279752   -0.392079    1.667891
  C     -3.117754    0.177425    0.096407
  H      3.232371   -1.342352    1.494001
  H      3.621856    0.372052    1.268632
  H      3.962304   -0.801813   -0.010019
  H      1.808267    1.752474    0.593159
  H     -0.420426   -2.018779   -1.682270
  H      0.631303   -0.737266   -2.285535
  H      0.806596   -2.115956    0.422211
  H      1.981839   -2.150108   -0.880386
  H     -1.965869   -1.634495    0.057688
  H     -1.996241   -0.823653    2.364550
  H     -1.172942    0.663919    1.905064
  H     -0.320832   -0.875760    1.826594
  H     -3.579296   -0.027511   -0.867278
  H     -2.948444    1.248621    0.178376
  H     -3.810365   -0.124986    0.878981

 Total Charge           Charge          ....    0
 Multiplicity           Mult            ....    1
 Number of Electrons    NEL             ....   84
 Basis Dimension        Dim             ....  294

ORBITAL ENERGIES
----------------

  NO   OCC          E(Eh)            E(eV)
   0   2.0000     -18.923570      -514.9365
   1   2.0000     -10.104048      -274.9451
   2   2.0000     -10.067962      -273.9632
   3   2.0000     -10.047723      -273.4124
   4   2.0000     -10.041956      -273.2555
   5   2.0000     -10.041950      -273.2554
   6   2.0000     -10.038608      -273.1644
   7   2.0000     -10.035306      -273.0746
   8   2.0000     -10.029645      -272.9205
   9   2.0000     -10.016239      -272.5557
  10   2.0000     -10.010843      -272.4089
  11   2.0000      -0.993333       -27.0300
  12   2.0000      -0.824206       -22.4278
  13   2.0000      -0.778461       -21.1830
  14   2.0000      -0.730218       -19.8702
  15   2.0000      -0.698158       -18.9979
  16   2.0000      -0.666808       -18.1448
  17   2.0000      -0.647136       -17.6095
  18   2.0000      -0.587076       -15.9751
  19   2.0000      -0.557153       -15.1609
  20   2.0000      -0.534322       -14.5396
  21   2.0000      -0.473187       -12.8761
  22   2.0000      -0.454607       -12.3705
  23   2.0000      -0.444992       -12.1088
  24   2.0000      -0.423854       -11.5337
  25   2.0000      -0.417814       -11.3693
  26   2.0000      -0.404196       -10.9987
  27   2.0000      -0.394371       -10.7314
  28   2.0000      -0.385112       -10.4794
  29   2.0000      -0.375698       -10.2233
  30   2.0000      -0.365680        -9.9507
  31   2.0000      -0.358999        -9.7689
  32   2.0000      -0.351146        -9.5552
  33   2.0000      -0.346812        -9.4372
  34   2.0000      -0.341690        -9.2979
  35   2.0000      -0.317701        -8.6451
  36   2.0000      -0.310142        -8.4394
  37   2.0000      -0.303167        -8.2496
  38   2.0000      -0.288062        -7.8386
  39   2.0000      -0.282124        -7.6770
  40   2.0000      -0.243279        -6.6199
  41   2.0000      -0.200774        -5.4633
  42   0.0000      -0.075691        -2.0597
  43   0.0000       0.034627         0.9423
  44   0.0000       0.064359         1.7513
  45   0.0000       0.092916         2.5284
  46   0.0000       0.098190         2.6719

MULLIKEN ATOMIC CHARGES
-----------------------
   0 C :   -0.515930
   1 C :    0.179558
   2 C :   -0.244458
   3 C :    0.135565
   4 O :   -0.334490
   5 C :   -0.037573
   6 H :    0.182171
   7 C :   -0.380409
   8 C :   -0.316234
   9 C :   -0.064171
  10 C :   -0.515860
  11 C :   -0.531992
  12 H :    0.157149
  13 H :    0.160390
  14 H :    0.168209
  15 H :    0.168832
  16 H :    0.163456
  17 H :    0.170561
  18 H :    0.183420
  19 H :    0.160566
  20 H :    0.157206
  21 H :    0.148358
  22 H :    0.176364
  23 H :    0.151287
  24 H :    0.143848
  25 H :    0.193229
  26 H :    0.140948
Sum of atomic charges:   -0.0000000

LOEWDIN ATOMIC CHARGES
----------------------
   0 C :   -0.386377
   1 C :   -0.070181
   2 C :   -0.168951
   3 C :    0.222483
   4 O :   -0.467880
   5 C :   -0.191328
   6 H :    0.185838
   7 C :   -0.272908
   8 C :   -0.280426
   9 C :   -0.214189
  10 C :   -0.402300
  11 C :   -0.409732
  12 H :    0.167479
  13 H :    0.163112
  14 H :    0.169000
  15 H :    0.182766
  16 H :    0.160080
  17 H :    0.165240
  18 H :    0.174022
  19 H :    0.167561
  20 H :    0.157175
  21 H :    0.154141
  22 H :    0.166323
  23 H :    0.154962
  24 H :    0.152224
  25 H :    0.170794
  26 H :    0.151074

  Mayer bond orders larger than 0.100000
B(  0-C ,  1-C ) :   0.8424 B(  0-C , 12-H ) :   0.9615 B(  0-C , 13-H ) :   0.9930
B(  0-C , 14-H ) :   0.9671 B(  1-C ,  2-C ) :   1.6627 B(  1-C ,  8-C ) :   0.8664
B(  2-C ,  3-C ) :   1.0684 B(  2-C , 15-H ) :   0.9357 B(  3-C ,  4-O ) :   1.9636
B(  3-C ,  5-C ) :   0.8883 B(  5-C ,  6-H ) :   0.9856 B(  5-C ,  7-C ) :   0.8530
B(  5-C ,  9-C ) :   0.8195 B(  7-C ,  8-C ) :   0.8914 B(  7-C , 16-H ) :   1.0008
B(  7-C , 17-H ) :   1.0059 B(  8-C , 18-H ) :   0.9634 B(  8-C , 19-H ) :   0.9673
B(  9-C , 10-C ) :   0.8958 B(  9-C , 11-C ) :   0.9197 B(  9-C , 20-H ) :   0.9764
B( 10-C , 21-H ) :   0.9677 B( 10-C , 22-H ) :   0.9694 B( 10-C , 23-H ) :   0.9687
B( 11-C , 24-H ) :   0.9743 B( 11-C , 25-H ) :   0.9730 B( 11-C , 26-H ) :   0.9778

Dispersion correction           -0.010017705
FINAL SINGLE POINT ENERGY      -465.790791053713

DIPOLE MOMENT
-------------

Method             : SCF
Type of density    : Electron Density
Multiplicity       :   1
Irrep              :   0
Energy             :  -465.7922844227092583 Eh
Relativity type    :
Basis              : AO
                                X                 Y                 Z
Electronic contribution:      2.236315254       6.315447813      -3.230314314
Nuclear contribution   :     -1.496963388      -7.785131355       3.346845824
                        -----------------------------------------
Total Dipole Moment    :      0.739351867      -1.469683543       0.116531511
                        -----------------------------------------
Magnitude (a.u.)       :      1.649300000
Magnitude (Debye)      :      4.192187443

Rotational constants in cm-1:             0.058760             0.027572             0.024823
Rotational constants in MHz :          1761.594945           826.593018           744.160485

                             ****ORCA TERMINATED NORMALLY****
TOTAL RUN TIME: 0 days 0 hours 1 minutes 9 seconds 282 msec
