                         Program Version 6.0.1  -  RELEASE   -
|  1> ! r2scan-3c def2/J RI DEFGRID2 scfconv6 printgap
|  2> %output
|  3>     printlevel normal
|  4> end
|  5> * xyz 0 1
|  6> C 1.8572800121 0.1685590533 0.1926034557
|  7> C 0.7100165521 -0.1171743961 -0.3926345009
|  8> C -0.560866842 -0.4268492278 0.3424032861
|  9> O -1.669770584 0.2851847545 -0.16542497
| 10> H 2.7489928639 0.3807324573 -0.3719933067
| 11> H 1.955936446 0.1863874403 1.2660403755
| 12> H 0.6195631987 -0.1292290797 -1.47072469
| 13> H -0.4347844856 -0.2354968162 1.4179609655
| 14> H -0.8162641189 -1.4832838105 0.2067218609
| 15> H -1.4778490168 1.2282258511 -0.1186795968
| 16> *
| 17>
| 18>                          ****END OF INPUT****

CARTESIAN COORDINATES (ANGSTROEM)
---------------------------------
  C      1.857280    0.168559    0.192603
  C      0.710017   -0.117174   -0.392635
  C     -0.560867   -0.426849    0.342403
  O     -1.669771    0.285185   -0.165425
  H      2.748993    0.380732   -0.371993
  H      1.955936    0.186387    1.266040
  H      0.619563   -0.129229   -1.470725
  H     -0.434784   -0.235497    1.417961
  H     -0.816264   -1.483284    0.206722
  H     -1.477849    1.228226   -0.118680

 Total Charge           Charge          ....    0
 Multiplicity           Mult            ....    1
 Number of Electrons    NEL             ....   32
 Basis Dimension        Dim             ....  111

ORBITAL ENERGIES
----------------

  NO   OCC          E(Eh)            E(eV)
   0   2.0000     -18.952514      -515.7241
   1   2.0000     -10.082783      -274.3665
   2   2.0000     -10.039309      -273.1835
   3   2.0000     -10.031902      -272.9819
   4   2.0000      -0.990704       -26.9584
   5   2.0000      -0.756546       -20.5867
   6   2.0000      -0.647509       -17.6196
   7   2.0000      -0.541192       -14.7266
   8   2.0000      -0.487236       -13.2584
   9   2.0000      -0.417384       -11.3576
  10   2.0000      -0.415076       -11.2948
  11   2.0000      -0.404572       -11.0090
  12   2.0000      -0.337588        -9.1862
  13   2.0000      -0.300554        -8.1785
  14   2.0000      -0.261092        -7.1047
  15   2.0000      -0.239199        -6.5089
  16   0.0000      -0.028270        -0.7693
  17   0.0000       0.073478         1.9994
  18   0.0000       0.106135         2.8881
  19   0.0000       0.132483         3.6051
  20   0.0000       0.139504         3.7961

MULLIKEN ATOMIC CHARGES
-----------------------
   0 C :   -0.341803
   1 C :   -0.105739
   2 C :   -0.159417
   3 O :   -0.418009
   4 H :    0.144511
   5 H :    0.142291
   6 H :    0.166084
   7 H :    0.133194
   8 H :    0.141439
   9 H :    0.297450
Sum of atomic charges:    0.0000000

LOEWDIN ATOMIC CHARGES
----------------------
   0 C :   -0.302842
   1 C :   -0.188633
   2 C :    0.008122
   3 O :   -0.607613
   4 H :    0.158556
   5 H :    0.156517
   6 H :    0.167460
   7 H :    0.159791
   8 H :    0.183399
   9 H :    0.265242

  Mayer bond orders larger than 0.100000
B(  0-C ,  1-C ) :   1.8913 B(  0-C ,  4-H ) :   0.9547 B(  0-C ,  5-H ) :   0.9823
B(  1-C ,  2-C ) :   0.9493 B(  1-C ,  6-H ) :   0.9302 B(  2-C ,  3-O ) :   0.9323
B(  2-C ,  7-H ) :   1.0038 B(  2-C ,  8-H ) :   0.9525 B(  3-O ,  9-H ) :   0.8975

Dispersion correction           -0.001716008
FINAL SINGLE POINT ENERGY      -193.068209912789

DIPOLE MOMENT
-------------

Method             : SCF
Type of density    : Electron Density
Multiplicity       :   1
Irrep              :   0
Energy             :  -193.0713743531138675 Eh
Relativity type    :
Basis              : AO
                                X                 Y                 Z
Electronic contribution:     -1.941874841       0.286814651      -0.692326608
Nuclear contribution   :      2.410341050      -0.045178804       0.869409389
                        -----------------------------------------
Total Dipole Moment    :      0.468466209       0.241635847       0.177082781
                        -----------------------------------------
Magnitude (a.u.)       :      0.556063649
Magnitude (Debye)      :      1.413401472

Rotational constants in cm-1:             0.934069             0.143310             0.137932
Rotational constants in MHz :         28002.669987          4296.324284          4135.108088

                             ****ORCA TERMINATED NORMALLY****
TOTAL RUN TIME: 0 days 0 hours 0 minutes 22 seconds 794 msec
