                         Program Version 6.0.1  -  RELEASE   -
|  1> ! pbe def2-sv(p) def2/J RI DEFGRID1 loosescf d4 GCP(DFT/SV(P)) printgap
|  2> %output
|  3>     printlevel normal
|  4> end
|  5> * xyz 0 1
|  6> C -2.8852411268 -0.0640318124 0.0012120564
|  7> C -1.3901139956 -0.005542769 -0.0003192413
|  8> C -0.7139176941 1.2121497429 -0.0005500464
|  9> C 0.6668893922 1.2247172718 -0.0005961194
| 10> C 1.3533165606 0.0112191292 -0.0002332593
| 11> N 0.7138500118 -1.1487333386 -0.000612658
| 12> C -0.6075708686 -1.152563114 -0.0007305997
| 13> C 2.8496031712 -0.0376078869 0.0011918372
| 14> H -3.2316828706 -1.0943473402 -0.0094913095
| 15> H -3.2825963036 0.4289527072 0.887942887
| 16> H -3.2858361501 0.4489083724 -0.8725380201
| 17> H -1.2714246614 2.139102775 -0.0007389504
| 18> H 1.2125804964 2.1567738733 -0.000873135
| 19> H -1.0655819971 -2.1344597871 -0.0012005029
| 20> H 3.2435083009 0.4574070123 0.8875156355
| 21> H 3.1782659515 -1.0723905681 -0.006742165
| 22> H 3.246421518 0.4726174638 -0.8750580242
| 23> *
| 24>
| 25>                          ****END OF INPUT****

CARTESIAN COORDINATES (ANGSTROEM)
---------------------------------
  C     -2.885241   -0.064032    0.001212
  C     -1.390114   -0.005543   -0.000319
  C     -0.713918    1.212150   -0.000550
  C      0.666889    1.224717   -0.000596
  C      1.353317    0.011219   -0.000233
  N      0.713850   -1.148733   -0.000613
  C     -0.607571   -1.152563   -0.000731
  C      2.849603   -0.037608    0.001192
  H     -3.231683   -1.094347   -0.009491
  H     -3.282596    0.428953    0.887943
  H     -3.285836    0.448908   -0.872538
  H     -1.271425    2.139103   -0.000739
  H      1.212580    2.156774   -0.000873
  H     -1.065582   -2.134460   -0.001201
  H      3.243508    0.457407    0.887516
  H      3.178266   -1.072391   -0.006742
  H      3.246422    0.472617   -0.875058

 Total Charge           Charge          ....    0
 Multiplicity           Mult            ....    1
 Number of Electrons    NEL             ....   58
 Basis Dimension        Dim             ....  130

ORBITAL ENERGIES
----------------

  NO   OCC          E(Eh)            E(eV)
   0   2.0000     -13.974308      -380.2603
   1   2.0000      -9.925553      -270.0880
   2   2.0000      -9.912583      -269.7351
   3   2.0000      -9.905978      -269.5554
   4   2.0000      -9.901279      -269.4275
   5   2.0000      -9.893589      -269.2182
   6   2.0000      -9.889872      -269.1171
   7   2.0000      -9.875641      -268.7299
   8   2.0000      -0.854525       -23.2528
   9   2.0000      -0.733629       -19.9630
  10   2.0000      -0.704931       -19.1821
  11   2.0000      -0.655246       -17.8301
  12   2.0000      -0.596484       -16.2311
  13   2.0000      -0.562479       -15.3058
  14   2.0000      -0.529399       -14.4057
  15   2.0000      -0.451488       -12.2856
  16   2.0000      -0.440418       -11.9844
  17   2.0000      -0.399645       -10.8749
  18   2.0000      -0.392031       -10.6677
  19   2.0000      -0.376640       -10.2489
  20   2.0000      -0.365308        -9.9405
  21   2.0000      -0.358286        -9.7495
  22   2.0000      -0.343591        -9.3496
  23   2.0000      -0.328137        -8.9291
  24   2.0000      -0.328003        -8.9254
  25   2.0000      -0.310025        -8.4362
  26   2.0000      -0.254047        -6.9130
  27   2.0000      -0.219978        -5.9859
  28   2.0000      -0.198237        -5.3943
  29   0.0000      -0.048931        -1.3315
  30   0.0000      -0.037001        -1.0068
  31   0.0000       0.047335         1.2881
  32   0.0000       0.058120         1.5815
  33   0.0000       0.076776         2.0892

MULLIKEN ATOMIC CHARGES
-----------------------
   0 C :   -0.222518
   1 C :   -0.015776
   2 C :   -0.049892
   3 C :   -0.083454
   4 C :   -0.088142
   5 N :   -0.046521
   6 C :   -0.103979
   7 C :   -0.204359
   8 H :    0.107129
   9 H :    0.117349
  10 H :    0.116941
  11 H :    0.047627
  12 H :    0.044308
  13 H :    0.051351
  14 H :    0.111443
  15 H :    0.107409
  16 H :    0.111085
Sum of atomic charges:    0.0000000

LOEWDIN ATOMIC CHARGES
----------------------
   0 C :   -0.322867
   1 C :   -0.073570
   2 C :   -0.097431
   3 C :   -0.135933
   4 C :   -0.020637
   5 N :   -0.073686
   6 C :   -0.086742
   7 C :   -0.335787
   8 H :    0.126989
   9 H :    0.133018
  10 H :    0.132797
  11 H :    0.123602
  12 H :    0.124731
  13 H :    0.110896
  14 H :    0.131799
  15 H :    0.131259
  16 H :    0.131564

  Mayer bond orders larger than 0.100000
B(  0-C ,  1-C ) :   1.0982 B(  0-C ,  8-H ) :   0.9438 B(  0-C ,  9-H ) :   0.9355
B(  0-C , 10-H ) :   0.9358 B(  1-C ,  2-C ) :   1.3969 B(  1-C ,  6-C ) :   1.3808
B(  2-C ,  3-C ) :   1.4246 B(  2-C , 11-H ) :   0.9591 B(  3-C ,  4-C ) :   1.3484
B(  3-C , 12-H ) :   0.9496 B(  4-C ,  5-N ) :   1.5818 B(  4-C ,  7-C ) :   1.0964
B(  5-N ,  6-C ) :   1.5347 B(  6-C , 13-H ) :   0.9483 B(  7-C , 14-H ) :   0.9363
B(  7-C , 15-H ) :   0.9373 B(  7-C , 16-H ) :   0.9366

Dispersion correction           -0.016174023
FINAL SINGLE POINT ENERGY      -326.184972878164

DIPOLE MOMENT
-------------

Method             : SCF
Type of density    : Electron Density
Multiplicity       :   1
Irrep              :   0
Energy             :  -326.2333777845977920 Eh
Relativity type    :
Basis              : AO
                                X                 Y                 Z
Electronic contribution:      0.775921446      -0.999120495      -0.006266509
Nuclear contribution   :     -1.174749977       1.684810794       0.008267924
                        -----------------------------------------
Total Dipole Moment    :     -0.398828531       0.685690299       0.002001415
                        -----------------------------------------
Magnitude (a.u.)       :      0.793246109
Magnitude (Debye)      :      2.016271372

Rotational constants in cm-1:             0.186513             0.050048             0.040046
Rotational constants in MHz :          5591.506333          1500.404618          1200.552292

                             ****ORCA TERMINATED NORMALLY****
TOTAL RUN TIME: 0 days 0 hours 0 minutes 9 seconds 454 msec
