                         Program Version 6.0.0  -   RELEASE  -
|  1> ! r2SCAN-3c DEF2-TZVP FREQ
|  2> * xyzfile 0 1 censo.xyz
|  3>
|  4>                          ****END OF INPUT****

CARTESIAN COORDINATES (ANGSTROEM)
---------------------------------
  C     -2.525241    0.738222   -0.002826
  C     -1.223765   -0.012309   -0.001021
  C     -1.200692   -1.406692   -0.003759
  C      0.000041   -2.112329   -0.004699
  C      1.200748   -1.406646   -0.003736
  C      1.223767   -0.012263   -0.000997
  C     -0.000013    0.690846   -0.000819
  N     -0.000038    2.083250   -0.064917
  C      2.525214    0.738320   -0.002767
  H     -3.368142    0.043666   -0.023290
  H     -2.633335    1.368867    0.889454
  H     -2.610408    1.400477   -0.873394
  H     -2.145997   -1.943409   -0.004055
  H      0.000062   -3.197694   -0.007131
  H      2.146073   -1.943327   -0.004013
  H     -0.834967    2.525484    0.291137
  H      0.834864    2.525516    0.291156
  H      3.368141    0.043798   -0.023291
  H      2.610345    1.400639   -0.873288
  H      2.633293    1.368905    0.889557

 Total Charge           Charge          ....    0
 Multiplicity           Mult            ....    1
 Number of Electrons    NEL             ....   66
 Basis Dimension        Dim             ....  345

ORBITAL ENERGIES
----------------

  NO   OCC          E(Eh)            E(eV)
   0   2.0000     -14.167278      -385.5112
   1   2.0000     -10.064552      -273.8704
   2   2.0000     -10.032357      -272.9943
   3   2.0000     -10.032345      -272.9940
   4   2.0000     -10.031232      -272.9637
   5   2.0000     -10.031232      -272.9637
   6   2.0000     -10.022110      -272.7155
   7   2.0000     -10.022100      -272.7152
   8   2.0000     -10.016404      -272.5602
   9   2.0000      -0.887605       -24.1530
  10   2.0000      -0.798991       -21.7417
  11   2.0000      -0.746442       -20.3117
  12   2.0000      -0.706618       -19.2280
  13   2.0000      -0.652310       -17.7503
  14   2.0000      -0.641836       -17.4652
  15   2.0000      -0.552619       -15.0375
  16   2.0000      -0.546347       -14.8668
  17   2.0000      -0.480563       -13.0768
  18   2.0000      -0.478119       -13.0103
  19   2.0000      -0.423602       -11.5268
  20   2.0000      -0.405292       -11.0285
  21   2.0000      -0.399714       -10.8768
  22   2.0000      -0.384293       -10.4571
  23   2.0000      -0.383221       -10.4280
  24   2.0000      -0.373214       -10.1557
  25   2.0000      -0.365313        -9.9407
  26   2.0000      -0.341317        -9.2877
  27   2.0000      -0.326322        -8.8797
  28   2.0000      -0.307560        -8.3691
  29   2.0000      -0.299782        -8.1575
  30   2.0000      -0.283379        -7.7111
  31   2.0000      -0.213949        -5.8218
  32   2.0000      -0.180687        -4.9167
  33   0.0000      -0.017995        -0.4897
  34   0.0000      -0.008445        -0.2298
  35   0.0000       0.029041         0.7902
  36   0.0000       0.060393         1.6434
  37   0.0000       0.069615         1.8943

MULLIKEN ATOMIC CHARGES
-----------------------
   0 C :   -0.411980
   1 C :    0.051780
   2 C :   -0.145527
   3 C :   -0.150800
   4 C :   -0.145552
   5 C :    0.051810
   6 C :    0.163071
   7 N :   -0.429556
   8 C :   -0.411962
   9 H :    0.111457
  10 H :    0.107682
  11 H :    0.132361
  12 H :    0.088625
  13 H :    0.097204
  14 H :    0.088630
  15 H :    0.225628
  16 H :    0.225628
  17 H :    0.111457
  18 H :    0.132359
  19 H :    0.107686
Sum of atomic charges:    0.0000000

LOEWDIN ATOMIC CHARGES
----------------------
   0 C :   -0.263802
   1 C :   -0.163855
   2 C :   -0.130765
   3 C :   -0.166607
   4 C :   -0.130765
   5 C :   -0.163854
   6 C :   -0.189430
   7 N :   -0.033779
   8 C :   -0.263802
   9 H :    0.128612
  10 H :    0.121917
  11 H :    0.128033
  12 H :    0.142361
  13 H :    0.139352
  14 H :    0.142361
  15 H :    0.162730
  16 H :    0.162730
  17 H :    0.128612
  18 H :    0.128032
  19 H :    0.121919

  Mayer bond orders larger than 0.100000
B(  0-C ,  1-C ) :   0.8915 B(  0-C ,  9-H ) :   0.9765 B(  0-C , 10-H ) :   0.9690
B(  0-C , 11-H ) :   0.9740 B(  1-C ,  2-C ) :   1.3781 B(  1-C ,  6-C ) :   1.3192
B(  2-C ,  3-C ) :   1.3969 B(  2-C , 12-H ) :   0.9774 B(  3-C ,  4-C ) :   1.3969
B(  3-C , 13-H ) :   0.9857 B(  4-C ,  5-C ) :   1.3781 B(  4-C , 14-H ) :   0.9774
B(  5-C ,  6-C ) :   1.3193 B(  5-C ,  8-C ) :   0.8915 B(  6-C ,  7-N ) :   1.0574
B(  7-N , 15-H ) :   0.9179 B(  7-N , 16-H ) :   0.9179 B(  8-C , 17-H ) :   0.9765
B(  8-C , 18-H ) :   0.9740 B(  8-C , 19-H ) :   0.9690

Dispersion correction           -0.006755799
FINAL SINGLE POINT ENERGY      -366.163695918767

DIPOLE MOMENT
-------------

Method             : SCF
Type of density    : Electron Density
Multiplicity       :   1
Irrep              :   0
Energy             :  -366.1662165846023527 Eh
Relativity type    :
Basis              : AO
                                X                 Y                 Z
Electronic contribution:      0.000058930      -2.785872163      -0.226462964
Nuclear contribution   :     -0.000075424       3.435354848       0.569408062
                        -----------------------------------------
Total Dipole Moment    :     -0.000016494       0.649482685       0.342945098
                        -----------------------------------------
Magnitude (a.u.)       :      0.734465179
Magnitude (Debye)      :      1.866862122

VIBRATIONAL FREQUENCIES
-----------------------

Scaling factor for frequencies =  1.000000000  (already applied!)

     0:       0.00 cm**-1
     1:       0.00 cm**-1
     2:       0.00 cm**-1
     3:       0.00 cm**-1
     4:       0.00 cm**-1
     5:       0.00 cm**-1
     6:     131.41 cm**-1
     7:     207.70 cm**-1
     8:     218.12 cm**-1
     9:     234.25 cm**-1
    10:     282.00 cm**-1
    11:     305.00 cm**-1
    12:     339.36 cm**-1
    13:     399.59 cm**-1
    14:     484.65 cm**-1
    15:     497.79 cm**-1
    16:     508.73 cm**-1
    17:     551.78 cm**-1
    18:     554.33 cm**-1
    19:     636.89 cm**-1
    20:     683.18 cm**-1
    21:     748.80 cm**-1
    22:     759.30 cm**-1
    23:     852.59 cm**-1
    24:     884.69 cm**-1
    25:     903.74 cm**-1
    26:     919.38 cm**-1
    27:    1005.37 cm**-1
    28:    1026.36 cm**-1
    29:    1045.32 cm**-1
    30:    1049.95 cm**-1
    31:    1113.46 cm**-1
    32:    1165.34 cm**-1
    33:    1185.37 cm**-1
    34:    1257.27 cm**-1
    35:    1298.44 cm**-1
    36:    1301.47 cm**-1
    37:    1355.59 cm**-1
    38:    1399.09 cm**-1
    39:    1399.28 cm**-1
    40:    1460.40 cm**-1
    41:    1476.74 cm**-1
    42:    1477.92 cm**-1
    43:    1481.92 cm**-1
    44:    1509.84 cm**-1
    45:    1513.53 cm**-1
    46:    1621.43 cm**-1
    47:    1626.02 cm**-1
    48:    1665.02 cm**-1
    49:    2985.27 cm**-1
    50:    2986.28 cm**-1
    51:    3038.57 cm**-1
    52:    3038.64 cm**-1
    53:    3100.34 cm**-1
    54:    3100.62 cm**-1
    55:    3144.04 cm**-1
    56:    3148.91 cm**-1
    57:    3173.96 cm**-1
    58:    3534.90 cm**-1
    59:    3636.65 cm**-1

IR SPECTRUM
-----------

 Mode   freq       eps      Int      T**2         TX        TY        TZ
       cm**-1   L/(mol*cm) km/mol    a.u.
----------------------------------------------------------------------------
  6:    131.41   0.000063    0.32  0.000149  ( 0.000001 -0.007595 -0.009550)
  7:    207.70   0.000064    0.32  0.000096  ( 0.009822  0.000002  0.000004)
  8:    218.12   0.000525    2.65  0.000751  (-0.000001 -0.005366  0.026870)
  9:    234.25   0.000268    1.35  0.000357  ( 0.018895  0.000002 -0.000001)
 10:    282.00   0.001978   10.00  0.002189  (-0.000000  0.016198 -0.043897)
 11:    305.00   0.000034    0.17  0.000035  (-0.000003  0.005494  0.002100)
 12:    339.36   0.000342    1.73  0.000315  (-0.017738 -0.000001 -0.000000)
 13:    399.59   0.004159   21.02  0.003248  (-0.056989 -0.000001 -0.000000)
 14:    484.65   0.000001    0.00  0.000001  ( 0.000740 -0.000000  0.000000)
 15:    497.79   0.000451    2.28  0.000282  ( 0.000000  0.015169 -0.007237)
 16:    508.73   0.000092    0.46  0.000056  (-0.007503  0.000001 -0.000000)
 17:    551.78   0.004289   21.67  0.002426  ( 0.000001 -0.039776  0.029042)
 18:    554.33   0.000390    1.97  0.000219  ( 0.014814  0.000001 -0.000000)
 19:    636.89   0.041487  209.66  0.020328  ( 0.000001 -0.120100  0.076837)
 20:    683.18   0.001129    5.70  0.000515  (-0.000000  0.019582 -0.011491)
 21:    748.80   0.008785   44.40  0.003661  (-0.000000 -0.022851  0.056028)
 22:    759.30   0.004826   24.39  0.001984  ( 0.000000 -0.008017 -0.043810)
 23:    852.59   0.000278    1.41  0.000102  (-0.000000  0.002781  0.009701)
 24:    884.69   0.000002    0.01  0.000001  ( 0.000907  0.000000 -0.000000)
 25:    903.74   0.000491    2.48  0.000169  ( 0.013015  0.000000  0.000000)
 26:    919.38   0.000330    1.67  0.000112  (-0.000000 -0.001410  0.010485)
 27:   1005.37   0.000590    2.98  0.000183  (-0.000000  0.013537  0.000140)
 28:   1026.36   0.001605    8.11  0.000488  ( 0.022092  0.000001 -0.000000)
 29:   1045.32   0.000297    1.50  0.000089  ( 0.000003 -0.000561  0.009394)
 30:   1049.95   0.000010    0.05  0.000003  ( 0.001737  0.000001  0.000001)
 31:   1113.46   0.003480   17.59  0.000975  (-0.000001  0.031229  0.000414)
 32:   1165.34   0.000753    3.80  0.000202  ( 0.014199  0.000001  0.000000)
 33:   1185.37   0.000222    1.12  0.000058  ( 0.007646  0.000000  0.000000)
 34:   1257.27   0.000181    0.91  0.000045  (-0.000000  0.006651 -0.000798)
 35:   1298.44   0.000262    1.32  0.000063  ( 0.007938  0.000002 -0.000000)
 36:   1301.47   0.006798   34.35  0.001630  (-0.000001  0.040372 -0.000162)
 37:   1355.59   0.000833    4.21  0.000192  (-0.013844  0.000000 -0.000000)
 38:   1399.09   0.000454    2.30  0.000101  ( 0.010065  0.000010 -0.000000)
 39:   1399.28   0.000226    1.14  0.000050  (-0.000015  0.007076 -0.000591)
 40:   1460.40   0.004917   24.85  0.001051  (-0.000001  0.032412  0.000297)
 41:   1476.74   0.003431   17.34  0.000725  (-0.000002 -0.000809 -0.026915)
 42:   1477.92   0.000010    0.05  0.000002  (-0.001429  0.000003  0.000005)
 43:   1481.92   0.000427    2.16  0.000090  (-0.009481 -0.000002  0.000006)
 44:   1509.84   0.011789   59.58  0.002437  (-0.000000  0.049357 -0.000686)
 45:   1513.53   0.002238   11.31  0.000462  ( 0.021483 -0.000002 -0.000000)
 46:   1621.43   0.000025    0.13  0.000005  (-0.002207  0.000000 -0.000000)
 47:   1626.02   0.001211    6.12  0.000233  (-0.000000  0.014170 -0.005631)
 48:   1665.02   0.018271   92.33  0.003424  ( 0.000001 -0.055840 -0.017499)
 49:   2985.27   0.010507   53.10  0.001098  ( 0.033141  0.000017  0.000006)
 50:   2986.28   0.007017   35.46  0.000733  ( 0.000021 -0.026123 -0.007131)
 51:   3038.57   0.000225    1.14  0.000023  (-0.004805 -0.000009 -0.000238)
 52:   3038.64   0.008307   41.98  0.000853  ( 0.000041 -0.000845 -0.029195)
 53:   3100.34   0.002952   14.92  0.000297  (-0.017238 -0.000016  0.000000)
 54:   3100.62   0.002434   12.30  0.000245  ( 0.000017 -0.015652  0.000059)
 55:   3144.04   0.000222    1.12  0.000022  ( 0.000002  0.004691  0.000065)
 56:   3148.91   0.005319   26.88  0.000527  ( 0.022960  0.000000  0.000000)
 57:   3173.96   0.003691   18.65  0.000363  (-0.000000  0.019049  0.000090)
 58:   3534.90   0.001395    7.05  0.000123  ( 0.000001 -0.010415 -0.003827)
 59:   3636.65   0.003253   16.44  0.000279  ( 0.016708  0.000001  0.000000)

--------------------------
THERMOCHEMISTRY AT 298.15K
--------------------------

Temperature         ...   298.15 K
Pressure            ...     1.00 atm
Total Mass          ...   121.18 AMU
Quasi RRHO          ...     True
Cut-Off Frequency   ...     1.00 cm^-1

Throughout the following assumptions are being made:
  (1) The electronic state is orbitally nondegenerate
  (2) There are no thermally accessible electronically excited states
  (3) Hindered rotations indicated by low frequency modes are not
      treated as such but are treated as vibrations and this may
      cause some error
  (4) All equations used are the standard statistical mechanics
      equations for an ideal gas
  (5) All vibrations are strictly harmonic

freq.     131.41  E(vib)   ...       0.42
freq.     207.70  E(vib)   ...       0.34
freq.     218.12  E(vib)   ...       0.33
freq.     234.25  E(vib)   ...       0.32
freq.     282.00  E(vib)   ...       0.28
freq.     305.00  E(vib)   ...       0.26
freq.     339.36  E(vib)   ...       0.23
freq.     399.59  E(vib)   ...       0.19
freq.     484.65  E(vib)   ...       0.15
freq.     497.79  E(vib)   ...       0.14
freq.     508.73  E(vib)   ...       0.14
freq.     551.78  E(vib)   ...       0.12
freq.     554.33  E(vib)   ...       0.12
freq.     636.89  E(vib)   ...       0.09
freq.     683.18  E(vib)   ...       0.08
freq.     748.80  E(vib)   ...       0.06
freq.     759.30  E(vib)   ...       0.06
freq.     852.59  E(vib)   ...       0.04
freq.     884.69  E(vib)   ...       0.04
freq.     903.74  E(vib)   ...       0.03
freq.     919.38  E(vib)   ...       0.03
freq.    1005.37  E(vib)   ...       0.02
freq.    1026.36  E(vib)   ...       0.02
freq.    1045.32  E(vib)   ...       0.02
freq.    1049.95  E(vib)   ...       0.02
freq.    1113.46  E(vib)   ...       0.01
freq.    1165.34  E(vib)   ...       0.01
freq.    1185.37  E(vib)   ...       0.01
freq.    1257.27  E(vib)   ...       0.01
freq.    1298.44  E(vib)   ...       0.01
freq.    1301.47  E(vib)   ...       0.01
freq.    1355.59  E(vib)   ...       0.01
freq.    1399.09  E(vib)   ...       0.00
freq.    1399.28  E(vib)   ...       0.00
freq.    1460.40  E(vib)   ...       0.00
freq.    1476.74  E(vib)   ...       0.00
freq.    1477.92  E(vib)   ...       0.00
freq.    1481.92  E(vib)   ...       0.00
freq.    1509.84  E(vib)   ...       0.00
freq.    1513.53  E(vib)   ...       0.00
freq.    1621.43  E(vib)   ...       0.00
freq.    1626.02  E(vib)   ...       0.00
freq.    1665.02  E(vib)   ...       0.00
freq.    2985.27  E(vib)   ...       0.00
freq.    2986.28  E(vib)   ...       0.00
freq.    3038.57  E(vib)   ...       0.00
freq.    3038.64  E(vib)   ...       0.00
freq.    3100.34  E(vib)   ...       0.00
freq.    3100.62  E(vib)   ...       0.00
freq.    3144.04  E(vib)   ...       0.00
freq.    3148.91  E(vib)   ...       0.00
freq.    3173.96  E(vib)   ...       0.00
freq.    3534.90  E(vib)   ...       0.00
freq.    3636.65  E(vib)   ...       0.00

------------
INNER ENERGY
------------

The inner energy is: U= E(el) + E(ZPE) + E(vib) + E(rot) + E(trans)
    E(el)   - is the total energy from the electronic structure calculation
              = E(kin-el) + E(nuc-el) + E(el-el) + E(nuc-nuc)
    E(ZPE)  - the the zero temperature vibrational energy from the frequency calculation
    E(vib)  - the the finite temperature correction to E(ZPE) due to population
              of excited vibrational states
    E(rot)  - is the rotational thermal energy
    E(trans)- is the translational thermal energy

Summary of contributions to the inner energy U:
Electronic energy                ...   -366.16369592 Eh
Zero point energy                ...      0.17183439 Eh     107.83 kcal/mol
Thermal vibrational correction   ...      0.00582330 Eh       3.65 kcal/mol
Thermal rotational correction    ...      0.00141627 Eh       0.89 kcal/mol
Thermal translational correction ...      0.00141627 Eh       0.89 kcal/mol
-----------------------------------------------------------------------
Total thermal energy                   -365.98320569 Eh

Summary of corrections to the electronic energy:
(perhaps to be used in another calculation)
Total thermal correction                  0.00865584 Eh       5.43 kcal/mol
Non-thermal (ZPE) correction              0.17183439 Eh     107.83 kcal/mol
-----------------------------------------------------------------------
Total correction                          0.18049023 Eh     113.26 kcal/mol

--------
ENTHALPY
--------

The enthalpy is H = U + kB*T
                kB is Boltzmann's constant
Total thermal energy              ...   -365.98320569 Eh
Thermal Enthalpy correction       ...      0.00094421 Eh       0.59 kcal/mol
-----------------------------------------------------------------------
Total Enthalpy                    ...   -365.98226148 Eh

Note: Rotational entropy computed according to Herzberg
Infrared and Raman Spectra, Chapter V,1, Van Nostrand Reinhold, 1945
Point Group:  Cs, Symmetry Number:   1
Rotational constants in cm-1:     0.075725     0.058446     0.033426

Vibrational entropy computed according to the QRRHO of S. Grimme
Chem.Eur.J. 2012 18 9955 using a reference frequency of 100.0 cm-1

-------
ENTROPY
-------

The entropy contributions are T*S = T*(S(el)+S(vib)+S(rot)+S(trans))
     S(el)   - electronic entropy
     S(vib)  - vibrational entropy
     S(rot)  - rotational entropy
     S(trans)- translational entropy
The entropies will be listed as multiplied by the temperature to get
units of energy

Electronic entropy                ...      0.00000000 Eh      0.00 kcal/mol
Vibrational entropy               ...      0.00923603 Eh      5.80 kcal/mol
Rotational entropy                ...      0.01367404 Eh      8.58 kcal/mol
Translational entropy             ...      0.01914335 Eh     12.01 kcal/mol
-----------------------------------------------------------------------
Final entropy term                ...      0.04205342 Eh     26.39 kcal/mol

In case the symmetry of your molecule has not been determined correctly
or in case you have a reason to use a different symmetry number we print
out the resulting rotational entropy values for sn=1,12:

 non-linear molecules -----------------------------------
|  sn= 1 | S(rot)=       0.01367404 Eh      8.58 kcal/mol|
|  sn= 2 | S(rot)=       0.01301958 Eh      8.17 kcal/mol|
|  sn= 3 | S(rot)=       0.01263675 Eh      7.93 kcal/mol|
|  sn= 4 | S(rot)=       0.01236513 Eh      7.76 kcal/mol|
|  sn= 5 | S(rot)=       0.01215444 Eh      7.63 kcal/mol|
|  sn= 6 | S(rot)=       0.01198230 Eh      7.52 kcal/mol|
|  sn= 7 | S(rot)=       0.01183675 Eh      7.43 kcal/mol|
|  sn= 8 | S(rot)=       0.01171067 Eh      7.35 kcal/mol|
|  sn= 9 | S(rot)=       0.01159946 Eh      7.28 kcal/mol|
|  sn=10 | S(rot)=       0.01149998 Eh      7.22 kcal/mol|
|  sn=11 | S(rot)=       0.01140999 Eh      7.16 kcal/mol|

                             ****ORCA TERMINATED NORMALLY****
TOTAL RUN TIME: 0 days 0 hours 19 minutes 47 seconds 493 msec
