                         Program Version 6.0.0  -   RELEASE  -
|  1> ! r2SCAN-3c DEF2-TZVP FREQ
|  2> * xyzfile 0 1 vacuum_censo.xyz
|  3>
|  4>                          ****END OF INPUT****

CARTESIAN COORDINATES (ANGSTROEM)
---------------------------------
  C     -2.522224    0.740623    0.010804
  C     -1.221933   -0.012534   -0.003378
  C     -1.198811   -1.405025   -0.002509
  C      0.000040   -2.108854   -0.003893
  C      1.198884   -1.405008   -0.002420
  C      1.221977   -0.012506   -0.003302
  C      0.000008    0.687124   -0.007868
  N     -0.000018    2.084566    0.056186
  C      2.522259    0.740670    0.010940
  H     -3.367274    0.050326    0.054565
  H     -2.590812    1.411048    0.876648
  H     -2.651853    1.355103   -0.891037
  H     -2.142884   -1.943143    0.001207
  H      0.000055   -3.193423   -0.001993
  H      2.142974   -1.943104    0.001374
  H     -0.831468    2.524982   -0.305835
  H      0.831576    2.524996   -0.305493
  H      2.590956    1.410855    0.876966
  H      3.367326    0.050369    0.054399
  H      2.651764    1.355402   -0.890748

 Total Charge           Charge          ....    0
 Multiplicity           Mult            ....    1
 Number of Electrons    NEL             ....   66
 Basis Dimension        Dim             ....  345

ORBITAL ENERGIES
----------------

  NO   OCC          E(Eh)            E(eV)
   0   2.0000     -14.166289      -385.4843
   1   2.0000     -10.064030      -273.8562
   2   2.0000     -10.032077      -272.9867
   3   2.0000     -10.032064      -272.9863
   4   2.0000     -10.031129      -272.9609
   5   2.0000     -10.031124      -272.9608
   6   2.0000     -10.021682      -272.7038
   7   2.0000     -10.021672      -272.7035
   8   2.0000     -10.015923      -272.5471
   9   2.0000      -0.886568       -24.1247
  10   2.0000      -0.800027       -21.7699
  11   2.0000      -0.746642       -20.3172
  12   2.0000      -0.707063       -19.2402
  13   2.0000      -0.652720       -17.7614
  14   2.0000      -0.642190       -17.4749
  15   2.0000      -0.552713       -15.0401
  16   2.0000      -0.546603       -14.8738
  17   2.0000      -0.479919       -13.0593
  18   2.0000      -0.477783       -13.0011
  19   2.0000      -0.423443       -11.5225
  20   2.0000      -0.405203       -11.0261
  21   2.0000      -0.400190       -10.8897
  22   2.0000      -0.384737       -10.4692
  23   2.0000      -0.383123       -10.4253
  24   2.0000      -0.372490       -10.1360
  25   2.0000      -0.365604        -9.9486
  26   2.0000      -0.340880        -9.2758
  27   2.0000      -0.326481        -8.8840
  28   2.0000      -0.307653        -8.3717
  29   2.0000      -0.300033        -8.1643
  30   2.0000      -0.283145        -7.7048
  31   2.0000      -0.214457        -5.8357
  32   2.0000      -0.181389        -4.9358
  33   0.0000      -0.017925        -0.4878
  34   0.0000      -0.008259        -0.2247
  35   0.0000       0.029637         0.8065
  36   0.0000       0.060904         1.6573
  37   0.0000       0.069570         1.8931

MULLIKEN ATOMIC CHARGES
-----------------------
   0 C :   -0.414274
   1 C :    0.048303
   2 C :   -0.143935
   3 C :   -0.149676
   4 C :   -0.143927
   5 C :    0.048323
   6 C :    0.169864
   7 N :   -0.430856
   8 C :   -0.414271
   9 H :    0.111412
  10 H :    0.132497
  11 H :    0.109165
  12 H :    0.088520
  13 H :    0.097014
  14 H :    0.088518
  15 H :    0.225135
  16 H :    0.225124
  17 H :    0.132502
  18 H :    0.111412
  19 H :    0.109149
Sum of atomic charges:    0.0000000

LOEWDIN ATOMIC CHARGES
----------------------
   0 C :   -0.263479
   1 C :   -0.164101
   2 C :   -0.130448
   3 C :   -0.166328
   4 C :   -0.130448
   5 C :   -0.164096
   6 C :   -0.187477
   7 N :   -0.036118
   8 C :   -0.263483
   9 H :    0.128322
  10 H :    0.128322
  11 H :    0.122363
  12 H :    0.142607
  13 H :    0.139561
  14 H :    0.142607
  15 H :    0.161597
  16 H :    0.161594
  17 H :    0.128322
  18 H :    0.128324
  19 H :    0.122360

  Mayer bond orders larger than 0.100000
B(  0-C ,  1-C ) :   0.8926 B(  0-C ,  9-H ) :   0.9767 B(  0-C , 10-H ) :   0.9739
B(  0-C , 11-H ) :   0.9691 B(  1-C ,  2-C ) :   1.3778 B(  1-C ,  6-C ) :   1.3233
B(  2-C ,  3-C ) :   1.3980 B(  2-C , 12-H ) :   0.9780 B(  3-C ,  4-C ) :   1.3980
B(  3-C , 13-H ) :   0.9859 B(  4-C ,  5-C ) :   1.3778 B(  4-C , 14-H ) :   0.9779
B(  5-C ,  6-C ) :   1.3233 B(  5-C ,  8-C ) :   0.8926 B(  6-C ,  7-N ) :   1.0475
B(  7-N , 15-H ) :   0.9190 B(  7-N , 16-H ) :   0.9190 B(  8-C , 17-H ) :   0.9739
B(  8-C , 18-H ) :   0.9767 B(  8-C , 19-H ) :   0.9691

Dispersion correction           -0.006759878
FINAL SINGLE POINT ENERGY      -366.163787077250

DIPOLE MOMENT
-------------

Method             : SCF
Type of density    : Electron Density
Multiplicity       :   1
Irrep              :   0
Energy             :  -366.1662929819593728 Eh
Relativity type    :
Basis              : AO
                                X                 Y                 Z
Electronic contribution:     -0.000048202      -2.805467119       0.173035900
Nuclear contribution   :      0.000122306       3.435220008      -0.516752996
                        -----------------------------------------
Total Dipole Moment    :      0.000074104       0.629752889      -0.343717096
                        -----------------------------------------
Magnitude (a.u.)       :      0.717446966
Magnitude (Debye)      :      1.823605262

VIBRATIONAL FREQUENCIES
-----------------------

Scaling factor for frequencies =  1.000000000  (already applied!)

     0:       0.00 cm**-1
     1:       0.00 cm**-1
     2:       0.00 cm**-1
     3:       0.00 cm**-1
     4:       0.00 cm**-1
     5:       0.00 cm**-1
     6:     133.93 cm**-1
     7:     207.49 cm**-1
     8:     218.56 cm**-1
     9:     230.61 cm**-1
    10:     283.57 cm**-1
    11:     304.06 cm**-1
    12:     330.63 cm**-1
    13:     379.49 cm**-1
    14:     482.67 cm**-1
    15:     498.24 cm**-1
    16:     507.98 cm**-1
    17:     549.24 cm**-1
    18:     554.01 cm**-1
    19:     633.55 cm**-1
    20:     684.29 cm**-1
    21:     748.46 cm**-1
    22:     758.59 cm**-1
    23:     852.03 cm**-1
    24:     885.08 cm**-1
    25:     904.00 cm**-1
    26:     919.68 cm**-1
    27:    1004.83 cm**-1
    28:    1025.10 cm**-1
    29:    1047.54 cm**-1
    30:    1052.13 cm**-1
    31:    1116.37 cm**-1
    32:    1162.67 cm**-1
    33:    1187.22 cm**-1
    34:    1255.44 cm**-1
    35:    1297.85 cm**-1
    36:    1298.85 cm**-1
    37:    1365.24 cm**-1
    38:    1400.57 cm**-1
    39:    1400.75 cm**-1
    40:    1460.46 cm**-1
    41:    1478.76 cm**-1
    42:    1480.12 cm**-1
    43:    1482.37 cm**-1
    44:    1510.89 cm**-1
    45:    1515.87 cm**-1
    46:    1631.11 cm**-1
    47:    1632.11 cm**-1
    48:    1663.19 cm**-1
    49:    2980.40 cm**-1
    50:    2981.40 cm**-1
    51:    3037.04 cm**-1
    52:    3037.13 cm**-1
    53:    3101.43 cm**-1
    54:    3101.72 cm**-1
    55:    3147.78 cm**-1
    56:    3152.04 cm**-1
    57:    3180.26 cm**-1
    58:    3553.79 cm**-1
    59:    3654.08 cm**-1

IR SPECTRUM
-----------

 Mode   freq       eps      Int      T**2         TX        TY        TZ
       cm**-1   L/(mol*cm) km/mol    a.u.
----------------------------------------------------------------------------
  6:    133.93   0.000063    0.32  0.000146  (-0.000002  0.008075 -0.009015)
  7:    207.49   0.000119    0.60  0.000179  (-0.013371  0.000024  0.000053)
  8:    218.56   0.000553    2.80  0.000790  ( 0.000009  0.006980  0.027232)
  9:    230.61   0.000424    2.14  0.000574  (-0.023962  0.000003 -0.000019)
 10:    283.57   0.002029   10.26  0.002233  (-0.000008  0.016562  0.044262)
 11:    304.06   0.000039    0.20  0.000041  (-0.000025 -0.005984  0.002172)
 12:    330.63   0.001148    5.80  0.001084  ( 0.032923 -0.000018  0.000005)
 13:    379.49   0.003425   17.31  0.002817  ( 0.053072 -0.000019  0.000001)
 14:    482.67   0.000000    0.00  0.000000  (-0.000256 -0.000001 -0.000002)
 15:    498.24   0.000509    2.57  0.000319  (-0.000001  0.015948  0.008014)
 16:    507.98   0.000046    0.23  0.000028  ( 0.005299 -0.000006 -0.000002)
 17:    549.24   0.004850   24.51  0.002756  ( 0.000008  0.042672  0.030578)
 18:    554.01   0.000395    2.00  0.000222  (-0.014914  0.000040  0.000030)
 19:    633.55   0.040755  205.96  0.020075  (-0.000016  0.120113  0.075150)
 20:    684.29   0.001128    5.70  0.000514  ( 0.000003 -0.019485 -0.011609)
 21:    748.46   0.009800   49.53  0.004086  (-0.000005  0.021271  0.060279)
 22:    758.59   0.003585   18.12  0.001475  ( 0.000003  0.009722 -0.037150)
 23:    852.03   0.000305    1.54  0.000112  (-0.000002 -0.003076  0.010111)
 24:    885.08   0.000002    0.01  0.000001  ( 0.000869 -0.000001  0.000002)
 25:    904.00   0.000495    2.50  0.000171  (-0.013070  0.000002 -0.000000)
 26:    919.68   0.000339    1.71  0.000115  (-0.000002  0.001656  0.010596)
 27:   1004.83   0.000666    3.36  0.000207  ( 0.000000 -0.014373  0.000356)
 28:   1025.10   0.001444    7.30  0.000440  (-0.020966 -0.000001  0.000000)
 29:   1047.54   0.000287    1.45  0.000085  ( 0.000009  0.000195  0.009240)
 30:   1052.13   0.000018    0.09  0.000005  (-0.002308  0.000005  0.000004)
 31:   1116.37   0.003475   17.56  0.000971  ( 0.000001  0.031166 -0.000338)
 32:   1162.67   0.000751    3.80  0.000202  ( 0.014200  0.000000 -0.000000)
 33:   1187.22   0.000147    0.74  0.000039  (-0.006214  0.000000  0.000000)
 34:   1255.44   0.000546    2.76  0.000136  ( 0.000000 -0.011636 -0.000653)
 35:   1297.85   0.006815   34.44  0.001639  ( 0.000011 -0.040479  0.000258)
 36:   1298.85   0.000238    1.20  0.000057  (-0.007562 -0.000056  0.000001)
 37:   1365.24   0.000846    4.28  0.000193  ( 0.013908  0.000008  0.000002)
 38:   1400.57   0.000179    0.90  0.000040  (-0.000073  0.006236  0.000993)
 39:   1400.75   0.000520    2.63  0.000116  ( 0.010759  0.000043  0.000007)
 40:   1460.46   0.004132   20.88  0.000883  ( 0.000002 -0.029710 -0.000472)
 41:   1478.76   0.003414   17.25  0.000720  (-0.000008  0.002665 -0.026708)
 42:   1480.12   0.000001    0.01  0.000000  ( 0.000523  0.000016 -0.000052)
 43:   1482.37   0.000566    2.86  0.000119  ( 0.010914  0.000003 -0.000022)
 44:   1510.89   0.012076   61.03  0.002494  (-0.000001 -0.049938 -0.000700)
 45:   1515.87   0.002124   10.74  0.000437  (-0.020912  0.000008  0.000000)
 46:   1631.11   0.000029    0.15  0.000006  (-0.002375 -0.000016 -0.000017)
 47:   1632.11   0.000776    3.92  0.000148  ( 0.000007 -0.010217 -0.006631)
 48:   1663.19   0.017696   89.43  0.003320  ( 0.000002  0.054859 -0.017628)
 49:   2980.40   0.009913   50.10  0.001038  (-0.032216 -0.000269  0.000087)
 50:   2981.40   0.007382   37.30  0.000773  (-0.000328  0.026269 -0.009082)
 51:   3037.04   0.000673    3.40  0.000069  ( 0.006580  0.000092  0.005084)
 52:   3037.13   0.007574   38.27  0.000778  ( 0.001202 -0.000525 -0.027865)
 53:   3101.43   0.003404   17.20  0.000342  ( 0.018492 -0.000731 -0.000019)
 54:   3101.72   0.002234   11.29  0.000225  ( 0.000904  0.014960  0.000342)
 55:   3147.78   0.000307    1.55  0.000030  ( 0.000103 -0.005516  0.000115)
 56:   3152.04   0.005324   26.91  0.000527  (-0.022959 -0.000019 -0.000000)
 57:   3180.26   0.003645   18.42  0.000358  (-0.000007 -0.018913  0.000056)
 58:   3553.79   0.001389    7.02  0.000122  ( 0.000003  0.010372 -0.003799)
 59:   3654.08   0.003106   15.70  0.000265  (-0.016288  0.000001 -0.000003)

--------------------------
THERMOCHEMISTRY AT 298.15K
--------------------------

Temperature         ...   298.15 K
Pressure            ...     1.00 atm
Total Mass          ...   121.18 AMU
Quasi RRHO          ...     True
Cut-Off Frequency   ...     1.00 cm^-1

Throughout the following assumptions are being made:
  (1) The electronic state is orbitally nondegenerate
  (2) There are no thermally accessible electronically excited states
  (3) Hindered rotations indicated by low frequency modes are not
      treated as such but are treated as vibrations and this may
      cause some error
  (4) All equations used are the standard statistical mechanics
      equations for an ideal gas
  (5) All vibrations are strictly harmonic

freq.     133.93  E(vib)   ...       0.42
freq.     207.49  E(vib)   ...       0.34
freq.     218.56  E(vib)   ...       0.33
freq.     230.61  E(vib)   ...       0.32
freq.     283.57  E(vib)   ...       0.28
freq.     304.06  E(vib)   ...       0.26
freq.     330.63  E(vib)   ...       0.24
freq.     379.49  E(vib)   ...       0.21
freq.     482.67  E(vib)   ...       0.15
freq.     498.24  E(vib)   ...       0.14
freq.     507.98  E(vib)   ...       0.14
freq.     549.24  E(vib)   ...       0.12
freq.     554.01  E(vib)   ...       0.12
freq.     633.55  E(vib)   ...       0.09
freq.     684.29  E(vib)   ...       0.07
freq.     748.46  E(vib)   ...       0.06
freq.     758.59  E(vib)   ...       0.06
freq.     852.03  E(vib)   ...       0.04
freq.     885.08  E(vib)   ...       0.04
freq.     904.00  E(vib)   ...       0.03
freq.     919.68  E(vib)   ...       0.03
freq.    1004.83  E(vib)   ...       0.02
freq.    1025.10  E(vib)   ...       0.02
freq.    1047.54  E(vib)   ...       0.02
freq.    1052.13  E(vib)   ...       0.02
freq.    1116.37  E(vib)   ...       0.01
freq.    1162.67  E(vib)   ...       0.01
freq.    1187.22  E(vib)   ...       0.01
freq.    1255.44  E(vib)   ...       0.01
freq.    1297.85  E(vib)   ...       0.01
freq.    1298.85  E(vib)   ...       0.01
freq.    1365.24  E(vib)   ...       0.01
freq.    1400.57  E(vib)   ...       0.00
freq.    1400.75  E(vib)   ...       0.00
freq.    1460.46  E(vib)   ...       0.00
freq.    1478.76  E(vib)   ...       0.00
freq.    1480.12  E(vib)   ...       0.00
freq.    1482.37  E(vib)   ...       0.00
freq.    1510.89  E(vib)   ...       0.00
freq.    1515.87  E(vib)   ...       0.00
freq.    1631.11  E(vib)   ...       0.00
freq.    1632.11  E(vib)   ...       0.00
freq.    1663.19  E(vib)   ...       0.00
freq.    2980.40  E(vib)   ...       0.00
freq.    2981.40  E(vib)   ...       0.00
freq.    3037.04  E(vib)   ...       0.00
freq.    3037.13  E(vib)   ...       0.00
freq.    3101.43  E(vib)   ...       0.00
freq.    3101.72  E(vib)   ...       0.00
freq.    3147.78  E(vib)   ...       0.00
freq.    3152.04  E(vib)   ...       0.00
freq.    3180.26  E(vib)   ...       0.00
freq.    3553.79  E(vib)   ...       0.00
freq.    3654.08  E(vib)   ...       0.00

------------
INNER ENERGY
------------

The inner energy is: U= E(el) + E(ZPE) + E(vib) + E(rot) + E(trans)
    E(el)   - is the total energy from the electronic structure calculation
              = E(kin-el) + E(nuc-el) + E(el-el) + E(nuc-nuc)
    E(ZPE)  - the the zero temperature vibrational energy from the frequency calculation
    E(vib)  - the the finite temperature correction to E(ZPE) due to population
              of excited vibrational states
    E(rot)  - is the rotational thermal energy
    E(trans)- is the translational thermal energy

Summary of contributions to the inner energy U:
Electronic energy                ...   -366.16378708 Eh
Zero point energy                ...      0.17191659 Eh     107.88 kcal/mol
Thermal vibrational correction   ...      0.00585699 Eh       3.68 kcal/mol
Thermal rotational correction    ...      0.00141627 Eh       0.89 kcal/mol
Thermal translational correction ...      0.00141627 Eh       0.89 kcal/mol
-----------------------------------------------------------------------
Total thermal energy                   -365.98318096 Eh

Summary of corrections to the electronic energy:
(perhaps to be used in another calculation)
Total thermal correction                  0.00868953 Eh       5.45 kcal/mol
Non-thermal (ZPE) correction              0.17191659 Eh     107.88 kcal/mol
-----------------------------------------------------------------------
Total correction                          0.18060612 Eh     113.33 kcal/mol

--------
ENTHALPY
--------

The enthalpy is H = U + kB*T
                kB is Boltzmann's constant
Total thermal energy              ...   -365.98318096 Eh
Thermal Enthalpy correction       ...      0.00094421 Eh       0.59 kcal/mol
-----------------------------------------------------------------------
Total Enthalpy                    ...   -365.98223675 Eh

Note: Only C1 symmetry has been detected, increase convergence thresholds
      if your molecule has a higher symmetry. Symmetry factor of 1.0 is
      used for the rotational entropy correction.

Note: Rotational entropy computed according to Herzberg
Infrared and Raman Spectra, Chapter V,1, Van Nostrand Reinhold, 1945
Point Group:  C1, Symmetry Number:   1
Rotational constants in cm-1:     0.075795     0.058569     0.033484

Vibrational entropy computed according to the QRRHO of S. Grimme
Chem.Eur.J. 2012 18 9955 using a reference frequency of 100.0 cm-1

-------
ENTROPY
-------

The entropy contributions are T*S = T*(S(el)+S(vib)+S(rot)+S(trans))
     S(el)   - electronic entropy
     S(vib)  - vibrational entropy
     S(rot)  - rotational entropy
     S(trans)- translational entropy
The entropies will be listed as multiplied by the temperature to get
units of energy

Electronic entropy                ...      0.00000000 Eh      0.00 kcal/mol
Vibrational entropy               ...      0.00929660 Eh      5.83 kcal/mol
Rotational entropy                ...      0.01367180 Eh      8.58 kcal/mol
Translational entropy             ...      0.01914335 Eh     12.01 kcal/mol
-----------------------------------------------------------------------
Final entropy term                ...      0.04211176 Eh     26.43 kcal/mol

In case the symmetry of your molecule has not been determined correctly
or in case you have a reason to use a different symmetry number we print
out the resulting rotational entropy values for sn=1,12:

 non-linear molecules -----------------------------------
|  sn= 1 | S(rot)=       0.01367180 Eh      8.58 kcal/mol|
|  sn= 2 | S(rot)=       0.01301734 Eh      8.17 kcal/mol|
|  sn= 3 | S(rot)=       0.01263451 Eh      7.93 kcal/mol|
|  sn= 4 | S(rot)=       0.01236289 Eh      7.76 kcal/mol|
|  sn= 5 | S(rot)=       0.01215220 Eh      7.63 kcal/mol|
|  sn= 6 | S(rot)=       0.01198006 Eh      7.52 kcal/mol|

                             ****ORCA TERMINATED NORMALLY****
TOTAL RUN TIME: 0 days 0 hours 19 minutes 39 seconds 917 msec
