                         Program Version 6.0.1  -  RELEASE   -
|  1> ! pbe def2-sv(p) def2/J RI DEFGRID1 loosescf d4 GCP(DFT/SV(P)) printgap
|  2> %output
|  3>     printlevel normal
|  4> end
|  5> * xyz 0 1
|  6> C -2.5568435619 -1.0026e-06 -2.67301e-05
|  7> C -1.8685107589 -1.2043135752 0.0004378244
|  8> C -0.4865156308 -1.211267313 0.0004518961
|  9> C 0.1942862058 -3.041e-07 2.41441e-05
| 10> C -0.4865170248 1.2112691095 -0.0004089711
| 11> C -1.8685092892 1.2043144034 -0.0004505216
| 12> N 1.6368688705 8.09e-07 3.3882e-06
| 13> O 2.1998573694 1.0738588067 0.0009265096
| 14> O 2.199854293 -1.0738605734 -0.0009527446
| 15> H -3.6363803904 4.5285e-06 1.20457e-05
| 16> H -2.4101080938 -2.1375511574 0.0008299105
| 17> H 0.0757243564 -2.1324715196 0.0007903571
| 18> H 0.0757282411 2.1324703699 -0.0007718895
| 19> H -2.4101119943 2.1375488755 -0.0008204563
| 20> *
| 21>
| 22>                          ****END OF INPUT****

CARTESIAN COORDINATES (ANGSTROEM)
---------------------------------
  C     -2.556844   -0.000001   -0.000027
  C     -1.868511   -1.204314    0.000438
  C     -0.486516   -1.211267    0.000452
  C      0.194286   -0.000000    0.000024
  C     -0.486517    1.211269   -0.000409
  C     -1.868509    1.204314   -0.000451
  N      1.636869    0.000001    0.000003
  O      2.199857    1.073859    0.000927
  O      2.199854   -1.073861   -0.000953
  H     -3.636380    0.000005    0.000012
  H     -2.410108   -2.137551    0.000830
  H      0.075724   -2.132472    0.000790
  H      0.075728    2.132470   -0.000772
  H     -2.410112    2.137549   -0.000820

 Total Charge           Charge          ....    0
 Multiplicity           Mult            ....    1
 Number of Electrons    NEL             ....   64
 Basis Dimension        Dim             ....  136

ORBITAL ENERGIES
----------------

  NO   OCC          E(Eh)            E(eV)
   0   2.0000     -18.777108      -510.9511
   1   2.0000     -18.777089      -510.9506
   2   2.0000     -14.210989      -386.7007
   3   2.0000      -9.953002      -270.8350
   4   2.0000      -9.926052      -270.1016
   5   2.0000      -9.923002      -270.0186
   6   2.0000      -9.922936      -270.0168
   7   2.0000      -9.922670      -270.0096
   8   2.0000      -9.922620      -270.0082
   9   2.0000      -1.135685       -30.9036
  10   2.0000      -0.966007       -26.2864
  11   2.0000      -0.815010       -22.1775
  12   2.0000      -0.738301       -20.0902
  13   2.0000      -0.701236       -19.0816
  14   2.0000      -0.636499       -17.3200
  15   2.0000      -0.572216       -15.5708
  16   2.0000      -0.536993       -14.6123
  17   2.0000      -0.500605       -13.6221
  18   2.0000      -0.493774       -13.4363
  19   2.0000      -0.459786       -12.5114
  20   2.0000      -0.454473       -12.3668
  21   2.0000      -0.425182       -11.5698
  22   2.0000      -0.418290       -11.3822
  23   2.0000      -0.404679       -11.0119
  24   2.0000      -0.360772        -9.8171
  25   2.0000      -0.348224        -9.4757
  26   2.0000      -0.329942        -8.9782
  27   2.0000      -0.274323        -7.4647
  28   2.0000      -0.262325        -7.1382
  29   2.0000      -0.258404        -7.0315
  30   2.0000      -0.257457        -7.0058
  31   2.0000      -0.236230        -6.4281
  32   0.0000      -0.116386        -3.1670
  33   0.0000      -0.062601        -1.7035
  34   0.0000      -0.033971        -0.9244
  35   0.0000       0.027184         0.7397
  36   0.0000       0.068133         1.8540

MULLIKEN ATOMIC CHARGES
-----------------------
   0 C :   -0.018043
   1 C :   -0.054252
   2 C :   -0.112668
   3 C :    0.209610
   4 C :   -0.112665
   5 C :   -0.054253
   6 N :    0.199420
   7 O :   -0.211039
   8 O :   -0.211038
   9 H :    0.070476
  10 H :    0.071085
  11 H :    0.076141
  12 H :    0.076142
  13 H :    0.071085
Sum of atomic charges:    0.0000000

LOEWDIN ATOMIC CHARGES
----------------------
   0 C :   -0.099006
   1 C :   -0.112847
   2 C :   -0.103014
   3 C :   -0.040560
   4 C :   -0.103015
   5 C :   -0.112847
   6 N :    0.249850
   7 O :   -0.181078
   8 O :   -0.181077
   9 H :    0.131298
  10 H :    0.132628
  11 H :    0.143520
  12 H :    0.143520
  13 H :    0.132628

  Mayer bond orders larger than 0.100000
B(  0-C ,  1-C ) :   1.3703 B(  0-C ,  5-C ) :   1.3703 B(  0-C ,  9-H ) :   0.9648
B(  1-C ,  2-C ) :   1.3386 B(  1-C , 10-H ) :   0.9637 B(  2-C ,  3-C ) :   1.3814
B(  2-C , 11-H ) :   0.9489 B(  3-C ,  4-C ) :   1.3814 B(  3-C ,  6-N ) :   0.8675
B(  4-C ,  5-C ) :   1.3386 B(  4-C , 12-H ) :   0.9489 B(  5-C , 13-H ) :   0.9637
B(  6-N ,  7-O ) :   1.5531 B(  6-N ,  8-O ) :   1.5531 B(  7-O ,  8-O ) :   0.2999

Dispersion correction           -0.014671628
FINAL SINGLE POINT ENERGY      -435.889983418280

DIPOLE MOMENT
-------------

Method             : SCF
Type of density    : Electron Density
Multiplicity       :   1
Irrep              :   0
Energy             :  -435.9314633730332389 Eh
Relativity type    :
Basis              : AO
                                X                 Y                 Z
Electronic contribution:      6.072077967      -0.000005916      -0.000010410
Nuclear contribution   :     -7.717530971       0.000001007       0.000037127
                        -----------------------------------------
Total Dipole Moment    :     -1.645453004      -0.000004909       0.000026717
                        -----------------------------------------
Magnitude (a.u.)       :      1.645453005
Magnitude (Debye)      :      4.182409156

Rotational constants in cm-1:             0.134470             0.043677             0.032969
Rotational constants in MHz :          4031.312576          1309.409809           988.375856

                             ****ORCA TERMINATED NORMALLY****
TOTAL RUN TIME: 0 days 0 hours 0 minutes 8 seconds 268 msec
