                         Program Version 6.0.1  -  RELEASE   -
|  1> ! pbe def2-sv(p) def2/J RI DEFGRID1 loosescf d4 GCP(DFT/SV(P)) printgap
|  2> %output
|  3>     printlevel normal
|  4> end
|  5> * xyz 0 1
|  6> C -3.5803370958 0.1954373816 -0.382723769
|  7> O -2.2040565225 0.2047814551 -0.7411084042
|  8> C -1.3101712212 -0.1127864113 0.2046291299
|  9> O -1.6020147093 -0.4167999407 1.3313735956
| 10> C 0.1003415306 -0.0202294072 -0.3340177607
| 11> C 0.8847140724 -1.2831016881 0.0310703284
| 12> C 2.3332462492 -1.1682011313 -0.4312658421
| 13> C 2.9975469314 0.0598773057 0.182633948
| 14> C 2.2217165085 1.3202499372 -0.1857150491
| 15> C 0.7743622748 1.2128708394 0.2825292622
| 16> H -4.1250761154 -0.3050477361 -1.1816993561
| 17> H -3.930155346 1.2240094757 -0.2813531352
| 18> H -3.7132052166 -0.3332803478 0.5629410382
| 19> H 0.0489696904 0.0950063079 -1.4202490494
| 20> H 0.847120874 -1.4139179942 1.1140963804
| 21> H 0.413121545 -2.1542674646 -0.4289576994
| 22> H 2.8799943706 -2.0693760062 -0.1473532269
| 23> H 2.3611455902 -1.0889285435 -1.5206949936
| 24> H 3.020119757 -0.0462983004 1.2692318294
| 25> H 4.0281711158 0.141056324 -0.1687366374
| 26> H 2.6892656184 2.1942890683 0.2718596151
| 27> H 2.2435630196 1.4568904864 -1.2694431133
| 28> H 0.7431434125 1.1205139683 1.3701623556
| 29> H 0.2219588563 2.1125002428 0.0020281027
| 30> *
| 31>
| 32>                          ****END OF INPUT****

CARTESIAN COORDINATES (ANGSTROEM)
---------------------------------
  C     -3.580337    0.195437   -0.382724
  O     -2.204057    0.204781   -0.741108
  C     -1.310171   -0.112786    0.204629
  O     -1.602015   -0.416800    1.331374
  C      0.100342   -0.020229   -0.334018
  C      0.884714   -1.283102    0.031070
  C      2.333246   -1.168201   -0.431266
  C      2.997547    0.059877    0.182634
  C      2.221717    1.320250   -0.185715
  C      0.774362    1.212871    0.282529
  H     -4.125076   -0.305048   -1.181699
  H     -3.930155    1.224009   -0.281353
  H     -3.713205   -0.333280    0.562941
  H      0.048970    0.095006   -1.420249
  H      0.847121   -1.413918    1.114096
  H      0.413122   -2.154267   -0.428958
  H      2.879994   -2.069376   -0.147353
  H      2.361146   -1.088929   -1.520695
  H      3.020120   -0.046298    1.269232
  H      4.028171    0.141056   -0.168737
  H      2.689266    2.194289    0.271860
  H      2.243563    1.456890   -1.269443
  H      0.743143    1.120514    1.370162
  H      0.221959    2.112500    0.002028

 Total Charge           Charge          ....    0
 Multiplicity           Mult            ....    1
 Number of Electrons    NEL             ....   78
 Basis Dimension        Dim             ....  168

ORBITAL ENERGIES
----------------

  NO   OCC          E(Eh)            E(eV)
   0   2.0000     -18.795274      -511.4454
   1   2.0000     -18.735300      -509.8134
   2   2.0000     -10.001455      -272.1534
   3   2.0000      -9.935703      -270.3642
   4   2.0000      -9.901010      -269.4202
   5   2.0000      -9.889236      -269.0998
   6   2.0000      -9.885376      -268.9948
   7   2.0000      -9.885316      -268.9931
   8   2.0000      -9.884032      -268.9582
   9   2.0000      -9.883148      -268.9341
  10   2.0000      -1.002476       -27.2788
  11   2.0000      -0.914053       -24.8727
  12   2.0000      -0.762363       -20.7449
  13   2.0000      -0.693018       -18.8580
  14   2.0000      -0.669383       -18.2148
  15   2.0000      -0.649902       -17.6847
  16   2.0000      -0.558176       -15.1887
  17   2.0000      -0.546034       -14.8583
  18   2.0000      -0.508528       -13.8377
  19   2.0000      -0.491018       -13.3613
  20   2.0000      -0.456568       -12.4238
  21   2.0000      -0.430699       -11.7199
  22   2.0000      -0.421918       -11.4810
  23   2.0000      -0.413689       -11.2571
  24   2.0000      -0.395895       -10.7729
  25   2.0000      -0.391260       -10.6467
  26   2.0000      -0.377733       -10.2786
  27   2.0000      -0.366390        -9.9700
  28   2.0000      -0.343971        -9.3599
  29   2.0000      -0.338171        -9.2021
  30   2.0000      -0.321403        -8.7458
  31   2.0000      -0.308473        -8.3940
  32   2.0000      -0.304393        -8.2830
  33   2.0000      -0.299819        -8.1585
  34   2.0000      -0.284035        -7.7290
  35   2.0000      -0.268558        -7.3078
  36   2.0000      -0.262116        -7.1325
  37   2.0000      -0.254363        -6.9216
  38   2.0000      -0.220099        -5.9892
  39   0.0000      -0.015957        -0.4342
  40   0.0000       0.034642         0.9427
  41   0.0000       0.051447         1.4000
  42   0.0000       0.058274         1.5857
  43   0.0000       0.070821         1.9271

MULLIKEN ATOMIC CHARGES
-----------------------
   0 C :   -0.133217
   1 O :   -0.242797
   2 C :    0.161832
   3 O :   -0.193232
   4 C :   -0.175325
   5 C :   -0.137145
   6 C :   -0.129443
   7 C :   -0.164479
   8 C :   -0.122996
   9 C :   -0.149554
  10 H :    0.120200
  11 H :    0.118739
  12 H :    0.131336
  13 H :    0.071224
  14 H :    0.093094
  15 H :    0.086970
  16 H :    0.086974
  17 H :    0.072289
  18 H :    0.078303
  19 H :    0.085843
  20 H :    0.087300
  21 H :    0.073521
  22 H :    0.091743
  23 H :    0.088821
Sum of atomic charges:   -0.0000000

LOEWDIN ATOMIC CHARGES
----------------------
   0 C :   -0.214211
   1 O :   -0.077278
   2 C :    0.048866
   3 O :   -0.157070
   4 C :   -0.164529
   5 C :   -0.212011
   6 C :   -0.225085
   7 C :   -0.227256
   8 C :   -0.224852
   9 C :   -0.209352
  10 H :    0.119099
  11 H :    0.117911
  12 H :    0.122756
  13 H :    0.124097
  14 H :    0.122995
  15 H :    0.118429
  16 H :    0.118090
  17 H :    0.113762
  18 H :    0.115947
  19 H :    0.116423
  20 H :    0.118188
  21 H :    0.114502
  22 H :    0.122245
  23 H :    0.118336

  Mayer bond orders larger than 0.100000
B(  0-C ,  1-O ) :   0.9457 B(  0-C , 10-H ) :   0.9605 B(  0-C , 11-H ) :   0.9595
B(  0-C , 12-H ) :   0.9293 B(  1-O ,  2-C ) :   1.2086 B(  2-C ,  3-O ) :   2.0796
B(  2-C ,  4-C ) :   0.9353 B(  4-C ,  5-C ) :   1.0773 B(  4-C ,  9-C ) :   1.0810
B(  4-C , 13-H ) :   0.8811 B(  5-C ,  6-C ) :   1.1392 B(  5-C , 14-H ) :   0.9021
B(  5-C , 15-H ) :   0.9209 B(  6-C ,  7-C ) :   1.1355 B(  6-C , 16-H ) :   0.9191
B(  6-C , 17-H ) :   0.9109 B(  7-C ,  8-C ) :   1.1359 B(  7-C , 18-H ) :   0.9153
B(  7-C , 19-H ) :   0.9197 B(  8-C ,  9-C ) :   1.1382 B(  8-C , 20-H ) :   0.9182
B(  8-C , 21-H ) :   0.9113 B(  9-C , 22-H ) :   0.9064 B(  9-C , 23-H ) :   0.9171

Dispersion correction           -0.022484778
FINAL SINGLE POINT ENERGY      -462.707452523984

DIPOLE MOMENT
-------------

Method             : SCF
Type of density    : Electron Density
Multiplicity       :   1
Irrep              :   0
Energy             :  -462.7955080195924893 Eh
Relativity type    :
Basis              : AO
                                X                 Y                 Z
Electronic contribution:     -7.238397480      -0.664251342       1.128707992
Nuclear contribution   :      7.193854432       0.872306741      -1.706375610
                        -----------------------------------------
Total Dipole Moment    :     -0.044543048       0.208055399      -0.577667618
                        -----------------------------------------
Magnitude (a.u.)       :      0.615606212
Magnitude (Debye)      :      1.564746639

Rotational constants in cm-1:             0.103285             0.024083             0.022516
Rotational constants in MHz :          3096.412590           721.992078           675.027506

                             ****ORCA TERMINATED NORMALLY****
TOTAL RUN TIME: 0 days 0 hours 0 minutes 8 seconds 487 msec
