                         Program Version 6.0.1  -  RELEASE   -
|  1> ! pbe def2-sv(p) def2/J RI DEFGRID1 loosescf d4 GCP(DFT/SV(P)) printgap
|  2> %output
|  3>     printlevel normal
|  4> end
|  5> * xyz 0 1
|  6> C -3.1509292306 -0.0353285649 1.0396420436
|  7> O -1.7496627921 -0.0145770594 0.8118848348
|  8> C -1.3610468116 -0.0284618025 -0.4705491355
|  9> O -2.1342714361 -0.0566061035 -1.3921189424
| 10> C 0.1462455104 -0.0054857346 -0.6001901926
| 11> C 0.7573963234 -1.2425587511 0.0669330615
| 12> C 2.2770613736 -1.2169838334 -0.0628967895
| 13> C 2.8463052875 0.053214821 0.5613262357
| 14> C 2.2371649272 1.2872453533 -0.0967416682
| 15> C 0.7174777635 1.267611911 0.0335573776
| 16> H -3.2850730038 -0.0231103701 2.118243461
| 17> H -3.5919125742 -0.935890916 0.6075864026
| 18> H -3.6220499858 0.8378867882 0.5838567102
| 19> H 0.377340262 -0.0160476101 -1.6700311011
| 20> H 0.4776872156 -1.2502735029 1.1220648136
| 21> H 0.3575609465 -2.1462000865 -0.3984251934
| 22> H 2.7009200738 -2.0958432025 0.4269496314
| 23> H 2.5520602929 -1.2570251373 -1.1192737773
| 24> H 2.6201632105 0.0640585347 1.6298906397
| 25> H 3.9321292897 0.0690219189 0.448222999
| 26> H 2.632928977 2.1922000706 0.3685180832
| 27> H 2.5106229953 1.3071037793 -1.1540918978
| 28> H 0.4377007605 1.2941461603 1.088333766
| 29> H 0.288996988 2.1454833685 -0.455014989
| 30> *
| 31>
| 32>                          ****END OF INPUT****

CARTESIAN COORDINATES (ANGSTROEM)
---------------------------------
  C     -3.150929   -0.035329    1.039642
  O     -1.749663   -0.014577    0.811885
  C     -1.361047   -0.028462   -0.470549
  O     -2.134271   -0.056606   -1.392119
  C      0.146246   -0.005486   -0.600190
  C      0.757396   -1.242559    0.066933
  C      2.277061   -1.216984   -0.062897
  C      2.846305    0.053215    0.561326
  C      2.237165    1.287245   -0.096742
  C      0.717478    1.267612    0.033557
  H     -3.285073   -0.023110    2.118243
  H     -3.591913   -0.935891    0.607586
  H     -3.622050    0.837887    0.583857
  H      0.377340   -0.016048   -1.670031
  H      0.477687   -1.250274    1.122065
  H      0.357561   -2.146200   -0.398425
  H      2.700920   -2.095843    0.426950
  H      2.552060   -1.257025   -1.119274
  H      2.620163    0.064059    1.629891
  H      3.932129    0.069022    0.448223
  H      2.632929    2.192200    0.368518
  H      2.510623    1.307104   -1.154092
  H      0.437701    1.294146    1.088334
  H      0.288997    2.145483   -0.455015

 Total Charge           Charge          ....    0
 Multiplicity           Mult            ....    1
 Number of Electrons    NEL             ....   78
 Basis Dimension        Dim             ....  168

ORBITAL ENERGIES
----------------

  NO   OCC          E(Eh)            E(eV)
   0   2.0000     -18.795844      -511.4609
   1   2.0000     -18.733193      -509.7561
   2   2.0000     -10.000305      -272.1221
   3   2.0000      -9.938648      -270.4444
   4   2.0000      -9.901771      -269.4409
   5   2.0000      -9.888847      -269.0892
   6   2.0000      -9.888793      -269.0877
   7   2.0000      -9.885798      -269.0062
   8   2.0000      -9.885772      -269.0055
   9   2.0000      -9.884598      -268.9736
  10   2.0000      -1.004018       -27.3207
  11   2.0000      -0.911699       -24.8086
  12   2.0000      -0.764576       -20.8052
  13   2.0000      -0.694194       -18.8900
  14   2.0000      -0.670853       -18.2548
  15   2.0000      -0.646576       -17.5942
  16   2.0000      -0.560440       -15.2504
  17   2.0000      -0.547458       -14.8971
  18   2.0000      -0.506015       -13.7694
  19   2.0000      -0.501927       -13.6581
  20   2.0000      -0.456339       -12.4176
  21   2.0000      -0.431017       -11.7286
  22   2.0000      -0.426365       -11.6020
  23   2.0000      -0.404900       -11.0179
  24   2.0000      -0.398604       -10.8466
  25   2.0000      -0.387699       -10.5498
  26   2.0000      -0.378100       -10.2886
  27   2.0000      -0.361997        -9.8504
  28   2.0000      -0.350970        -9.5504
  29   2.0000      -0.339620        -9.2415
  30   2.0000      -0.320259        -8.7147
  31   2.0000      -0.310677        -8.4539
  32   2.0000      -0.307057        -8.3554
  33   2.0000      -0.304150        -8.2763
  34   2.0000      -0.285778        -7.7764
  35   2.0000      -0.274201        -7.4614
  36   2.0000      -0.263074        -7.1586
  37   2.0000      -0.256243        -6.9727
  38   2.0000      -0.212216        -5.7747
  39   0.0000      -0.016280        -0.4430
  40   0.0000       0.033306         0.9063
  41   0.0000       0.048078         1.3083
  42   0.0000       0.057307         1.5594
  43   0.0000       0.069505         1.8913

MULLIKEN ATOMIC CHARGES
-----------------------
   0 C :   -0.105959
   1 O :   -0.255075
   2 C :    0.153295
   3 O :   -0.184886
   4 C :   -0.158040
   5 C :   -0.148138
   6 C :   -0.125908
   7 C :   -0.166963
   8 C :   -0.125831
   9 C :   -0.147926
  10 H :    0.118267
  11 H :    0.115967
  12 H :    0.115925
  13 H :    0.072898
  14 H :    0.087546
  15 H :    0.090665
  16 H :    0.086963
  17 H :    0.074783
  18 H :    0.076019
  19 H :    0.086632
  20 H :    0.086932
  21 H :    0.074683
  22 H :    0.087604
  23 H :    0.090547
Sum of atomic charges:   -0.0000000

LOEWDIN ATOMIC CHARGES
----------------------
   0 C :   -0.206749
   1 O :   -0.075711
   2 C :    0.043751
   3 O :   -0.153312
   4 C :   -0.160051
   5 C :   -0.213872
   6 C :   -0.224990
   7 C :   -0.227433
   8 C :   -0.224977
   9 C :   -0.213960
  10 H :    0.118497
  11 H :    0.117804
  12 H :    0.117793
  13 H :    0.128859
  14 H :    0.118861
  15 H :    0.119541
  16 H :    0.117873
  17 H :    0.115172
  18 H :    0.114730
  19 H :    0.116801
  20 H :    0.117851
  21 H :    0.115144
  22 H :    0.118877
  23 H :    0.119500

  Mayer bond orders larger than 0.100000
B(  0-C ,  1-O ) :   0.9514 B(  0-C , 10-H ) :   0.9581 B(  0-C , 11-H ) :   0.9515
B(  0-C , 12-H ) :   0.9516 B(  1-O ,  2-C ) :   1.1757 B(  2-C ,  3-O ) :   2.0991
B(  2-C ,  4-C ) :   0.9627 B(  4-C ,  5-C ) :   1.0762 B(  4-C ,  9-C ) :   1.0761
B(  4-C , 13-H ) :   0.8789 B(  5-C ,  6-C ) :   1.1366 B(  5-C , 14-H ) :   0.9052
B(  5-C , 15-H ) :   0.9190 B(  6-C ,  7-C ) :   1.1362 B(  6-C , 16-H ) :   0.9190
B(  6-C , 17-H ) :   0.9110 B(  7-C ,  8-C ) :   1.1362 B(  7-C , 18-H ) :   0.9152
B(  7-C , 19-H ) :   0.9197 B(  8-C ,  9-C ) :   1.1366 B(  8-C , 20-H ) :   0.9190
B(  8-C , 21-H ) :   0.9110 B(  9-C , 22-H ) :   0.9051 B(  9-C , 23-H ) :   0.9191

Dispersion correction           -0.022729382
FINAL SINGLE POINT ENERGY      -462.707076966628

DIPOLE MOMENT
-------------

Method             : SCF
Type of density    : Electron Density
Multiplicity       :   1
Irrep              :   0
Energy             :  -462.7949979937776561 Eh
Relativity type    :
Basis              : AO
                                X                 Y                 Z
Electronic contribution:     -7.557664784      -0.158256287      -2.665912241
Nuclear contribution   :      7.812770595       0.172983813       3.365824616
                        -----------------------------------------
Total Dipole Moment    :      0.255105810       0.014727526       0.699912375
                        -----------------------------------------
Magnitude (a.u.)       :      0.745099462
Magnitude (Debye)      :      1.893892321

Rotational constants in cm-1:             0.091381             0.025297             0.024559
Rotational constants in MHz :          2739.522986           758.398215           736.253778

                             ****ORCA TERMINATED NORMALLY****
TOTAL RUN TIME: 0 days 0 hours 0 minutes 8 seconds 421 msec
