                         Program Version 6.0.1  -  RELEASE   -
|  1> ! r2scan-3c def2/J RI DEFGRID2 scfconv6 printgap
|  2> %output
|  3>     printlevel normal
|  4> end
|  5> * xyz 0 1
|  6> C -2.5493174317 -0.9123188709 0.2554151429
|  7> C -1.1374958383 -0.4445094678 0.6398928585
|  8> H -1.0487622449 -0.3715349827 1.7341560027
|  9> C -0.8537334679 0.9430803509 0.0408690388
| 10> H -1.1158820555 0.9149238841 -1.0319098552
| 11> C 0.6322270224 1.2991009494 0.1813151362
| 12> H 0.8613481388 1.4786989717 1.2388389903
| 13> C 1.503624138 0.1531183975 -0.3329875306
| 14> H 1.3274787817 0.0152242285 -1.4149672776
| 15> C 1.0940453374 -1.1481836648 0.3814678962
| 16> H 1.2538265897 -1.0109044804 1.473214904
| 17> O -0.251715543 -1.422455872 0.1316089523
| 18> O 1.8172704041 -2.2310240602 -0.0863754603
| 19> O 2.8702112109 0.3803209607 -0.0914081678
| 20> O 0.9411598621 2.5145265592 -0.4679936644
| 21> O -1.6544170741 1.878572731 0.7156509053
| 22> O -2.6413500451 -1.1570839401 -1.1192781772
| 23> H -3.2649806677 -0.1244624626 0.493861221
| 24> H -2.7884360019 -1.8162766424 0.8303371247
| 25> H 2.7284006518 -1.9359806119 -0.2136734856
| 26> H 3.0388514089 1.3256732178 -0.199781617
| 27> H 0.718481834 2.4366986231 -1.4049478887
| 28> H -1.3202700872 2.761685218 0.5100968909
| 29> H -1.9335351752 -1.776701448 -1.3408695042
| 30> *
| 31>
| 32>                          ****END OF INPUT****

CARTESIAN COORDINATES (ANGSTROEM)
---------------------------------
  C     -2.549317   -0.912319    0.255415
  C     -1.137496   -0.444509    0.639893
  H     -1.048762   -0.371535    1.734156
  C     -0.853733    0.943080    0.040869
  H     -1.115882    0.914924   -1.031910
  C      0.632227    1.299101    0.181315
  H      0.861348    1.478699    1.238839
  C      1.503624    0.153118   -0.332988
  H      1.327479    0.015224   -1.414967
  C      1.094045   -1.148184    0.381468
  H      1.253827   -1.010904    1.473215
  O     -0.251716   -1.422456    0.131609
  O      1.817270   -2.231024   -0.086375
  O      2.870211    0.380321   -0.091408
  O      0.941160    2.514527   -0.467994
  O     -1.654417    1.878573    0.715651
  O     -2.641350   -1.157084   -1.119278
  H     -3.264981   -0.124462    0.493861
  H     -2.788436   -1.816277    0.830337
  H      2.728401   -1.935981   -0.213673
  H      3.038851    1.325673   -0.199782
  H      0.718482    2.436699   -1.404948
  H     -1.320270    2.761685    0.510097
  H     -1.933535   -1.776701   -1.340870

 Total Charge           Charge          ....    0
 Multiplicity           Mult            ....    1
 Number of Electrons    NEL             ....   96
 Basis Dimension        Dim             ....  318

ORBITAL ENERGIES
----------------

  NO   OCC          E(Eh)            E(eV)
   0   2.0000     -18.987260      -516.6696
   1   2.0000     -18.981661      -516.5173
   2   2.0000     -18.975313      -516.3445
   3   2.0000     -18.966424      -516.1026
   4   2.0000     -18.965995      -516.0910
   5   2.0000     -18.949808      -515.6505
   6   2.0000     -10.147664      -276.1320
   7   2.0000     -10.105361      -274.9809
   8   2.0000     -10.100455      -274.8473
   9   2.0000     -10.100128      -274.8385
  10   2.0000     -10.098548      -274.7955
  11   2.0000     -10.080140      -274.2946
  12   2.0000      -1.060833       -28.8667
  13   2.0000      -1.033345       -28.1188
  14   2.0000      -1.015573       -27.6351
  15   2.0000      -1.000597       -27.2276
  16   2.0000      -0.997282       -27.1374
  17   2.0000      -0.983807       -26.7707
  18   2.0000      -0.761476       -20.7208
  19   2.0000      -0.744245       -20.2519
  20   2.0000      -0.660373       -17.9697
  21   2.0000      -0.626100       -17.0370
  22   2.0000      -0.611880       -16.6501
  23   2.0000      -0.568393       -15.4668
  24   2.0000      -0.524649       -14.2764
  25   2.0000      -0.517735       -14.0883
  26   2.0000      -0.507079       -13.7983
  27   2.0000      -0.480425       -13.0730
  28   2.0000      -0.474501       -12.9118
  29   2.0000      -0.467046       -12.7090
  30   2.0000      -0.460658       -12.5351
  31   2.0000      -0.445862       -12.1325
  32   2.0000      -0.402013       -10.9393
  33   2.0000      -0.395725       -10.7682
  34   2.0000      -0.391103       -10.6424
  35   2.0000      -0.386577       -10.5193
  36   2.0000      -0.360360        -9.8059
  37   2.0000      -0.358220        -9.7477
  38   2.0000      -0.341902        -9.3036
  39   2.0000      -0.330085        -8.9821
  40   2.0000      -0.311199        -8.4681
  41   2.0000      -0.300155        -8.1676
  42   2.0000      -0.292030        -7.9465
  43   2.0000      -0.272753        -7.4220
  44   2.0000      -0.269555        -7.3350
  45   2.0000      -0.243068        -6.6142
  46   2.0000      -0.242093        -6.5877
  47   2.0000      -0.234106        -6.3703
  48   0.0000       0.019080         0.5192
  49   0.0000       0.049259         1.3404
  50   0.0000       0.052454         1.4273
  51   0.0000       0.070454         1.9172
  52   0.0000       0.079230         2.1560

MULLIKEN ATOMIC CHARGES
-----------------------
   0 C :   -0.243608
   1 C :    0.048607
   2 H :    0.171109
   3 C :   -0.027806
   4 H :    0.191509
   5 C :   -0.156420
   6 H :    0.181456
   7 C :    0.077514
   8 H :    0.172880
   9 C :   -0.083844
  10 H :    0.148323
  11 O :   -0.230655
  12 O :   -0.390485
  13 O :   -0.442246
  14 O :   -0.433992
  15 O :   -0.433014
  16 O :   -0.428850
  17 H :    0.157912
  18 H :    0.140785
  19 H :    0.333304
  20 H :    0.316613
  21 H :    0.306700
  22 H :    0.309469
  23 H :    0.314739
Sum of atomic charges:   -0.0000000

LOEWDIN ATOMIC CHARGES
----------------------
   0 C :    0.046464
   1 C :    0.119707
   2 H :    0.189394
   3 C :    0.101433
   4 H :    0.187169
   5 C :    0.090398
   6 H :    0.203139
   7 C :    0.104292
   8 H :    0.182267
   9 C :    0.310531
  10 H :    0.180278
  11 O :   -0.671061
  12 O :   -0.477621
  13 O :   -0.579697
  14 O :   -0.580121
  15 O :   -0.579299
  16 O :   -0.589346
  17 H :    0.194728
  18 H :    0.166096
  19 H :    0.289309
  20 H :    0.283063
  21 H :    0.272327
  22 H :    0.279396
  23 H :    0.277153

  Mayer bond orders larger than 0.100000
B(  0-C ,  1-C ) :   0.9415 B(  0-C , 16-O ) :   1.0303 B(  0-C , 17-H ) :   0.9624
B(  0-C , 18-H ) :   0.9781 B(  1-C ,  2-H ) :   0.9301 B(  1-C ,  3-C ) :   0.8421
B(  1-C , 11-O ) :   0.7534 B(  1-C , 16-O ) :  -0.1095 B(  3-C ,  4-H ) :   0.9880
B(  3-C ,  5-C ) :   0.8751 B(  3-C , 15-O ) :   0.8476 B(  5-C ,  6-H ) :   0.9674
B(  5-C ,  7-C ) :   0.9078 B(  5-C , 14-O ) :   1.0453 B(  7-C ,  8-H ) :   0.9621
B(  7-C ,  9-C ) :   0.7893 B(  7-C , 13-O ) :   0.8694 B(  9-C , 10-H ) :   1.0127
B(  9-C , 11-O ) :   1.0071 B(  9-C , 12-O ) :   1.0675 B( 12-O , 19-H ) :   0.8616
B( 13-O , 20-H ) :   0.8720 B( 14-O , 21-H ) :   0.8854 B( 15-O , 22-H ) :   0.8789
B( 16-O , 23-H ) :   0.8685

Dispersion correction           -0.008117456
FINAL SINGLE POINT ENERGY      -687.076058047845

DIPOLE MOMENT
-------------

Method             : SCF
Type of density    : Electron Density
Multiplicity       :   1
Irrep              :   0
Energy             :  -687.0876551269777792 Eh
Relativity type    :
Basis              : AO
                                X                 Y                 Z
Electronic contribution:      2.079017528      -0.889051823      -0.718776464
Nuclear contribution   :     -1.432028896       1.779199275       0.619063509
                        -----------------------------------------
Total Dipole Moment    :      0.646988633       0.890147452      -0.099712955
                        -----------------------------------------
Magnitude (a.u.)       :      1.104943188
Magnitude (Debye)      :      2.808542386

Rotational constants in cm-1:             0.038646             0.027604             0.018027
Rotational constants in MHz :          1158.579781           827.547771           540.437431

                             ****ORCA TERMINATED NORMALLY****
TOTAL RUN TIME: 0 days 0 hours 0 minutes 37 seconds 151 msec
