                         Program Version 6.0.1  -  RELEASE   -
|  1> ! r2scan-3c def2/J RI DEFGRID2 scfconv6 printgap
|  2> %output
|  3>     printlevel normal
|  4> end
|  5> * xyz 0 1
|  6> C -2.9200440497 7.97034e-05 0.0493507913
|  7> C -1.4443932483 6.72559e-05 -0.3393919402
|  8> C -0.738182641 1.247483994 0.1921140326
|  9> C 0.7384366743 1.2475843083 -0.1917889587
| 10> C 1.4444669445 -6.97016e-05 0.3394119909
| 11> C 0.7382069455 -1.2476000786 -0.1917893175
| 12> C -0.7384216986 -1.2474939963 0.1920845473
| 13> C 2.9199392803 -5.1616e-05 -0.0499393262
| 14> H -3.4200484785 0.8826236832 -0.3437035824
| 15> H -3.4203222421 -0.8820349652 -0.3443226462
| 16> H -3.0275721261 -0.0002736032 1.1321984342
| 17> H -1.3715597935 9.2179e-05 -1.4332626475
| 18> H -1.2223219918 2.1429548679 -0.2045204459
| 19> H -0.8299477671 1.2740605874 1.2808514797
| 20> H 0.8301483184 1.2743820469 -1.2805231719
| 21> H 1.2226687849 2.1429254927 0.2050442832
| 22> H 1.3721196766 -6.79304e-05 1.4333108262
| 23> H 0.829958319 -1.2744362238 -1.2805218341
| 24> H 1.222315735 -2.1429969569 0.2050549609
| 25> H -1.222674851 -2.1428769771 -0.2046156797
| 26> H -0.8301857908 -1.2741106883 1.2808235071
| 27> H 3.4203113045 0.8822047953 0.3434195852
| 28> H 3.0269009734 0.0001411687 -1.1329119523
| 29> H 3.4201121275 -0.8825859146 0.3430613583
| 30> *
| 31>
| 32>                          ****END OF INPUT****

CARTESIAN COORDINATES (ANGSTROEM)
---------------------------------
  C     -2.920044    0.000080    0.049351
  C     -1.444393    0.000067   -0.339392
  C     -0.738183    1.247484    0.192114
  C      0.738437    1.247584   -0.191789
  C      1.444467   -0.000070    0.339412
  C      0.738207   -1.247600   -0.191789
  C     -0.738422   -1.247494    0.192085
  C      2.919939   -0.000052   -0.049939
  H     -3.420048    0.882624   -0.343704
  H     -3.420322   -0.882035   -0.344323
  H     -3.027572   -0.000274    1.132198
  H     -1.371560    0.000092   -1.433263
  H     -1.222322    2.142955   -0.204520
  H     -0.829948    1.274061    1.280851
  H      0.830148    1.274382   -1.280523
  H      1.222669    2.142925    0.205044
  H      1.372120   -0.000068    1.433311
  H      0.829958   -1.274436   -1.280522
  H      1.222316   -2.142997    0.205055
  H     -1.222675   -2.142877   -0.204616
  H     -0.830186   -1.274111    1.280824
  H      3.420311    0.882205    0.343420
  H      3.026901    0.000141   -1.132912
  H      3.420112   -0.882586    0.343061

 Total Charge           Charge          ....    0
 Multiplicity           Mult            ....    1
 Number of Electrons    NEL             ....   64
 Basis Dimension        Dim             ....  232

ORBITAL ENERGIES
----------------

  NO   OCC          E(Eh)            E(eV)
   0   2.0000     -10.026326      -272.8302
   1   2.0000     -10.026323      -272.8301
   2   2.0000     -10.017584      -272.5923
   3   2.0000     -10.017580      -272.5922
   4   2.0000     -10.017453      -272.5888
   5   2.0000     -10.017442      -272.5884
   6   2.0000     -10.011555      -272.4283
   7   2.0000     -10.011543      -272.4279
   8   2.0000      -0.804270       -21.8853
   9   2.0000      -0.743563       -20.2334
  10   2.0000      -0.703911       -19.1544
  11   2.0000      -0.669140       -18.2082
  12   2.0000      -0.606698       -16.5091
  13   2.0000      -0.572834       -15.5876
  14   2.0000      -0.534195       -14.5362
  15   2.0000      -0.518406       -14.1065
  16   2.0000      -0.437666       -11.9095
  17   2.0000      -0.411064       -11.1856
  18   2.0000      -0.408237       -11.1087
  19   2.0000      -0.400230       -10.8908
  20   2.0000      -0.393944       -10.7198
  21   2.0000      -0.367190        -9.9917
  22   2.0000      -0.353547        -9.6205
  23   2.0000      -0.341401        -9.2900
  24   2.0000      -0.333672        -9.0797
  25   2.0000      -0.322918        -8.7871
  26   2.0000      -0.309618        -8.4251
  27   2.0000      -0.297725        -8.1015
  28   2.0000      -0.290991        -7.9183
  29   2.0000      -0.284911        -7.7528
  30   2.0000      -0.261526        -7.1165
  31   2.0000      -0.256544        -6.9809
  32   0.0000       0.089778         2.4430
  33   0.0000       0.093601         2.5470
  34   0.0000       0.112589         3.0637
  35   0.0000       0.122557         3.3350
  36   0.0000       0.122626         3.3368

MULLIKEN ATOMIC CHARGES
-----------------------
   0 C :   -0.494565
   1 C :   -0.026685
   2 C :   -0.331677
   3 C :   -0.331762
   4 C :   -0.026708
   5 C :   -0.331719
   6 C :   -0.331728
   7 C :   -0.494596
   8 H :    0.145881
   9 H :    0.145894
  10 H :    0.148353
  11 H :    0.152488
  12 H :    0.143596
  13 H :    0.152438
  14 H :    0.152460
  15 H :    0.143604
  16 H :    0.152502
  17 H :    0.152439
  18 H :    0.143598
  19 H :    0.143601
  20 H :    0.152460
  21 H :    0.145887
  22 H :    0.148362
  23 H :    0.145877
Sum of atomic charges:    0.0000000

LOEWDIN ATOMIC CHARGES
----------------------
   0 C :   -0.414948
   1 C :   -0.236912
   2 C :   -0.296242
   3 C :   -0.296239
   4 C :   -0.236927
   5 C :   -0.296239
   6 C :   -0.296240
   7 C :   -0.414958
   8 H :    0.152648
   9 H :    0.152651
  10 H :    0.153318
  11 H :    0.157044
  12 H :    0.156752
  13 H :    0.157585
  14 H :    0.157582
  15 H :    0.156765
  16 H :    0.157044
  17 H :    0.157584
  18 H :    0.156760
  19 H :    0.156758
  20 H :    0.157584
  21 H :    0.152656
  22 H :    0.153323
  23 H :    0.152652

  Mayer bond orders larger than 0.100000
B(  0-C ,  1-C ) :   0.8912 B(  0-C ,  8-H ) :   0.9773 B(  0-C ,  9-H ) :   0.9773
B(  0-C , 10-H ) :   0.9960 B(  1-C ,  2-C ) :   0.9251 B(  1-C ,  6-C ) :   0.9251
B(  1-C , 11-H ) :   0.9514 B(  2-C ,  3-C ) :   0.8804 B(  2-C , 12-H ) :   0.9436
B(  2-C , 13-H ) :   1.0092 B(  3-C ,  4-C ) :   0.9251 B(  3-C , 14-H ) :   1.0093
B(  3-C , 15-H ) :   0.9435 B(  4-C ,  5-C ) :   0.9252 B(  4-C ,  7-C ) :   0.8912
B(  4-C , 16-H ) :   0.9513 B(  5-C ,  6-C ) :   0.8804 B(  5-C , 17-H ) :   1.0093
B(  5-C , 18-H ) :   0.9436 B(  6-C , 19-H ) :   0.9436 B(  6-C , 20-H ) :   1.0093
B(  7-C , 21-H ) :   0.9773 B(  7-C , 22-H ) :   0.9960 B(  7-C , 23-H ) :   0.9773

Dispersion correction           -0.007331251
FINAL SINGLE POINT ENERGY      -314.396717592394

DIPOLE MOMENT
-------------

Method             : SCF
Type of density    : Electron Density
Multiplicity       :   1
Irrep              :   0
Energy             :  -314.3998120219370094 Eh
Relativity type    :
Basis              : AO
                                X                 Y                 Z
Electronic contribution:      0.000033549      -0.000007629       0.000609418
Nuclear contribution   :     -0.000091754       0.000001465      -0.000579339
                        -----------------------------------------
Total Dipole Moment    :     -0.000058205      -0.000006165       0.000030079
                        -----------------------------------------
Magnitude (a.u.)       :      0.000065807
Magnitude (Debye)      :      0.000167267

Rotational constants in cm-1:             0.138681             0.044603             0.036461
Rotational constants in MHz :          4157.537919          1337.165761          1093.087127

                             ****ORCA TERMINATED NORMALLY****
TOTAL RUN TIME: 0 days 0 hours 0 minutes 17 seconds 629 msec
