                         Program Version 6.0.1  -  RELEASE   -
|  1> ! pbe def2-sv(p) def2/J RI DEFGRID1 loosescf d4 GCP(DFT/SV(P)) printgap
|  2> %output
|  3>     printlevel normal
|  4> end
|  5> * xyz 0 1
|  6> C -2.0434847977 -1.2421780047 -0.245739307
|  7> C -1.248217195 -0.3758310583 0.7565530751
|  8> H -1.8851008086 -0.2778204273 1.6451992575
|  9> C -0.9455107024 1.0438246416 0.21854796
| 10> H -1.3022717689 1.1642873261 -0.8114461423
| 11> C 0.5690286739 1.2903224654 0.2284960113
| 12> H 0.9110862162 1.3831076349 1.2734325595
| 13> C 1.3019103364 0.1080836056 -0.415383778
| 14> H 0.936105596 -0.0116781686 -1.4496145414
| 15> C 1.0101533335 -1.1824649472 0.3861478095
| 16> H 1.8610506693 -1.371442765 1.0500755148
| 17> O -0.0877678001 -1.0063611066 1.2632907986
| 18> O 0.8921479326 -2.3010205026 -0.4093703443
| 19> O 2.6845071439 0.3222545784 -0.4183537193
| 20> O 0.8959388172 2.454723181 -0.4940539004
| 21> O -1.6215898032 2.0519425064 0.932235488
| 22> O -1.4727142982 -1.3424023222 -1.5312911186
| 23> H -3.0632666961 -0.8458484575 -0.3084440955
| 24> H -2.0798442125 -2.262564467 0.1425306301
| 25> H 0.1412208975 -2.1916086712 -1.0190478713
| 26> H 2.8391931496 1.2063539809 -0.7768330408
| 27> H 0.2864457739 3.1532782857 -0.2251173755
| 28> H -1.3767140872 1.9963455246 1.8642879031
| 29> H -1.5929528719 -0.5168850628 -2.0134441472
| 30> *
| 31>
| 32>                          ****END OF INPUT****

CARTESIAN COORDINATES (ANGSTROEM)
---------------------------------
  C     -2.043485   -1.242178   -0.245739
  C     -1.248217   -0.375831    0.756553
  H     -1.885101   -0.277820    1.645199
  C     -0.945511    1.043825    0.218548
  H     -1.302272    1.164287   -0.811446
  C      0.569029    1.290322    0.228496
  H      0.911086    1.383108    1.273433
  C      1.301910    0.108084   -0.415384
  H      0.936106   -0.011678   -1.449615
  C      1.010153   -1.182465    0.386148
  H      1.861051   -1.371443    1.050076
  O     -0.087768   -1.006361    1.263291
  O      0.892148   -2.301021   -0.409370
  O      2.684507    0.322255   -0.418354
  O      0.895939    2.454723   -0.494054
  O     -1.621590    2.051943    0.932235
  O     -1.472714   -1.342402   -1.531291
  H     -3.063267   -0.845848   -0.308444
  H     -2.079844   -2.262564    0.142531
  H      0.141221   -2.191609   -1.019048
  H      2.839193    1.206354   -0.776833
  H      0.286446    3.153278   -0.225117
  H     -1.376714    1.996346    1.864288
  H     -1.592953   -0.516885   -2.013444

 Total Charge           Charge          ....    0
 Multiplicity           Mult            ....    1
 Number of Electrons    NEL             ....   96
 Basis Dimension        Dim             ....  192

ORBITAL ENERGIES
----------------

  NO   OCC          E(Eh)            E(eV)
   0   2.0000     -18.791534      -511.3436
   1   2.0000     -18.774319      -510.8752
   2   2.0000     -18.765003      -510.6217
   3   2.0000     -18.763761      -510.5879
   4   2.0000     -18.745476      -510.0903
   5   2.0000     -18.735501      -509.8189
   6   2.0000      -9.975043      -271.4347
   7   2.0000      -9.960128      -271.0289
   8   2.0000      -9.956792      -270.9381
   9   2.0000      -9.954300      -270.8703
  10   2.0000      -9.947670      -270.6899
  11   2.0000      -9.939653      -270.4717
  12   2.0000      -0.978851       -26.6359
  13   2.0000      -0.960513       -26.1369
  14   2.0000      -0.954997       -25.9868
  15   2.0000      -0.940682       -25.5973
  16   2.0000      -0.918774       -25.0011
  17   2.0000      -0.901151       -24.5216
  18   2.0000      -0.711636       -19.3646
  19   2.0000      -0.694893       -18.9090
  20   2.0000      -0.633171       -17.2295
  21   2.0000      -0.595325       -16.1996
  22   2.0000      -0.577682       -15.7195
  23   2.0000      -0.532275       -14.4839
  24   2.0000      -0.508226       -13.8295
  25   2.0000      -0.496803       -13.5187
  26   2.0000      -0.480381       -13.0718
  27   2.0000      -0.467101       -12.7105
  28   2.0000      -0.445178       -12.1139
  29   2.0000      -0.439050       -11.9472
  30   2.0000      -0.422810       -11.5052
  31   2.0000      -0.409315       -11.1380
  32   2.0000      -0.406347       -11.0573
  33   2.0000      -0.389445       -10.5973
  34   2.0000      -0.365326        -9.9410
  35   2.0000      -0.357454        -9.7268
  36   2.0000      -0.331263        -9.0141
  37   2.0000      -0.317087        -8.6284
  38   2.0000      -0.311081        -8.4649
  39   2.0000      -0.302018        -8.2183
  40   2.0000      -0.290119        -7.8945
  41   2.0000      -0.281504        -7.6601
  42   2.0000      -0.263946        -7.1823
  43   2.0000      -0.258991        -7.0475
  44   2.0000      -0.238255        -6.4832
  45   2.0000      -0.219236        -5.9657
  46   2.0000      -0.217949        -5.9307
  47   2.0000      -0.206626        -5.6226
  48   0.0000      -0.006649        -0.1809
  49   0.0000       0.010471         0.2849
  50   0.0000       0.027357         0.7444
  51   0.0000       0.049842         1.3563
  52   0.0000       0.059219         1.6114

MULLIKEN ATOMIC CHARGES
-----------------------
   0 C :   -0.023504
   1 C :    0.083758
   2 H :    0.066994
   3 C :   -0.001664
   4 H :    0.039553
   5 C :    0.063114
   6 H :    0.050793
   7 C :    0.008564
   8 H :    0.034970
   9 C :    0.234107
  10 H :    0.075792
  11 O :   -0.304790
  12 O :   -0.402470
  13 O :   -0.408099
  14 O :   -0.423633
  15 O :   -0.417913
  16 O :   -0.433798
  17 H :    0.100708
  18 H :    0.114245
  19 H :    0.306331
  20 H :    0.307232
  21 H :    0.304416
  22 H :    0.304001
  23 H :    0.321292
Sum of atomic charges:   -0.0000000

LOEWDIN ATOMIC CHARGES
----------------------
   0 C :   -0.140652
   1 C :   -0.080238
   2 H :    0.121961
   3 C :   -0.082616
   4 H :    0.100479
   5 C :   -0.086907
   6 H :    0.103712
   7 C :   -0.084618
   8 H :    0.094889
   9 C :    0.003103
  10 H :    0.117901
  11 O :   -0.148571
  12 O :   -0.305739
  13 O :   -0.311211
  14 O :   -0.326629
  15 O :   -0.313055
  16 O :   -0.318089
  17 H :    0.113509
  18 H :    0.126246
  19 H :    0.269413
  20 H :    0.286011
  21 H :    0.285820
  22 H :    0.286480
  23 H :    0.288802

  Mayer bond orders larger than 0.100000
B(  0-C ,  1-C ) :   1.0127 B(  0-C , 16-O ) :   1.0368 B(  0-C , 17-H ) :   0.9194
B(  0-C , 18-H ) :   0.9170 B(  1-C ,  2-H ) :   0.8814 B(  1-C ,  3-C ) :   0.9387
B(  1-C , 11-O ) :   1.0756 B(  3-C ,  4-H ) :   0.8739 B(  3-C ,  5-C ) :   1.0113
B(  3-C , 15-O ) :   1.0240 B(  5-C ,  6-H ) :   0.8609 B(  5-C ,  7-C ) :   1.0103
B(  5-C , 14-O ) :   1.0705 B(  7-C ,  8-H ) :   0.8757 B(  7-C ,  9-C ) :   0.9786
B(  7-C , 13-O ) :   1.0862 B(  9-C , 10-H ) :   0.8861 B(  9-C , 11-O ) :   1.0133
B(  9-C , 12-O ) :   1.1593 B( 12-O , 19-H ) :   0.7965 B( 13-O , 20-H ) :   0.8364
B( 14-O , 21-H ) :   0.8329 B( 15-O , 22-H ) :   0.8481 B( 16-O , 23-H ) :   0.8271

Dispersion correction           -0.025310859
FINAL SINGLE POINT ENERGY      -685.694630364700

DIPOLE MOMENT
-------------

Method             : SCF
Type of density    : Electron Density
Multiplicity       :   1
Irrep              :   0
Energy             :  -685.8275781363983015 Eh
Relativity type    :
Basis              : AO
                                X                 Y                 Z
Electronic contribution:      2.729905173      -0.131788144       0.649631914
Nuclear contribution   :     -4.038512500       1.340038520      -0.599307293
                        -----------------------------------------
Total Dipole Moment    :     -1.308607327       1.208250376       0.050324621
                        -----------------------------------------
Magnitude (a.u.)       :      1.781812188
Magnitude (Debye)      :      4.529006656

Rotational constants in cm-1:             0.035708             0.032473             0.021660
Rotational constants in MHz :          1070.498092           973.514395           649.345921

                             ****ORCA TERMINATED NORMALLY****
TOTAL RUN TIME: 0 days 0 hours 0 minutes 10 seconds 164 msec
