                         Program Version 6.0.1  -  RELEASE   -
|  1> ! pbe def2-sv(p) def2/J RI DEFGRID1 loosescf d4 GCP(DFT/SV(P)) printgap
|  2> %output
|  3>     printlevel normal
|  4> end
|  5> * xyz 0 1
|  6> C -2.0595457911 -1.375272255 -0.1668102989
|  7> C -1.0323893863 -0.5100561099 0.5815114562
|  8> H -1.50002905 -0.1573243028 1.5093227856
|  9> C -0.6474287601 0.717809258 -0.2537184584
| 10> H -0.5339212749 0.4366429668 -1.3147205089
| 11> C 0.7079302263 1.2289836421 0.2377012852
| 12> H 0.6950339292 1.3298519394 1.3333676916
| 13> C 1.7624984505 0.1863091507 -0.1411868617
| 14> H 1.9361179532 0.2416428615 -1.2269152923
| 15> C 1.2221152843 -1.2336535572 0.1593290913
| 16> H 1.9814106365 -1.7935503563 0.7331109163
| 17> O 0.1074457816 -1.2531899286 0.9989693983
| 18> O 0.9785497365 -1.847431068 -1.072905851
| 19> O 2.9363032965 0.4963223328 0.5676047063
| 20> O 0.954766887 2.4750397622 -0.3657433904
| 21> O -1.6571575515 1.6862988706 -0.1281721509
| 22> O -3.3056677601 -0.7394329832 -0.233117329
| 23> H -2.2095411934 -2.3137543484 0.3744779528
| 24> H -1.6836864513 -1.6022078448 -1.1772263656
| 25> H 0.5867746913 -2.7163885504 -0.9191151581
| 26> H 3.6293809021 -0.1308351629 0.334418879
| 27> H 1.85138058 2.7398661038 -0.1319074845
| 28> H -1.2634688858 2.5351396527 -0.3711743793
| 29> H -3.1575567697 0.2008167605 -0.406468487
| 30> *
| 31>
| 32>                          ****END OF INPUT****

CARTESIAN COORDINATES (ANGSTROEM)
---------------------------------
  C     -2.059546   -1.375272   -0.166810
  C     -1.032389   -0.510056    0.581511
  H     -1.500029   -0.157324    1.509323
  C     -0.647429    0.717809   -0.253718
  H     -0.533921    0.436643   -1.314721
  C      0.707930    1.228984    0.237701
  H      0.695034    1.329852    1.333368
  C      1.762498    0.186309   -0.141187
  H      1.936118    0.241643   -1.226915
  C      1.222115   -1.233654    0.159329
  H      1.981411   -1.793550    0.733111
  O      0.107446   -1.253190    0.998969
  O      0.978550   -1.847431   -1.072906
  O      2.936303    0.496322    0.567605
  O      0.954767    2.475040   -0.365743
  O     -1.657158    1.686299   -0.128172
  O     -3.305668   -0.739433   -0.233117
  H     -2.209541   -2.313754    0.374478
  H     -1.683686   -1.602208   -1.177226
  H      0.586775   -2.716389   -0.919115
  H      3.629381   -0.130835    0.334419
  H      1.851381    2.739866   -0.131907
  H     -1.263469    2.535140   -0.371174
  H     -3.157557    0.200817   -0.406468

 Total Charge           Charge          ....    0
 Multiplicity           Mult            ....    1
 Number of Electrons    NEL             ....   96
 Basis Dimension        Dim             ....  192

ORBITAL ENERGIES
----------------

  NO   OCC          E(Eh)            E(eV)
   0   2.0000     -18.777080      -510.9503
   1   2.0000     -18.771769      -510.8058
   2   2.0000     -18.769780      -510.7517
   3   2.0000     -18.766898      -510.6733
   4   2.0000     -18.763045      -510.5684
   5   2.0000     -18.732552      -509.7386
   6   2.0000      -9.994939      -271.9761
   7   2.0000      -9.950180      -270.7582
   8   2.0000      -9.949757      -270.7466
   9   2.0000      -9.948720      -270.7184
  10   2.0000      -9.944153      -270.5942
  11   2.0000      -9.923240      -270.0251
  12   2.0000      -0.991472       -26.9793
  13   2.0000      -0.958936       -26.0940
  14   2.0000      -0.945672       -25.7331
  15   2.0000      -0.929536       -25.2940
  16   2.0000      -0.921160       -25.0660
  17   2.0000      -0.910530       -24.7768
  18   2.0000      -0.714352       -19.4385
  19   2.0000      -0.697199       -18.9718
  20   2.0000      -0.616077       -16.7643
  21   2.0000      -0.593836       -16.1591
  22   2.0000      -0.571971       -15.5641
  23   2.0000      -0.536018       -14.5858
  24   2.0000      -0.512299       -13.9404
  25   2.0000      -0.487300       -13.2601
  26   2.0000      -0.471772       -12.8376
  27   2.0000      -0.468768       -12.7558
  28   2.0000      -0.449112       -12.2210
  29   2.0000      -0.431683       -11.7467
  30   2.0000      -0.421802       -11.4778
  31   2.0000      -0.399970       -10.8837
  32   2.0000      -0.393640       -10.7115
  33   2.0000      -0.378109       -10.2889
  34   2.0000      -0.370789       -10.0897
  35   2.0000      -0.352736        -9.5984
  36   2.0000      -0.334002        -9.0887
  37   2.0000      -0.328473        -8.9382
  38   2.0000      -0.318209        -8.6589
  39   2.0000      -0.295231        -8.0337
  40   2.0000      -0.292977        -7.9723
  41   2.0000      -0.273015        -7.4291
  42   2.0000      -0.251009        -6.8303
  43   2.0000      -0.247751        -6.7416
  44   2.0000      -0.238743        -6.4965
  45   2.0000      -0.230971        -6.2850
  46   2.0000      -0.223013        -6.0685
  47   2.0000      -0.201437        -5.4814
  48   0.0000       0.007929         0.2158
  49   0.0000       0.020865         0.5678
  50   0.0000       0.032899         0.8952
  51   0.0000       0.046905         1.2764
  52   0.0000       0.060654         1.6505

MULLIKEN ATOMIC CHARGES
-----------------------
   0 C :    0.075979
   1 C :    0.028996
   2 H :    0.084949
   3 C :   -0.000827
   4 H :    0.074280
   5 C :    0.056184
   6 H :    0.070934
   7 C :    0.045918
   8 H :    0.074418
   9 C :    0.168476
  10 H :    0.049749
  11 O :   -0.308065
  12 O :   -0.398712
  13 O :   -0.416711
  14 O :   -0.428125
  15 O :   -0.424388
  16 O :   -0.443371
  17 H :    0.080693
  18 H :    0.060240
  19 H :    0.305918
  20 H :    0.307649
  21 H :    0.314690
  22 H :    0.316003
  23 H :    0.305122
Sum of atomic charges:   -0.0000000

LOEWDIN ATOMIC CHARGES
----------------------
   0 C :   -0.132579
   1 C :   -0.067798
   2 H :    0.122914
   3 C :   -0.074310
   4 H :    0.107708
   5 C :   -0.070960
   6 H :    0.112593
   7 C :   -0.088588
   8 H :    0.111512
   9 C :   -0.008020
  10 H :    0.093455
  11 O :   -0.134767
  12 O :   -0.312685
  13 O :   -0.318958
  14 O :   -0.321410
  15 O :   -0.313538
  16 O :   -0.337859
  17 H :    0.107631
  18 H :    0.089899
  19 H :    0.285027
  20 H :    0.289670
  21 H :    0.294881
  22 H :    0.290258
  23 H :    0.275925

  Mayer bond orders larger than 0.100000
B(  0-C ,  1-C ) :   1.0721 B(  0-C , 16-O ) :   1.0843 B(  0-C , 17-H ) :   0.9199
B(  0-C , 18-H ) :   0.8986 B(  1-C ,  2-H ) :   0.8821 B(  1-C ,  3-C ) :   0.9847
B(  1-C , 11-O ) :   0.9565 B(  3-C ,  4-H ) :   0.8800 B(  3-C ,  5-C ) :   1.0311
B(  3-C , 15-O ) :   1.0506 B(  5-C ,  6-H ) :   0.8671 B(  5-C ,  7-C ) :   1.0479
B(  5-C , 14-O ) :   1.0729 B(  7-C ,  8-H ) :   0.8762 B(  7-C ,  9-C ) :   0.9746
B(  7-C , 13-O ) :   1.0810 B(  9-C , 10-H ) :   0.8940 B(  9-C , 11-O ) :   1.1055
B(  9-C , 12-O ) :   1.0910 B( 12-O , 19-H ) :   0.8319 B( 13-O , 20-H ) :   0.8461
B( 14-O , 21-H ) :   0.8385 B( 15-O , 22-H ) :   0.8224 B( 16-O , 23-H ) :   0.8237

Dispersion correction           -0.024642636
FINAL SINGLE POINT ENERGY      -685.694747190067

DIPOLE MOMENT
-------------

Method             : SCF
Type of density    : Electron Density
Multiplicity       :   1
Irrep              :   0
Energy             :  -685.8269149374415292 Eh
Relativity type    :
Basis              : AO
                                X                 Y                 Z
Electronic contribution:      1.218284969       1.086949045       0.982363567
Nuclear contribution   :      0.311584999      -1.141930894      -1.188206033
                        -----------------------------------------
Total Dipole Moment    :      1.529869968      -0.054981849      -0.205842466
                        -----------------------------------------
Magnitude (a.u.)       :      1.544634663
Magnitude (Debye)      :      3.926149298

Rotational constants in cm-1:             0.043979             0.026376             0.018629
Rotational constants in MHz :          1318.453847           790.718746           558.490667

                             ****ORCA TERMINATED NORMALLY****
TOTAL RUN TIME: 0 days 0 hours 0 minutes 9 seconds 849 msec
