                         Program Version 6.0.1  -  RELEASE   -
|  1> ! pbe def2-sv(p) def2/J RI DEFGRID1 loosescf d4 GCP(DFT/SV(P)) printgap
|  2> %output
|  3>     printlevel normal
|  4> end
|  5> * xyz 0 1
|  6> C -2.9812708565 -0.070488429 -0.5619883378
|  7> C -2.0984647271 0.0799856521 0.6751374939
|  8> H -2.7402411763 0.0048425197 1.5612493657
|  9> C -1.3719782608 1.423024812 0.7209770041
| 10> C -0.4139484323 1.5875908825 -0.4537701358
| 11> C 0.5599216858 0.4190894147 -0.6739473248
| 12> H 0.8009931499 0.3945100779 -1.7439635375
| 13> C -0.0181838839 -0.9468106105 -0.354963022
| 14> O 0.3725429199 -1.9340782316 -0.9328230138
| 15> C -1.0619737158 -1.0420438439 0.7323048211
| 16> C 1.9333888344 0.6016837724 0.0315771199
| 17> C 1.928223197 0.2738681175 1.5220660741
| 18> C 2.9950351513 -0.2422891024 -0.6718650308
| 19> H -3.5809976465 -0.9747158042 -0.485413871
| 20> H -3.6544188582 0.7787374221 -0.6581989638
| 21> H -2.3791941437 -0.1450966951 -1.463921875
| 22> H -2.1001909216 2.2371692791 0.6970835768
| 23> H -0.8311901529 1.5001380136 1.6658811405
| 24> H -1.0088187006 1.7113469406 -1.3610043449
| 25> H 0.1593144904 2.5086651576 -0.3235526127
| 26> H -1.5412542669 -2.0207278821 0.6575169963
| 27> H -0.5404392353 -1.0001137874 1.6914558857
| 28> H 2.2039381564 1.6585445473 -0.0827187544
| 29> H 2.8912422846 0.5393922925 1.9544888045
| 30> H 1.7737856438 -0.7911492889 1.6802203546
| 31> H 1.1608607963 0.8302231468 2.052830286
| 32> H 3.9501810357 -0.1531442144 -0.1590376963
| 33> H 3.1275727 0.0821775106 -1.7016424205
| 34> H 2.7021207248 -1.2893402044 -0.6797109013
| 35> *
| 36>
| 37>                          ****END OF INPUT****

CARTESIAN COORDINATES (ANGSTROEM)
---------------------------------
  C     -2.981271   -0.070488   -0.561988
  C     -2.098465    0.079986    0.675137
  H     -2.740241    0.004843    1.561249
  C     -1.371978    1.423025    0.720977
  C     -0.413948    1.587591   -0.453770
  C      0.559922    0.419089   -0.673947
  H      0.800993    0.394510   -1.743964
  C     -0.018184   -0.946811   -0.354963
  O      0.372543   -1.934078   -0.932823
  C     -1.061974   -1.042044    0.732305
  C      1.933389    0.601684    0.031577
  C      1.928223    0.273868    1.522066
  C      2.995035   -0.242289   -0.671865
  H     -3.580998   -0.974716   -0.485414
  H     -3.654419    0.778737   -0.658199
  H     -2.379194   -0.145097   -1.463922
  H     -2.100191    2.237169    0.697084
  H     -0.831190    1.500138    1.665881
  H     -1.008819    1.711347   -1.361004
  H      0.159314    2.508665   -0.323553
  H     -1.541254   -2.020728    0.657517
  H     -0.540439   -1.000114    1.691456
  H      2.203938    1.658545   -0.082719
  H      2.891242    0.539392    1.954489
  H      1.773786   -0.791149    1.680220
  H      1.160861    0.830223    2.052830
  H      3.950181   -0.153144   -0.159038
  H      3.127573    0.082178   -1.701642
  H      2.702121   -1.289340   -0.679711

 Total Charge           Charge          ....    0
 Multiplicity           Mult            ....    1
 Number of Electrons    NEL             ....   86
 Basis Dimension        Dim             ....  190

ORBITAL ENERGIES
----------------

  NO   OCC          E(Eh)            E(eV)
   0   2.0000     -18.732359      -509.7334
   1   2.0000      -9.968591      -271.2592
   2   2.0000      -9.904913      -269.5264
   3   2.0000      -9.904275      -269.5090
   4   2.0000      -9.896601      -269.3002
   5   2.0000      -9.890630      -269.1377
   6   2.0000      -9.889601      -269.1097
   7   2.0000      -9.887762      -269.0597
   8   2.0000      -9.879295      -268.8293
   9   2.0000      -9.879148      -268.8253
  10   2.0000      -9.866477      -268.4805
  11   2.0000      -0.935299       -25.4508
  12   2.0000      -0.766135       -20.8476
  13   2.0000      -0.730109       -19.8673
  14   2.0000      -0.676779       -18.4161
  15   2.0000      -0.648530       -17.6474
  16   2.0000      -0.623179       -16.9576
  17   2.0000      -0.608657       -16.5624
  18   2.0000      -0.554845       -15.0981
  19   2.0000      -0.526250       -14.3200
  20   2.0000      -0.504099       -13.7172
  21   2.0000      -0.455130       -12.3847
  22   2.0000      -0.427748       -11.6396
  23   2.0000      -0.425267       -11.5721
  24   2.0000      -0.412151       -11.2152
  25   2.0000      -0.405562       -11.0359
  26   2.0000      -0.395711       -10.7679
  27   2.0000      -0.377795       -10.2803
  28   2.0000      -0.369329       -10.0499
  29   2.0000      -0.355913        -9.6849
  30   2.0000      -0.348664        -9.4876
  31   2.0000      -0.346589        -9.4312
  32   2.0000      -0.338631        -9.2146
  33   2.0000      -0.337307        -9.1786
  34   2.0000      -0.318595        -8.6694
  35   2.0000      -0.311609        -8.4793
  36   2.0000      -0.297574        -8.0974
  37   2.0000      -0.295823        -8.0497
  38   2.0000      -0.291377        -7.9288
  39   2.0000      -0.279345        -7.6014
  40   2.0000      -0.273450        -7.4409
  41   2.0000      -0.266932        -7.2636
  42   2.0000      -0.186284        -5.0690
  43   0.0000      -0.050872        -1.3843
  44   0.0000       0.021091         0.5739
  45   0.0000       0.046573         1.2673
  46   0.0000       0.049984         1.3601
  47   0.0000       0.064921         1.7666

MULLIKEN ATOMIC CHARGES
-----------------------
   0 C :   -0.256699
   1 C :   -0.178729
   2 H :    0.070462
   3 C :   -0.132161
   4 C :   -0.111565
   5 C :   -0.089556
   6 H :    0.073952
   7 C :   -0.035479
   8 O :   -0.152720
   9 C :   -0.067195
  10 C :   -0.179898
  11 C :   -0.271094
  12 C :   -0.237528
  13 H :    0.105425
  14 H :    0.102612
  15 H :    0.117712
  16 H :    0.083609
  17 H :    0.089166
  18 H :    0.087887
  19 H :    0.078148
  20 H :    0.085247
  21 H :    0.101212
  22 H :    0.074065
  23 H :    0.102945
  24 H :    0.120716
  25 H :    0.109091
  26 H :    0.094025
  27 H :    0.096913
  28 H :    0.119436
Sum of atomic charges:    0.0000000

LOEWDIN ATOMIC CHARGES
----------------------
   0 C :   -0.331703
   1 C :   -0.148676
   2 H :    0.117776
   3 C :   -0.219848
   4 C :   -0.217603
   5 C :   -0.158154
   6 H :    0.133392
   7 C :    0.052136
   8 O :   -0.121521
   9 C :   -0.237061
  10 C :   -0.133785
  11 C :   -0.336644
  12 C :   -0.334829
  13 H :    0.123760
  14 H :    0.119997
  15 H :    0.120070
  16 H :    0.118943
  17 H :    0.113554
  18 H :    0.120496
  19 H :    0.118354
  20 H :    0.128623
  21 H :    0.138631
  22 H :    0.115436
  23 H :    0.122909
  24 H :    0.121462
  25 H :    0.114637
  26 H :    0.115537
  27 H :    0.117718
  28 H :    0.126394

  Mayer bond orders larger than 0.100000
B(  0-C ,  1-C ) :   1.1035 B(  0-C , 13-H ) :   0.9467 B(  0-C , 14-H ) :   0.9498
B(  0-C , 15-H ) :   0.9386 B(  1-C ,  2-H ) :   0.8940 B(  1-C ,  3-C ) :   1.0789
B(  1-C ,  9-C ) :   1.0586 B(  3-C ,  4-C ) :   1.1342 B(  3-C , 16-H ) :   0.9073
B(  3-C , 17-H ) :   0.9109 B(  4-C ,  5-C ) :   1.0535 B(  4-C , 18-H ) :   0.9103
B(  4-C , 19-H ) :   0.9047 B(  5-C ,  6-H ) :   0.8669 B(  5-C ,  7-C ) :   0.9382
B(  5-C , 10-C ) :   1.0312 B(  7-C ,  8-O ) :   2.1648 B(  7-C ,  9-C ) :   1.0359
B(  9-C , 20-H ) :   0.8903 B(  9-C , 21-H ) :   0.8769 B( 10-C , 11-C ) :   1.1277
B( 10-C , 12-C ) :   1.1172 B( 10-C , 22-H ) :   0.8960 B( 11-C , 23-H ) :   0.9400
B( 11-C , 24-H ) :   0.9324 B( 11-C , 25-H ) :   0.9353 B( 12-C , 26-H ) :   0.9462
B( 12-C , 27-H ) :   0.9459 B( 12-C , 28-H ) :   0.9330

Dispersion correction           -0.031593867
FINAL SINGLE POINT ENERGY      -466.029908354630

DIPOLE MOMENT
-------------

Method             : SCF
Type of density    : Electron Density
Multiplicity       :   1
Irrep              :   0
Energy             :  -466.1256722962638150 Eh
Relativity type    :
Basis              : AO
                                X                 Y                 Z
Electronic contribution:     -0.673422665      -4.619808500      -2.582424784
Nuclear contribution   :      0.374472565       5.479711629       3.083574215
                        -----------------------------------------
Total Dipole Moment    :     -0.298950100       0.859903129       0.501149431
                        -----------------------------------------
Magnitude (a.u.)       :      1.039208981
Magnitude (Debye)      :      2.641459308

Rotational constants in cm-1:             0.059227             0.028123             0.024430
Rotational constants in MHz :          1775.574488           843.113015           732.401536

                             ****ORCA TERMINATED NORMALLY****
TOTAL RUN TIME: 0 days 0 hours 0 minutes 18 seconds 284 msec
