                         Program Version 6.0.1  -  RELEASE   -
|  1> ! pbe def2-sv(p) def2/J RI DEFGRID1 loosescf d4 GCP(DFT/SV(P)) printgap
|  2> %output
|  3>     printlevel normal
|  4> end
|  5> * xyz 0 1
|  6> C -3.2622761965 -0.320203265 0.2112400723
|  7> C -1.8719155378 -0.4821922979 -0.411072245
|  8> H -1.9970884213 -0.5933014164 -1.4939164894
|  9> C -1.1265939358 -1.6947187959 0.147835487
| 10> C 0.3635417733 -1.5409212273 -0.1386701496
| 11> C 0.9575344682 -0.4130264047 0.7186309527
| 12> H 1.1990718427 -0.8254696352 1.7039259098
| 13> C -0.0777540911 0.7185825829 0.929692751
| 14> C -1.0898063989 0.7989677009 -0.1821472442
| 15> O -1.2957895326 1.8023547455 -0.8203123081
| 16> C 2.2334449107 0.1391772179 0.1292835129
| 17> C 3.373380085 0.0766931219 0.7998628584
| 18> C 2.1515835715 0.7672480042 -1.2294892876
| 19> H -3.8626835839 -1.2064931855 0.0189373812
| 20> H -3.1861902617 -0.1809971712 1.2881081662
| 21> H -3.7657747071 0.5441260657 -0.2146976913
| 22> H -1.2881086277 -1.7789138872 1.2246516947
| 23> H -1.5120847557 -2.6052533791 -0.3145929242
| 24> H 0.8969656827 -2.4698554386 0.0688883112
| 25> H 0.4879108735 -1.3144569133 -1.1986055718
| 26> H -0.6388478121 0.519527657 1.8456394828
| 27> H 0.4263496784 1.6794276597 1.0436167533
| 28> H 4.290270525 0.4754583883 0.3998972254
| 29> H 3.4412951473 -0.378361684 1.773837516
| 30> H 1.2524979284 1.3699334967 -1.3312709936
| 31> H 3.0190418333 1.3966533867 -1.4100605055
| 32> H 2.1303489022 -3.64792e-05 -2.0036464756
| 33> *
| 34>
| 35>                          ****END OF INPUT****

CARTESIAN COORDINATES (ANGSTROEM)
---------------------------------
  C     -3.262276   -0.320203    0.211240
  C     -1.871916   -0.482192   -0.411072
  H     -1.997088   -0.593301   -1.493916
  C     -1.126594   -1.694719    0.147835
  C      0.363542   -1.540921   -0.138670
  C      0.957534   -0.413026    0.718631
  H      1.199072   -0.825470    1.703926
  C     -0.077754    0.718583    0.929693
  C     -1.089806    0.798968   -0.182147
  O     -1.295790    1.802355   -0.820312
  C      2.233445    0.139177    0.129284
  C      3.373380    0.076693    0.799863
  C      2.151584    0.767248   -1.229489
  H     -3.862684   -1.206493    0.018937
  H     -3.186190   -0.180997    1.288108
  H     -3.765775    0.544126   -0.214698
  H     -1.288109   -1.778914    1.224652
  H     -1.512085   -2.605253   -0.314593
  H      0.896966   -2.469855    0.068888
  H      0.487911   -1.314457   -1.198606
  H     -0.638848    0.519528    1.845639
  H      0.426350    1.679428    1.043617
  H      4.290271    0.475458    0.399897
  H      3.441295   -0.378362    1.773838
  H      1.252498    1.369933   -1.331271
  H      3.019042    1.396653   -1.410061
  H      2.130349   -0.000036   -2.003646

 Total Charge           Charge          ....    0
 Multiplicity           Mult            ....    1
 Number of Electrons    NEL             ....   84
 Basis Dimension        Dim             ....  186

ORBITAL ENERGIES
----------------

  NO   OCC          E(Eh)            E(eV)
   0   2.0000     -18.740526      -509.9556
   1   2.0000      -9.970880      -271.3214
   2   2.0000      -9.908628      -269.6275
   3   2.0000      -9.902703      -269.4662
   4   2.0000      -9.900988      -269.4196
   5   2.0000      -9.895029      -269.2574
   6   2.0000      -9.894709      -269.2487
   7   2.0000      -9.893846      -269.2252
   8   2.0000      -9.889102      -269.0961
   9   2.0000      -9.879688      -268.8400
  10   2.0000      -9.873785      -268.6793
  11   2.0000      -0.940512       -25.5926
  12   2.0000      -0.774223       -21.0677
  13   2.0000      -0.730428       -19.8760
  14   2.0000      -0.683129       -18.5889
  15   2.0000      -0.662725       -18.0337
  16   2.0000      -0.617936       -16.8149
  17   2.0000      -0.603979       -16.4351
  18   2.0000      -0.555184       -15.1073
  19   2.0000      -0.535892       -14.5824
  20   2.0000      -0.476452       -12.9649
  21   2.0000      -0.467239       -12.7142
  22   2.0000      -0.441423       -12.0117
  23   2.0000      -0.423380       -11.5207
  24   2.0000      -0.409857       -11.1528
  25   2.0000      -0.399876       -10.8812
  26   2.0000      -0.391927       -10.6649
  27   2.0000      -0.378746       -10.3062
  28   2.0000      -0.369598       -10.0573
  29   2.0000      -0.357887        -9.7386
  30   2.0000      -0.354002        -9.6329
  31   2.0000      -0.350123        -9.5273
  32   2.0000      -0.338633        -9.2147
  33   2.0000      -0.327175        -8.9029
  34   2.0000      -0.324719        -8.8361
  35   2.0000      -0.317821        -8.6484
  36   2.0000      -0.306171        -8.3313
  37   2.0000      -0.289482        -7.8772
  38   2.0000      -0.283356        -7.7105
  39   2.0000      -0.277271        -7.5449
  40   2.0000      -0.219571        -5.9748
  41   2.0000      -0.192338        -5.2338
  42   0.0000      -0.054402        -1.4804
  43   0.0000      -0.012593        -0.3427
  44   0.0000       0.025178         0.6851
  45   0.0000       0.042967         1.1692
  46   0.0000       0.054872         1.4931

MULLIKEN ATOMIC CHARGES
-----------------------
   0 C :   -0.223870
   1 C :   -0.195855
   2 H :    0.085076
   3 C :   -0.087258
   4 C :   -0.108012
   5 C :   -0.141793
   6 H :    0.054654
   7 C :   -0.073984
   8 C :   -0.008139
   9 O :   -0.157480
  10 C :   -0.043693
  11 C :   -0.233111
  12 C :   -0.242876
  13 H :    0.109327
  14 H :    0.096204
  15 H :    0.118210
  16 H :    0.068769
  17 H :    0.088754
  18 H :    0.090089
  19 H :    0.083729
  20 H :    0.100129
  21 H :    0.102094
  22 H :    0.081397
  23 H :    0.083160
  24 H :    0.132905
  25 H :    0.101304
  26 H :    0.120269
Sum of atomic charges:    0.0000000

LOEWDIN ATOMIC CHARGES
----------------------
   0 C :   -0.316398
   1 C :   -0.173808
   2 H :    0.133457
   3 C :   -0.218259
   4 C :   -0.216164
   5 C :   -0.121278
   6 H :    0.121161
   7 C :   -0.235607
   8 C :    0.046924
   9 O :   -0.124266
  10 C :   -0.049001
  11 C :   -0.265726
  12 C :   -0.331526
  13 H :    0.123293
  14 H :    0.117351
  15 H :    0.127559
  16 H :    0.115240
  17 H :    0.122411
  18 H :    0.123488
  19 H :    0.119660
  20 H :    0.141904
  21 H :    0.133938
  22 H :    0.116742
  23 H :    0.115799
  24 H :    0.132759
  25 H :    0.128601
  26 H :    0.131746

  Mayer bond orders larger than 0.100000
B(  0-C ,  1-C ) :   1.1005 B(  0-C , 13-H ) :   0.9471 B(  0-C , 14-H ) :   0.9439
B(  0-C , 15-H ) :   0.9443 B(  1-C ,  2-H ) :   0.8731 B(  1-C ,  3-C ) :   1.0729
B(  1-C ,  8-C ) :   0.9405 B(  3-C ,  4-C ) :   1.1728 B(  3-C , 16-H ) :   0.8894
B(  3-C , 17-H ) :   0.9085 B(  4-C ,  5-C ) :   1.1014 B(  4-C , 18-H ) :   0.9142
B(  4-C , 19-H ) :   0.8918 B(  5-C ,  6-H ) :   0.8661 B(  5-C ,  7-C ) :   1.0416
B(  5-C , 10-C ) :   1.0248 B(  7-C ,  8-C ) :   1.0793 B(  7-C , 20-H ) :   0.8650
B(  7-C , 21-H ) :   0.8972 B(  8-C ,  9-O ) :   2.1579 B( 10-C , 11-C ) :   2.0350
B( 10-C , 12-C ) :   1.1097 B( 11-C , 22-H ) :   0.9074 B( 11-C , 23-H ) :   0.9093
B( 12-C , 24-H ) :   0.9171 B( 12-C , 25-H ) :   0.9335 B( 12-C , 26-H ) :   0.9200

Dispersion correction           -0.029060425
FINAL SINGLE POINT ENERGY      -464.824723396046

DIPOLE MOMENT
-------------

Method             : SCF
Type of density    : Electron Density
Multiplicity       :   1
Irrep              :   0
Energy             :  -464.9104784555261176 Eh
Relativity type    :
Basis              : AO
                                X                 Y                 Z
Electronic contribution:     -0.845164930       4.119279345      -0.911365964
Nuclear contribution   :      0.818543588      -5.009363064       1.301936713
                        -----------------------------------------
Total Dipole Moment    :     -0.026621342      -0.890083719       0.390570750
                        -----------------------------------------
Magnitude (a.u.)       :      0.972369906
Magnitude (Debye)      :      2.471567881

Rotational constants in cm-1:             0.067417             0.025538             0.021865
Rotational constants in MHz :          2021.106780           765.609342           655.487130

                             ****ORCA TERMINATED NORMALLY****
TOTAL RUN TIME: 0 days 0 hours 0 minutes 26 seconds 915 msec
