                         Program Version 6.0.1  -  RELEASE   -
|  1> ! pbe def2-sv(p) def2/J RI DEFGRID1 loosescf d4 GCP(DFT/SV(P)) printgap
|  2> %output
|  3>     printlevel normal
|  4> end
|  5> * xyz 0 1
|  6> C -2.3315472546 -0.5733404646 -0.0010380805
|  7> O -0.913594219 -0.6225327869 -0.0011819017
|  8> C -0.2870622117 0.5664915991 0.000829833
|  9> O -0.8735271918 1.6195788516 0.002392797
| 10> C 1.1880464081 0.4337205865 0.0006985284
| 11> C 1.8414098207 -0.7068307026 0.7421422318
| 12> C 1.8416297163 -0.7047182423 -0.7437873851
| 13> H -2.6719129974 -1.60576378 -0.0067289537
| 14> H -2.6933929464 -0.0442825395 -0.8851144191
| 15> H -2.6934992803 -0.0541548857 0.8888335604
| 16> H 1.6834984729 1.3956229739 0.0021384437
| 17> H 2.7604663337 -0.4941677163 1.2662561489
| 18> H 1.1899625221 -1.4015492684 1.2484208557
| 19> H 2.7608427007 -0.4905604015 -1.2670188172
| 20> H 1.1903526006 -1.3979915614 -1.252246114
| 21> *
| 22>
| 23>                          ****END OF INPUT****

CARTESIAN COORDINATES (ANGSTROEM)
---------------------------------
  C     -2.331547   -0.573340   -0.001038
  O     -0.913594   -0.622533   -0.001182
  C     -0.287062    0.566492    0.000830
  O     -0.873527    1.619579    0.002393
  C      1.188046    0.433721    0.000699
  C      1.841410   -0.706831    0.742142
  C      1.841630   -0.704718   -0.743787
  H     -2.671913   -1.605764   -0.006729
  H     -2.693393   -0.044283   -0.885114
  H     -2.693499   -0.054155    0.888834
  H      1.683498    1.395623    0.002138
  H      2.760466   -0.494168    1.266256
  H      1.189963   -1.401549    1.248421
  H      2.760843   -0.490560   -1.267019
  H      1.190353   -1.397992   -1.252246

 Total Charge           Charge          ....    0
 Multiplicity           Mult            ....    1
 Number of Electrons    NEL             ....   54
 Basis Dimension        Dim             ....  114

ORBITAL ENERGIES
----------------

  NO   OCC          E(Eh)            E(eV)
   0   2.0000     -18.798259      -511.5266
   1   2.0000     -18.732302      -509.7319
   2   2.0000     -10.003698      -272.2145
   3   2.0000      -9.939102      -270.4567
   4   2.0000      -9.912414      -269.7305
   5   2.0000      -9.903610      -269.4909
   6   2.0000      -9.903564      -269.4897
   7   2.0000      -1.004544       -27.3350
   8   2.0000      -0.911754       -24.8101
   9   2.0000      -0.797145       -21.6914
  10   2.0000      -0.666025       -18.1235
  11   2.0000      -0.577600       -15.7173
  12   2.0000      -0.545594       -14.8464
  13   2.0000      -0.507672       -13.8145
  14   2.0000      -0.469198       -12.7675
  15   2.0000      -0.447303       -12.1717
  16   2.0000      -0.431824       -11.7505
  17   2.0000      -0.406236       -11.0543
  18   2.0000      -0.383682       -10.4405
  19   2.0000      -0.356295        -9.6953
  20   2.0000      -0.344436        -9.3726
  21   2.0000      -0.329246        -8.9592
  22   2.0000      -0.309160        -8.4127
  23   2.0000      -0.284159        -7.7323
  24   2.0000      -0.267262        -7.2726
  25   2.0000      -0.256960        -6.9922
  26   2.0000      -0.216798        -5.8994
  27   0.0000      -0.019697        -0.5360
  28   0.0000       0.042101         1.1456
  29   0.0000       0.049855         1.3566
  30   0.0000       0.070812         1.9269
  31   0.0000       0.091205         2.4818

MULLIKEN ATOMIC CHARGES
-----------------------
   0 C :   -0.108390
   1 O :   -0.260408
   2 C :    0.180264
   3 O :   -0.189572
   4 C :   -0.197207
   5 C :   -0.185749
   6 C :   -0.185703
   7 H :    0.118417
   8 H :    0.117225
   9 H :    0.117113
  10 H :    0.105103
  11 H :    0.119387
  12 H :    0.125070
  13 H :    0.119386
  14 H :    0.125065
Sum of atomic charges:   -0.0000000

LOEWDIN ATOMIC CHARGES
----------------------
   0 C :   -0.206198
   1 O :   -0.085156
   2 C :    0.041927
   3 O :   -0.156873
   4 C :   -0.168526
   5 C :   -0.222266
   6 C :   -0.222268
   7 H :    0.118427
   8 H :    0.118053
   9 H :    0.118007
  10 H :    0.139672
  11 H :    0.130782
  12 H :    0.131816
  13 H :    0.130785
  14 H :    0.131818

  Mayer bond orders larger than 0.100000
B(  0-C ,  1-O ) :   0.9511 B(  0-C ,  7-H ) :   0.9584 B(  0-C ,  8-H ) :   0.9517
B(  0-C ,  9-H ) :   0.9519 B(  1-O ,  2-C ) :   1.1898 B(  2-C ,  3-O ) :   2.0748
B(  2-C ,  4-C ) :   1.0508 B(  4-C ,  5-C ) :   0.9607 B(  4-C ,  6-C ) :   0.9607
B(  4-C , 10-H ) :   0.9175 B(  5-C ,  6-C ) :   1.0872 B(  5-C , 11-H ) :   0.9275
B(  5-C , 12-H ) :   0.9256 B(  6-C , 13-H ) :   0.9275 B(  6-C , 14-H ) :   0.9256

Dispersion correction           -0.011105524
FINAL SINGLE POINT ENERGY      -345.030215179647

DIPOLE MOMENT
-------------

Method             : SCF
Type of density    : Electron Density
Multiplicity       :   1
Irrep              :   0
Energy             :  -345.0867556712813098 Eh
Relativity type    :
Basis              : AO
                                X                 Y                 Z
Electronic contribution:     -1.247751806       3.068375114       0.004017218
Nuclear contribution   :      1.405459435      -3.825006268      -0.005103796
                        -----------------------------------------
Total Dipole Moment    :      0.157707629      -0.756631154      -0.001086579
                        -----------------------------------------
Magnitude (a.u.)       :      0.772892994
Magnitude (Debye)      :      1.964537867

Rotational constants in cm-1:             0.173977             0.065358             0.053969
Rotational constants in MHz :          5215.712672          1959.375462          1617.939816

                             ****ORCA TERMINATED NORMALLY****
TOTAL RUN TIME: 0 days 0 hours 0 minutes 9 seconds 971 msec
