                         Program Version 6.0.1  -  RELEASE   -
|  1> ! pbe def2-sv(p) def2/J RI DEFGRID1 loosescf d4 GCP(DFT/SV(P)) printgap
|  2> %output
|  3>     printlevel normal
|  4> end
|  5> * xyz 0 1
|  6> C -2.4693962001 -0.6618479613 1.2953444771
|  7> C -2.0508170254 -0.4314403958 -0.1626716093
|  8> H -2.9640999537 -0.3763386142 -0.7634160079
|  9> C -1.142535237 -1.560347537 -0.6892998
| 10> C 0.2800192526 -1.0835001977 -0.9708704209
| 11> C 0.7956823231 -0.2873549258 0.2297974206
| 12> H 0.583209139 -0.8708789677 1.1313214462
| 13> C 0.0208586567 1.0367436758 0.2822110956
| 14> C -1.3951344475 0.9346675583 -0.2349942511
| 15> O -1.9900514212 1.9015569078 -0.6437488814
| 16> C 2.2855094569 -0.0286472282 0.1828720262
| 17> C 2.8950505643 0.4309742205 -0.8979340347
| 18> C 3.023857237 -0.3099387211 1.4560259386
| 19> H -3.0303134961 -1.5905646091 1.3765384957
| 20> H -1.6019847222 -0.7227110534 1.9477529676
| 21> H -3.103890787 0.1529920177 1.6378614875
| 22> H -1.1079170632 -2.3655289521 0.047911533
| 23> H -1.5677228547 -1.9752838 -1.6043905546
| 24> H 0.9260596558 -1.9419910068 -1.16237232
| 25> H 0.2878948698 -0.4500855958 -1.8593034076
| 26> H -0.0301843288 1.4200927463 1.305008569
| 27> H 0.5330820986 1.7974549782 -0.3118318869
| 28> H 3.9550069904 0.6192843896 -0.9117090865
| 29> H 2.3680629321 0.6386160331 -1.8129079913
| 30> H 2.9402937074 -1.3656204911 1.7144670499
| 31> H 4.0765359609 -0.057045907 1.363960903
| 32> H 2.5953980544 0.267583198 2.2749856348
| 33> *
| 34>
| 35>                          ****END OF INPUT****

CARTESIAN COORDINATES (ANGSTROEM)
---------------------------------
  C     -2.469396   -0.661848    1.295344
  C     -2.050817   -0.431440   -0.162672
  H     -2.964100   -0.376339   -0.763416
  C     -1.142535   -1.560348   -0.689300
  C      0.280019   -1.083500   -0.970870
  C      0.795682   -0.287355    0.229797
  H      0.583209   -0.870879    1.131321
  C      0.020859    1.036744    0.282211
  C     -1.395134    0.934668   -0.234994
  O     -1.990051    1.901557   -0.643749
  C      2.285509   -0.028647    0.182872
  C      2.895051    0.430974   -0.897934
  C      3.023857   -0.309939    1.456026
  H     -3.030313   -1.590565    1.376538
  H     -1.601985   -0.722711    1.947753
  H     -3.103891    0.152992    1.637861
  H     -1.107917   -2.365529    0.047912
  H     -1.567723   -1.975284   -1.604391
  H      0.926060   -1.941991   -1.162372
  H      0.287895   -0.450086   -1.859303
  H     -0.030184    1.420093    1.305009
  H      0.533082    1.797455   -0.311832
  H      3.955007    0.619284   -0.911709
  H      2.368063    0.638616   -1.812908
  H      2.940294   -1.365620    1.714467
  H      4.076536   -0.057046    1.363961
  H      2.595398    0.267583    2.274986

 Total Charge           Charge          ....    0
 Multiplicity           Mult            ....    1
 Number of Electrons    NEL             ....   84
 Basis Dimension        Dim             ....  186

ORBITAL ENERGIES
----------------

  NO   OCC          E(Eh)            E(eV)
   0   2.0000     -18.731858      -509.7198
   1   2.0000      -9.968167      -271.2476
   2   2.0000      -9.907596      -269.5994
   3   2.0000      -9.902941      -269.4727
   4   2.0000      -9.901007      -269.4201
   5   2.0000      -9.894506      -269.2432
   6   2.0000      -9.893850      -269.2253
   7   2.0000      -9.893367      -269.2122
   8   2.0000      -9.890628      -269.1377
   9   2.0000      -9.885551      -268.9995
  10   2.0000      -9.871022      -268.6042
  11   2.0000      -0.935300       -25.4508
  12   2.0000      -0.773506       -21.0482
  13   2.0000      -0.729508       -19.8509
  14   2.0000      -0.683542       -18.6001
  15   2.0000      -0.664121       -18.0717
  16   2.0000      -0.617857       -16.8127
  17   2.0000      -0.602244       -16.3879
  18   2.0000      -0.555352       -15.1119
  19   2.0000      -0.541705       -14.7405
  20   2.0000      -0.476769       -12.9735
  21   2.0000      -0.461716       -12.5639
  22   2.0000      -0.437954       -11.9173
  23   2.0000      -0.418140       -11.3782
  24   2.0000      -0.416678       -11.3384
  25   2.0000      -0.401563       -10.9271
  26   2.0000      -0.390152       -10.6166
  27   2.0000      -0.378501       -10.2995
  28   2.0000      -0.369494       -10.0544
  29   2.0000      -0.365098        -9.9348
  30   2.0000      -0.354928        -9.6581
  31   2.0000      -0.350362        -9.5338
  32   2.0000      -0.344805        -9.3826
  33   2.0000      -0.327358        -8.9079
  34   2.0000      -0.321275        -8.7423
  35   2.0000      -0.312699        -8.5090
  36   2.0000      -0.303830        -8.2676
  37   2.0000      -0.292660        -7.9637
  38   2.0000      -0.280348        -7.6287
  39   2.0000      -0.275395        -7.4939
  40   2.0000      -0.220153        -5.9907
  41   2.0000      -0.187036        -5.0895
  42   0.0000      -0.048077        -1.3082
  43   0.0000      -0.017075        -0.4646
  44   0.0000       0.022901         0.6232
  45   0.0000       0.044208         1.2030
  46   0.0000       0.054486         1.4826

MULLIKEN ATOMIC CHARGES
-----------------------
   0 C :   -0.279325
   1 C :   -0.136957
   2 H :    0.073079
   3 C :   -0.085911
   4 C :   -0.133431
   5 C :   -0.159852
   6 H :    0.054772
   7 C :   -0.105146
   8 C :   -0.008469
   9 O :   -0.148862
  10 C :   -0.019725
  11 C :   -0.248607
  12 C :   -0.213759
  13 H :    0.117344
  14 H :    0.110881
  15 H :    0.117267
  16 H :    0.073585
  17 H :    0.090036
  18 H :    0.092631
  19 H :    0.094341
  20 H :    0.113166
  21 H :    0.105484
  22 H :    0.085844
  23 H :    0.094128
  24 H :    0.111855
  25 H :    0.097659
  26 H :    0.107972
Sum of atomic charges:   -0.0000000

LOEWDIN ATOMIC CHARGES
----------------------
   0 C :   -0.320644
   1 C :   -0.171417
   2 H :    0.129026
   3 C :   -0.213550
   4 C :   -0.211669
   5 C :   -0.135601
   6 H :    0.115037
   7 C :   -0.233243
   8 C :    0.045140
   9 O :   -0.123043
  10 C :   -0.048426
  11 C :   -0.265827
  12 C :   -0.322062
  13 H :    0.125237
  14 H :    0.117041
  15 H :    0.125854
  16 H :    0.116461
  17 H :    0.124102
  18 H :    0.122382
  19 H :    0.120820
  20 H :    0.144450
  21 H :    0.141804
  22 H :    0.119906
  23 H :    0.117875
  24 H :    0.128855
  25 H :    0.124022
  26 H :    0.127469

  Mayer bond orders larger than 0.100000
B(  0-C ,  1-C ) :   1.0848 B(  0-C , 13-H ) :   0.9430 B(  0-C , 14-H ) :   0.9454
B(  0-C , 15-H ) :   0.9447 B(  1-C ,  2-H ) :   0.8750 B(  1-C ,  3-C ) :   1.0259
B(  1-C ,  8-C ) :   1.0111 B(  3-C ,  4-C ) :   1.1824 B(  3-C , 16-H ) :   0.9073
B(  3-C , 17-H ) :   0.9098 B(  4-C ,  5-C ) :   1.1228 B(  4-C , 18-H ) :   0.9222
B(  4-C , 19-H ) :   0.8820 B(  5-C ,  6-H ) :   0.8665 B(  5-C ,  7-C ) :   1.0470
B(  5-C , 10-C ) :   0.9935 B(  7-C ,  8-C ) :   1.0004 B(  7-C , 20-H ) :   0.8810
B(  7-C , 21-H ) :   0.8855 B(  8-C ,  9-O ) :   2.2012 B( 10-C , 11-C ) :   2.0369
B( 10-C , 12-C ) :   1.1385 B( 11-C , 22-H ) :   0.9020 B( 11-C , 23-H ) :   0.9080
B( 12-C , 24-H ) :   0.9273 B( 12-C , 25-H ) :   0.9388 B( 12-C , 26-H ) :   0.9297

Dispersion correction           -0.028546293
FINAL SINGLE POINT ENERGY      -464.820850289669

DIPOLE MOMENT
-------------

Method             : SCF
Type of density    : Electron Density
Multiplicity       :   1
Irrep              :   0
Energy             :  -464.9061500274634682 Eh
Relativity type    :
Basis              : AO
                                X                 Y                 Z
Electronic contribution:     -4.100717175       5.462817619      -3.575241985
Nuclear contribution   :      4.529444821      -6.370122132       4.093878913
                        -----------------------------------------
Total Dipole Moment    :      0.428727647      -0.907304513       0.518636928
                        -----------------------------------------
Magnitude (a.u.)       :      1.129598662
Magnitude (Debye)      :      2.871211621

Rotational constants in cm-1:             0.061108             0.023728             0.022065
Rotational constants in MHz :          1831.985051           711.335832           661.494370

                             ****ORCA TERMINATED NORMALLY****
TOTAL RUN TIME: 0 days 0 hours 0 minutes 26 seconds 441 msec
