                         Program Version 6.0.1  -  RELEASE   -
|  1> ! pbe def2-sv(p) def2/J RI DEFGRID1 loosescf d4 GCP(DFT/SV(P)) printgap
|  2> %output
|  3>     printlevel normal
|  4> end
|  5> * xyz 0 1
|  6> C -1.5027946405 1.1831862526 -0.568547169
|  7> C -0.8037213824 0.16648726 0.0740363495
|  8> C -1.5070801332 -0.8432365649 0.7220712761
|  9> C -2.8919109271 -0.8407355738 0.7166072365
| 10> C -3.6004157313 0.167044825 0.0624600772
| 11> C -2.8875420129 1.1799250238 -0.5782818365
| 12> Cl -3.7343153409 2.4367033343 -1.3879369585
| 13> Cl -5.315355467 0.1628770356 0.0498110666
| 14> Cl -3.7450781101 -2.091876396 1.5269310905
| 15> C 0.6705539669 0.1862072925 0.0784808999
| 16> C 1.3370667059 1.3387320457 0.4810037451
| 17> C 2.7201277264 1.3932488503 0.5048286133
| 18> C 3.4736949966 0.2865282694 0.1147615704
| 19> C 2.8173565661 -0.8698761875 -0.3058692968
| 20> C 1.4237946319 -0.9196019001 -0.3227348679
| 21> Cl 0.653900946 -2.3429130378 -0.9012004167
| 22> Cl 3.7329950829 -2.2292773514 -0.8067769017
| 23> Cl 5.1852229968 0.3423383923 0.1429668671
| 24> Cl 3.5107735008 2.8273531451 1.017205809
| 25> H -0.9709146805 1.9687365427 -1.0806856664
| 26> H -0.9839130964 -1.625151228 1.2475818995
| 27> H 0.7673558269 2.1978778134 0.7965337905
| 28> *
| 29>
| 30>                          ****END OF INPUT****

CARTESIAN COORDINATES (ANGSTROEM)
---------------------------------
  C     -1.502795    1.183186   -0.568547
  C     -0.803721    0.166487    0.074036
  C     -1.507080   -0.843237    0.722071
  C     -2.891911   -0.840736    0.716607
  C     -3.600416    0.167045    0.062460
  C     -2.887542    1.179925   -0.578282
  Cl    -3.734315    2.436703   -1.387937
  Cl    -5.315355    0.162877    0.049811
  Cl    -3.745078   -2.091876    1.526931
  C      0.670554    0.186207    0.078481
  C      1.337067    1.338732    0.481004
  C      2.720128    1.393249    0.504829
  C      3.473695    0.286528    0.114762
  C      2.817357   -0.869876   -0.305869
  C      1.423795   -0.919602   -0.322735
  Cl     0.653901   -2.342913   -0.901200
  Cl     3.732995   -2.229277   -0.806777
  Cl     5.185223    0.342338    0.142967
  Cl     3.510774    2.827353    1.017206
  H     -0.970915    1.968737   -1.080686
  H     -0.983913   -1.625151    1.247582
  H      0.767356    2.197878    0.796534

 Total Charge           Charge          ....    0
 Multiplicity           Mult            ....    1
 Number of Electrons    NEL             ....  194
 Basis Dimension        Dim             ....  300

ORBITAL ENERGIES
----------------

  NO   OCC          E(Eh)            E(eV)
   0   2.0000    -100.665520     -2739.2481
   1   2.0000    -100.664672     -2739.2250
   2   2.0000    -100.664405     -2739.2177
   3   2.0000    -100.662085     -2739.1546
   4   2.0000    -100.658867     -2739.0670
   5   2.0000    -100.657830     -2739.0388
   6   2.0000    -100.657114     -2739.0193
   7   2.0000      -9.988640      -271.8047
   8   2.0000      -9.985794      -271.7273
   9   2.0000      -9.984090      -271.6809
  10   2.0000      -9.980259      -271.5767
  11   2.0000      -9.978663      -271.5332
  12   2.0000      -9.977796      -271.5096
  13   2.0000      -9.977545      -271.5028
  14   2.0000      -9.945953      -270.6431
  15   2.0000      -9.939725      -270.4737
  16   2.0000      -9.931857      -270.2596
  17   2.0000      -9.927519      -270.1415
  18   2.0000      -9.927384      -270.1379
  19   2.0000      -9.201124      -250.3753
  20   2.0000      -9.200534      -250.3592
  21   2.0000      -9.200281      -250.3524
  22   2.0000      -9.198027      -250.2910
  23   2.0000      -9.194761      -250.2022
  24   2.0000      -9.193852      -250.1774
  25   2.0000      -9.193158      -250.1586
  26   2.0000      -7.032692      -191.3693
  27   2.0000      -7.032239      -191.3570
  28   2.0000      -7.032012      -191.3508
  29   2.0000      -7.029596      -191.2850
  30   2.0000      -7.026450      -191.1994
  31   2.0000      -7.025395      -191.1707
  32   2.0000      -7.024702      -191.1519
  33   2.0000      -7.021218      -191.0571
  34   2.0000      -7.020608      -191.0405
  35   2.0000      -7.020357      -191.0336
  36   2.0000      -7.020139      -191.0277
  37   2.0000      -7.019411      -191.0079
  38   2.0000      -7.019154      -191.0009
  39   2.0000      -7.018036      -190.9705
  40   2.0000      -7.017124      -190.9456
  41   2.0000      -7.014843      -190.8836
  42   2.0000      -7.013872      -190.8572
  43   2.0000      -7.013657      -190.8513
  44   2.0000      -7.013182      -190.8384
  45   2.0000      -7.012949      -190.8321
  46   2.0000      -7.012243      -190.8128
  47   2.0000      -0.878020       -23.8921
  48   2.0000      -0.864493       -23.5240
  49   2.0000      -0.838411       -22.8143
  50   2.0000      -0.819410       -22.2973
  51   2.0000      -0.819110       -22.2891
  52   2.0000      -0.795882       -21.6570
  53   2.0000      -0.789147       -21.4738
  54   2.0000      -0.779925       -21.2228
  55   2.0000      -0.762084       -20.7374
  56   2.0000      -0.706492       -19.2246
  57   2.0000      -0.680514       -18.5177
  58   2.0000      -0.672050       -18.2874
  59   2.0000      -0.658481       -17.9182
  60   2.0000      -0.591681       -16.1005
  61   2.0000      -0.575839       -15.6694
  62   2.0000      -0.563995       -15.3471
  63   2.0000      -0.544209       -14.8087
  64   2.0000      -0.497797       -13.5458
  65   2.0000      -0.494276       -13.4499
  66   2.0000      -0.474016       -12.8986
  67   2.0000      -0.468404       -12.7459
  68   2.0000      -0.444871       -12.1055
  69   2.0000      -0.433021       -11.7831
  70   2.0000      -0.423810       -11.5325
  71   2.0000      -0.420558       -11.4440
  72   2.0000      -0.418724       -11.3941
  73   2.0000      -0.412480       -11.2241
  74   2.0000      -0.404204       -10.9990
  75   2.0000      -0.392554       -10.6819
  76   2.0000      -0.377960       -10.2848
  77   2.0000      -0.363997        -9.9049
  78   2.0000      -0.361275        -9.8308
  79   2.0000      -0.358084        -9.7440
  80   2.0000      -0.341250        -9.2859
  81   2.0000      -0.338552        -9.2125
  82   2.0000      -0.320188        -8.7128
  83   2.0000      -0.308317        -8.3897
  84   2.0000      -0.306497        -8.3402
  85   2.0000      -0.302465        -8.2305
  86   2.0000      -0.299877        -8.1601
  87   2.0000      -0.297966        -8.1081
  88   2.0000      -0.288764        -7.8577
  89   2.0000      -0.286968        -7.8088
  90   2.0000      -0.284288        -7.7359
  91   2.0000      -0.266061        -7.2399
  92   2.0000      -0.265197        -7.2164
  93   2.0000      -0.244138        -6.6433
  94   2.0000      -0.234500        -6.3811
  95   2.0000      -0.233095        -6.3428
  96   2.0000      -0.222691        -6.0597
  97   0.0000      -0.090417        -2.4604
  98   0.0000      -0.075309        -2.0493
  99   0.0000      -0.068082        -1.8526
 100   0.0000      -0.052238        -1.4215
 101   0.0000      -0.050772        -1.3816

MULLIKEN ATOMIC CHARGES
-----------------------
   0 C :   -0.149132
   1 C :    0.085949
   2 C :   -0.125467
   3 C :    0.060182
   4 C :    0.041581
   5 C :    0.070560
   6 Cl:   -0.041249
   7 Cl:   -0.017441
   8 Cl:   -0.040556
   9 C :    0.081931
  10 C :   -0.190234
  11 C :    0.090605
  12 C :    0.026207
  13 C :    0.008938
  14 C :    0.018152
  15 Cl:   -0.019359
  16 Cl:   -0.011527
  17 Cl:   -0.010499
  18 Cl:   -0.036640
  19 H :    0.052076
  20 H :    0.051577
  21 H :    0.054346
Sum of atomic charges:   -0.0000000

LOEWDIN ATOMIC CHARGES
----------------------
   0 C :   -0.130805
   1 C :   -0.031655
   2 C :   -0.131683
   3 C :   -0.153168
   4 C :   -0.181978
   5 C :   -0.152975
   6 Cl:    0.161683
   7 Cl:    0.172655
   8 Cl:    0.162754
   9 C :   -0.041395
  10 C :   -0.126029
  11 C :   -0.158836
  12 C :   -0.180598
  13 C :   -0.176285
  14 C :   -0.153973
  15 Cl:    0.185217
  16 Cl:    0.178216
  17 Cl:    0.179093
  18 Cl:    0.165874
  19 H :    0.138159
  20 H :    0.134103
  21 H :    0.141624

  Mayer bond orders larger than 0.100000
B(  0-C ,  1-C ) :   1.3180 B(  0-C ,  5-C ) :   1.3532 B(  0-C , 19-H ) :   0.9679
B(  1-C ,  2-C ) :   1.3041 B(  1-C ,  9-C ) :   0.9529 B(  2-C ,  3-C ) :   1.3727
B(  2-C , 20-H ) :   0.9635 B(  3-C ,  4-C ) :   1.3949 B(  3-C ,  8-Cl) :   1.0431
B(  4-C ,  5-C ) :   1.4014 B(  4-C ,  7-Cl) :   1.1191 B(  5-C ,  6-Cl) :   1.0428
B(  9-C , 10-C ) :   1.3146 B(  9-C , 14-C ) :   1.3963 B( 10-C , 11-C ) :   1.3202
B( 10-C , 21-H ) :   0.9747 B( 11-C , 12-C ) :   1.3930 B( 11-C , 18-Cl) :   1.0412
B( 12-C , 13-C ) :   1.4109 B( 12-C , 17-Cl) :   1.1246 B( 13-C , 14-C ) :   1.3840
B( 13-C , 16-Cl) :   1.1241 B( 14-C , 15-Cl) :   1.1031

Dispersion correction           -0.048202254
FINAL SINGLE POINT ENERGY     -3677.236467776152

DIPOLE MOMENT
-------------

Method             : SCF
Type of density    : Electron Density
Multiplicity       :   1
Irrep              :   0
Energy             : -3677.2565313642880938 Eh
Relativity type    :
Basis              : AO
                                X                 Y                 Z
Electronic contribution:      1.710648829      -3.408872733      -1.309479390
Nuclear contribution   :     -1.500808653       3.585345349       1.385720658
                        -----------------------------------------
Total Dipole Moment    :      0.209840176       0.176472617       0.076241267
                        -----------------------------------------
Magnitude (a.u.)       :      0.284584284
Magnitude (Debye)      :      0.723355764

Rotational constants in cm-1:             0.011824             0.003394             0.002883
Rotational constants in MHz :           354.476704           101.755084            86.431885

                             ****ORCA TERMINATED NORMALLY****
TOTAL RUN TIME: 0 days 0 hours 0 minutes 22 seconds 437 msec
