                         Program Version 6.0.0  -   RELEASE  -
|  1> ! r2SCAN-3c DEF2-TZVP FREQ
|  2> * xyzfile 0 1 censo.xyz
|  3>
|  4>                          ****END OF INPUT****

CARTESIAN COORDINATES (ANGSTROEM)
---------------------------------
  C     -2.185347   -0.031874   -0.003788
  C     -0.697379   -0.036491   -0.002721
  C      0.149017   -1.116461    0.017598
  N      1.425199   -0.594425    0.008355
  C      1.309326    0.755793   -0.016837
  N      0.041647    1.136290   -0.024129
  H     -2.580181    0.463405   -0.897539
  H     -2.572045   -1.053409    0.018728
  H     -2.581236    0.502788    0.866460
  H     -0.036401   -2.179704    0.037178
  H      2.288403   -1.118109    0.018216
  H      2.170829    1.409808   -0.028572

 Total Charge           Charge          ....    0
 Multiplicity           Mult            ....    1
 Number of Electrons    NEL             ....   44
 Basis Dimension        Dim             ....  222

ORBITAL ENERGIES
----------------

  NO   OCC          E(Eh)            E(eV)
   0   2.0000     -14.217888      -386.8884
   1   2.0000     -14.134918      -384.6307
   2   2.0000     -10.081447      -274.3301
   3   2.0000     -10.054841      -273.6061
   4   2.0000     -10.048863      -273.4435
   5   2.0000     -10.022570      -272.7280
   6   2.0000      -0.975878       -26.5550
   7   2.0000      -0.833537       -22.6817
   8   2.0000      -0.728899       -19.8344
   9   2.0000      -0.661165       -17.9912
  10   2.0000      -0.579296       -15.7634
  11   2.0000      -0.535626       -14.5751
  12   2.0000      -0.514231       -13.9929
  13   2.0000      -0.417427       -11.3588
  14   2.0000      -0.409137       -11.1332
  15   2.0000      -0.402273       -10.9464
  16   2.0000      -0.365444        -9.9442
  17   2.0000      -0.358224        -9.7478
  18   2.0000      -0.342575        -9.3220
  19   2.0000      -0.252194        -6.8625
  20   2.0000      -0.236200        -6.4273
  21   2.0000      -0.203188        -5.5290
  22   0.0000      -0.001907        -0.0519
  23   0.0000       0.033778         0.9191
  24   0.0000       0.041024         1.1163
  25   0.0000       0.073020         1.9870
  26   0.0000       0.098079         2.6689

MULLIKEN ATOMIC CHARGES
-----------------------
   0 C :   -0.330196
   1 C :    0.097955
   2 C :   -0.108792
   3 N :   -0.228067
   4 C :    0.078293
   5 N :   -0.337882
   6 H :    0.116229
   7 H :    0.100175
   8 H :    0.116340
   9 H :    0.130061
  10 H :    0.230030
  11 H :    0.135854
Sum of atomic charges:    0.0000000

LOEWDIN ATOMIC CHARGES
----------------------
   0 C :   -0.263558
   1 C :   -0.292264
   2 C :   -0.231465
   3 N :    0.171830
   4 C :   -0.310650
   5 N :    0.094271
   6 H :    0.130017
   7 H :    0.125875
   8 H :    0.130047
   9 H :    0.131134
  10 H :    0.188226
  11 H :    0.126537

  Mayer bond orders larger than 0.100000
B(  0-C ,  1-C ) :   0.9472 B(  0-C ,  6-H ) :   0.9663 B(  0-C ,  7-H ) :   0.9895
B(  0-C ,  8-H ) :   0.9666 B(  1-C ,  2-C ) :   1.5971 B(  1-C ,  5-N ) :   1.2903
B(  2-C ,  3-N ) :   1.1405 B(  2-C ,  4-C ) :   0.1017 B(  2-C ,  9-H ) :   0.9513
B(  3-N ,  4-C ) :   1.2247 B(  3-N , 10-H ) :   0.9128 B(  4-C ,  5-N ) :   1.6174
B(  4-C , 11-H ) :   0.9652

Dispersion correction           -0.002991461
FINAL SINGLE POINT ENERGY      -265.486481768888

DIPOLE MOMENT
-------------

Method             : SCF
Type of density    : Electron Density
Multiplicity       :   1
Irrep              :   0
Energy             :  -265.4929664158205469 Eh
Relativity type    :
Basis              : AO
                                X                 Y                 Z
Electronic contribution:      3.933071604       0.806168321      -0.012532022
Nuclear contribution   :     -3.104798457      -1.880742068       0.032406652
                        -----------------------------------------
Total Dipole Moment    :      0.828273147      -1.074573747       0.019874631
                        -----------------------------------------
Magnitude (a.u.)       :      1.356886195
Magnitude (Debye)      :      3.448930615

VIBRATIONAL FREQUENCIES
-----------------------

Scaling factor for frequencies =  1.000000000  (already applied!)

     0:       0.00 cm**-1
     1:       0.00 cm**-1
     2:       0.00 cm**-1
     3:       0.00 cm**-1
     4:       0.00 cm**-1
     5:       0.00 cm**-1
     6:     136.90 cm**-1
     7:     271.36 cm**-1
     8:     344.82 cm**-1
     9:     532.69 cm**-1
    10:     655.68 cm**-1
    11:     666.93 cm**-1
    12:     691.54 cm**-1
    13:     718.10 cm**-1
    14:     797.49 cm**-1
    15:     950.45 cm**-1
    16:     967.83 cm**-1
    17:    1000.27 cm**-1
    18:    1059.48 cm**-1
    19:    1093.29 cm**-1
    20:    1144.44 cm**-1
    21:    1236.45 cm**-1
    22:    1276.11 cm**-1
    23:    1312.03 cm**-1
    24:    1407.31 cm**-1
    25:    1461.86 cm**-1
    26:    1469.49 cm**-1
    27:    1482.63 cm**-1
    28:    1500.97 cm**-1
    29:    1594.61 cm**-1
    30:    3009.99 cm**-1
    31:    3070.55 cm**-1
    32:    3103.17 cm**-1
    33:    3231.31 cm**-1
    34:    3249.27 cm**-1
    35:    3601.71 cm**-1

IR SPECTRUM
-----------

 Mode   freq       eps      Int      T**2         TX        TY        TZ
       cm**-1   L/(mol*cm) km/mol    a.u.
----------------------------------------------------------------------------
  6:    136.90   0.000091    0.46  0.000208  ( 0.000234  0.000260  0.014432)
  7:    271.36   0.002216   11.20  0.002549  (-0.000172  0.001033  0.050475)
  8:    344.82   0.001395    7.05  0.001262  ( 0.011866  0.033480 -0.000628)
  9:    532.69   0.018369   92.83  0.010761  (-0.000008 -0.001960 -0.103718)
 10:    655.68   0.000291    1.47  0.000139  (-0.000202 -0.000285 -0.011766)
 11:    666.93   0.000370    1.87  0.000173  ( 0.013104 -0.001275 -0.000087)
 12:    691.54   0.000882    4.46  0.000398  ( 0.000130 -0.000361 -0.019946)
 13:    718.10   0.003365   17.01  0.001462  ( 0.000110 -0.000758 -0.038233)
 14:    797.49   0.005673   28.67  0.002220  ( 0.000113 -0.000938 -0.047106)
 15:    950.45   0.000161    0.81  0.000053  (-0.002910  0.006653 -0.000111)
 16:    967.83   0.001234    6.23  0.000398  (-0.004129  0.019508 -0.000377)
 17:   1000.27   0.002002   10.12  0.000625  (-0.024842  0.002728 -0.000050)
 18:   1059.48   0.000209    1.05  0.000061  ( 0.000175  0.000126  0.007834)
 19:   1093.29   0.005407   27.32  0.001543  ( 0.021470 -0.032894  0.000599)
 20:   1144.44   0.001392    7.03  0.000379  (-0.016150 -0.010890  0.000189)
 21:   1236.45   0.002018   10.20  0.000509  ( 0.014067 -0.017642  0.000329)
 22:   1276.11   0.002381   12.03  0.000582  (-0.019218 -0.014588  0.000239)
 23:   1312.03   0.000901    4.55  0.000214  ( 0.011392  0.009186 -0.000175)
 24:   1407.31   0.000412    2.08  0.000091  (-0.007549 -0.005861  0.000125)
 25:   1461.86   0.006697   33.84  0.001430  ( 0.014707 -0.034826  0.000692)
 26:   1469.49   0.001363    6.89  0.000289  ( 0.000244 -0.000417 -0.017004)
 27:   1482.63   0.000696    3.51  0.000146  (-0.011073  0.004875 -0.000153)
 28:   1500.97   0.001187    6.00  0.000247  (-0.015607  0.001814 -0.000033)
 29:   1594.61   0.004275   21.60  0.000837  (-0.028249 -0.006210  0.000114)
 30:   3009.99   0.006324   31.96  0.000656  (-0.025529  0.001983 -0.000133)
 31:   3070.55   0.002955   14.93  0.000300  ( 0.000057 -0.000328 -0.017326)
 32:   3103.17   0.003715   18.77  0.000374  ( 0.002488  0.019164 -0.000351)
 33:   3231.31   0.000486    2.46  0.000047  ( 0.006776  0.001020 -0.000013)
 34:   3249.27   0.000176    0.89  0.000017  ( 0.001883  0.003650 -0.000061)
 35:   3601.71   0.009568   48.35  0.000829  (-0.024875  0.014497 -0.000276)

--------------------------
THERMOCHEMISTRY AT 298.15K
--------------------------

Temperature         ...   298.15 K
Pressure            ...     1.00 atm
Total Mass          ...    82.11 AMU
Quasi RRHO          ...     True
Cut-Off Frequency   ...     1.00 cm^-1

Throughout the following assumptions are being made:
  (1) The electronic state is orbitally nondegenerate
  (2) There are no thermally accessible electronically excited states
  (3) Hindered rotations indicated by low frequency modes are not
      treated as such but are treated as vibrations and this may
      cause some error
  (4) All equations used are the standard statistical mechanics
      equations for an ideal gas
  (5) All vibrations are strictly harmonic

freq.     136.90  E(vib)   ...       0.42
freq.     271.36  E(vib)   ...       0.29
freq.     344.82  E(vib)   ...       0.23
freq.     532.69  E(vib)   ...       0.13
freq.     655.68  E(vib)   ...       0.08
freq.     666.93  E(vib)   ...       0.08
freq.     691.54  E(vib)   ...       0.07
freq.     718.10  E(vib)   ...       0.07
freq.     797.49  E(vib)   ...       0.05
freq.     950.45  E(vib)   ...       0.03
freq.     967.83  E(vib)   ...       0.03
freq.    1000.27  E(vib)   ...       0.02
freq.    1059.48  E(vib)   ...       0.02
freq.    1093.29  E(vib)   ...       0.02
freq.    1144.44  E(vib)   ...       0.01
freq.    1236.45  E(vib)   ...       0.01
freq.    1276.11  E(vib)   ...       0.01
freq.    1312.03  E(vib)   ...       0.01
freq.    1407.31  E(vib)   ...       0.00
freq.    1461.86  E(vib)   ...       0.00
freq.    1469.49  E(vib)   ...       0.00
freq.    1482.63  E(vib)   ...       0.00
freq.    1500.97  E(vib)   ...       0.00
freq.    1594.61  E(vib)   ...       0.00
freq.    3009.99  E(vib)   ...       0.00
freq.    3070.55  E(vib)   ...       0.00
freq.    3103.17  E(vib)   ...       0.00
freq.    3231.31  E(vib)   ...       0.00
freq.    3249.27  E(vib)   ...       0.00
freq.    3601.71  E(vib)   ...       0.00

------------
INNER ENERGY
------------

The inner energy is: U= E(el) + E(ZPE) + E(vib) + E(rot) + E(trans)
    E(el)   - is the total energy from the electronic structure calculation
              = E(kin-el) + E(nuc-el) + E(el-el) + E(nuc-nuc)
    E(ZPE)  - the the zero temperature vibrational energy from the frequency calculation
    E(vib)  - the the finite temperature correction to E(ZPE) due to population
              of excited vibrational states
    E(rot)  - is the rotational thermal energy
    E(trans)- is the translational thermal energy

Summary of contributions to the inner energy U:
Electronic energy                ...   -265.48648177 Eh
Zero point energy                ...      0.09804939 Eh      61.53 kcal/mol
Thermal vibrational correction   ...      0.00251950 Eh       1.58 kcal/mol
Thermal rotational correction    ...      0.00141627 Eh       0.89 kcal/mol
Thermal translational correction ...      0.00141627 Eh       0.89 kcal/mol
-----------------------------------------------------------------------
Total thermal energy                   -265.38308034 Eh

Summary of corrections to the electronic energy:
(perhaps to be used in another calculation)
Total thermal correction                  0.00535204 Eh       3.36 kcal/mol
Non-thermal (ZPE) correction              0.09804939 Eh      61.53 kcal/mol
-----------------------------------------------------------------------
Total correction                          0.10340143 Eh      64.89 kcal/mol

--------
ENTHALPY
--------

The enthalpy is H = U + kB*T
                kB is Boltzmann's constant
Total thermal energy              ...   -265.38308034 Eh
Thermal Enthalpy correction       ...      0.00094421 Eh       0.59 kcal/mol
-----------------------------------------------------------------------
Total Enthalpy                    ...   -265.38213613 Eh

Note: Only C1 symmetry has been detected, increase convergence thresholds
      if your molecule has a higher symmetry. Symmetry factor of 1.0 is
      used for the rotational entropy correction.

Note: Rotational entropy computed according to Herzberg
Infrared and Raman Spectra, Chapter V,1, Van Nostrand Reinhold, 1945
Point Group:  C1, Symmetry Number:   1
Rotational constants in cm-1:     0.300396     0.116877     0.085479

Vibrational entropy computed according to the QRRHO of S. Grimme
Chem.Eur.J. 2012 18 9955 using a reference frequency of 100.0 cm-1

-------
ENTROPY
-------

The entropy contributions are T*S = T*(S(el)+S(vib)+S(rot)+S(trans))
     S(el)   - electronic entropy
     S(vib)  - vibrational entropy
     S(rot)  - rotational entropy
     S(trans)- translational entropy
The entropies will be listed as multiplied by the temperature to get
units of energy

Electronic entropy                ...      0.00000000 Eh      0.00 kcal/mol
Vibrational entropy               ...      0.00396391 Eh      2.49 kcal/mol
Rotational entropy                ...      0.01225308 Eh      7.69 kcal/mol
Translational entropy             ...      0.01859201 Eh     11.67 kcal/mol
-----------------------------------------------------------------------
Final entropy term                ...      0.03480900 Eh     21.84 kcal/mol

In case the symmetry of your molecule has not been determined correctly
or in case you have a reason to use a different symmetry number we print
out the resulting rotational entropy values for sn=1,12:

 non-linear molecules -----------------------------------
|  sn= 1 | S(rot)=       0.01225308 Eh      7.69 kcal/mol|
|  sn= 2 | S(rot)=       0.01159862 Eh      7.28 kcal/mol|
|  sn= 3 | S(rot)=       0.01121579 Eh      7.04 kcal/mol|
|  sn= 4 | S(rot)=       0.01094417 Eh      6.87 kcal/mol|
|  sn= 5 | S(rot)=       0.01073348 Eh      6.74 kcal/mol|
|  sn= 6 | S(rot)=       0.01056133 Eh      6.63 kcal/mol|
|  sn= 7 | S(rot)=       0.01041579 Eh      6.54 kcal/mol|
|  sn= 8 | S(rot)=       0.01028971 Eh      6.46 kcal/mol|
|  sn= 9 | S(rot)=       0.01017850 Eh      6.39 kcal/mol|
|  sn=10 | S(rot)=       0.01007902 Eh      6.32 kcal/mol|
|  sn=11 | S(rot)=       0.00998903 Eh      6.27 kcal/mol|
|  sn=12 | S(rot)=       0.00990688 Eh      6.22 kcal/mol|
 linear molecules ---------------------------------------
|  Dinfh | S(rot)=       0.00764801 Eh      4.80 kcal/mol|
|  Cinfv | S(rot)=       0.00830246 Eh      5.21 kcal/mol|
 --------------------------------------------------------

-------------------
GIBBS FREE ENERGY
-------------------

The Gibbs free energy is G = H - T*S

Total enthalpy                    ...   -265.38213613 Eh
Total entropy correction          ...     -0.03480900 Eh    -21.84 kcal/mol
-----------------------------------------------------------------------
Final Gibbs free energy         ...   -265.41694513 Eh

For completeness - the Gibbs free energy minus the electronic energy

                             ****ORCA TERMINATED NORMALLY****
TOTAL RUN TIME: 0 days 0 hours 5 minutes 37 seconds 489 msec
