                         Program Version 6.0.0  -   RELEASE  -
|  1> ! r2SCAN-3c DEF2-TZVP FREQ
|  2> * xyzfile 0 1 vacuum_censo.xyz
|  3>
|  4>                          ****END OF INPUT****

CARTESIAN COORDINATES (ANGSTROEM)
---------------------------------
  C     -2.182987    0.030488   -0.000045
  C     -0.693618    0.044019    0.000069
  C      0.154131    1.124397    0.000163
  N      1.429416    0.595009    0.000020
  C      1.299735   -0.762751   -0.000111
  N      0.036644   -1.127277   -0.000099
  H     -2.565707   -0.491182   -0.883011
  H     -2.565695   -0.495082    0.880588
  H     -2.583118    1.047412    0.002162
  H     -0.027014    2.188169    0.000303
  H      2.289788    1.116325    0.000162
  H      2.154007   -1.426937   -0.000181

 Total Charge           Charge          ....    0
 Multiplicity           Mult            ....    1
 Number of Electrons    NEL             ....   44
 Basis Dimension        Dim             ....  222

ORBITAL ENERGIES
----------------

  NO   OCC          E(Eh)            E(eV)
   0   2.0000     -14.216852      -386.8602
   1   2.0000     -14.134389      -384.6163
   2   2.0000     -10.081400      -274.3288
   3   2.0000     -10.055090      -273.6129
   4   2.0000     -10.048440      -273.4320
   5   2.0000     -10.022042      -272.7136
   6   2.0000      -0.975193       -26.5363
   7   2.0000      -0.835478       -22.7345
   8   2.0000      -0.728626       -19.8269
   9   2.0000      -0.660250       -17.9663
  10   2.0000      -0.579568       -15.7708
  11   2.0000      -0.536446       -14.5974
  12   2.0000      -0.512732       -13.9521
  13   2.0000      -0.418622       -11.3913
  14   2.0000      -0.408949       -11.1281
  15   2.0000      -0.401955       -10.9377
  16   2.0000      -0.364864        -9.9284
  17   2.0000      -0.356971        -9.7137
  18   2.0000      -0.343239        -9.3400
  19   2.0000      -0.253619        -6.9013
  20   2.0000      -0.236787        -6.4433
  21   2.0000      -0.202658        -5.5146
  22   0.0000      -0.002380        -0.0648
  23   0.0000       0.035032         0.9533
  24   0.0000       0.042485         1.1561
  25   0.0000       0.073422         1.9979
  26   0.0000       0.097949         2.6653

MULLIKEN ATOMIC CHARGES
-----------------------
   0 C :   -0.328578
   1 C :    0.099029
   2 C :   -0.109300
   3 N :   -0.230692
   4 C :    0.078069
   5 N :   -0.335368
   6 H :    0.115800
   7 H :    0.115856
   8 H :    0.099877
   9 H :    0.130940
  10 H :    0.228953
  11 H :    0.135414
Sum of atomic charges:   -0.0000000

LOEWDIN ATOMIC CHARGES
----------------------
   0 C :   -0.263248
   1 C :   -0.294718
   2 C :   -0.229640
   3 N :    0.169933
   4 C :   -0.310225
   5 N :    0.099538
   6 H :    0.130031
   7 H :    0.130050
   8 H :    0.125202
   9 H :    0.131016
  10 H :    0.185461
  11 H :    0.126597

  Mayer bond orders larger than 0.100000
B(  0-C ,  1-C ) :   0.9456 B(  0-C ,  6-H ) :   0.9671 B(  0-C ,  7-H ) :   0.9673
B(  0-C ,  8-H ) :   0.9893 B(  1-C ,  2-C ) :   1.5966 B(  1-C ,  5-N ) :   1.2874
B(  2-C ,  3-N ) :   1.1435 B(  2-C ,  4-C ) :   0.1032 B(  2-C ,  9-H ) :   0.9517
B(  3-N ,  4-C ) :   1.2177 B(  3-N , 10-H ) :   0.9139 B(  4-C ,  5-N ) :   1.6260
B(  4-C , 11-H ) :   0.9650

Dispersion correction           -0.002992090
FINAL SINGLE POINT ENERGY      -265.486677544991

DIPOLE MOMENT
-------------

Method             : SCF
Type of density    : Electron Density
Multiplicity       :   1
Irrep              :   0
Energy             :  -265.4931545285945731 Eh
Relativity type    :
Basis              : AO
                                X                 Y                 Z
Electronic contribution:      3.919369431      -0.781989005       0.000056590
Nuclear contribution   :     -3.094201013       1.833957572       0.000034104
                        -----------------------------------------
Total Dipole Moment    :      0.825168418       1.051968567       0.000090694
                        -----------------------------------------
Magnitude (a.u.)       :      1.336989451
Magnitude (Debye)      :      3.398357113

VIBRATIONAL FREQUENCIES
-----------------------

Scaling factor for frequencies =  1.000000000  (already applied!)

     0:       0.00 cm**-1
     1:       0.00 cm**-1
     2:       0.00 cm**-1
     3:       0.00 cm**-1
     4:       0.00 cm**-1
     5:       0.00 cm**-1
     6:     134.70 cm**-1
     7:     267.18 cm**-1
     8:     344.80 cm**-1
     9:     490.77 cm**-1
    10:     651.18 cm**-1
    11:     667.43 cm**-1
    12:     687.44 cm**-1
    13:     715.83 cm**-1
    14:     798.54 cm**-1
    15:     952.16 cm**-1
    16:     971.48 cm**-1
    17:     998.30 cm**-1
    18:    1059.09 cm**-1
    19:    1088.04 cm**-1
    20:    1122.79 cm**-1
    21:    1238.16 cm**-1
    22:    1282.43 cm**-1
    23:    1332.19 cm**-1
    24:    1403.70 cm**-1
    25:    1445.16 cm**-1
    26:    1469.03 cm**-1
    27:    1481.11 cm**-1
    28:    1508.93 cm**-1
    29:    1591.36 cm**-1
    30:    3013.78 cm**-1
    31:    3078.12 cm**-1
    32:    3103.96 cm**-1
    33:    3227.37 cm**-1
    34:    3253.40 cm**-1
    35:    3645.28 cm**-1

IR SPECTRUM
-----------

 Mode   freq       eps      Int      T**2         TX        TY        TZ
       cm**-1   L/(mol*cm) km/mol    a.u.
----------------------------------------------------------------------------
  6:    134.70   0.000139    0.70  0.000323  (-0.000051  0.000050 -0.017965)
  7:    267.18   0.002356   11.91  0.002752  ( 0.000021 -0.000018 -0.052462)
  8:    344.80   0.001392    7.04  0.001260  ( 0.012040 -0.033396 -0.000009)
  9:    490.77   0.018764   94.82  0.011931  ( 0.000008 -0.000001  0.109230)
 10:    651.18   0.000010    0.05  0.000005  ( 0.000005 -0.000016  0.002185)
 11:    667.43   0.000364    1.84  0.000170  (-0.012969 -0.001452  0.000005)
 12:    687.44   0.000439    2.22  0.000199  ( 0.000023  0.000011  0.014116)
 13:    715.83   0.003461   17.49  0.001509  (-0.000002  0.000008  0.038844)
 14:    798.54   0.005722   28.92  0.002236  (-0.000001  0.000017  0.047287)
 15:    952.16   0.000057    0.29  0.000019  ( 0.003002  0.003106  0.000002)
 16:    971.48   0.001422    7.19  0.000457  ( 0.007899  0.019861  0.000007)
 17:    998.30   0.002110   10.66  0.000660  ( 0.025655  0.001169 -0.000002)
 18:   1059.09   0.000204    1.03  0.000060  (-0.000077 -0.000026 -0.007753)
 19:   1088.04   0.005409   27.34  0.001551  (-0.021842 -0.032778  0.000001)
 20:   1122.79   0.001216    6.14  0.000338  (-0.014370  0.011463  0.000003)
 21:   1238.16   0.001944    9.83  0.000490  (-0.013929 -0.017207 -0.000006)
 22:   1282.43   0.002282   11.53  0.000555  ( 0.018910 -0.014060  0.000009)
 23:   1332.19   0.001093    5.52  0.000256  (-0.012042  0.010540  0.000002)
 24:   1403.70   0.000456    2.30  0.000101  ( 0.008386 -0.005567 -0.000011)
 25:   1445.16   0.004776   24.14  0.001031  ( 0.008156  0.031062  0.000012)
 26:   1469.03   0.001358    6.86  0.000288  (-0.000061 -0.000028  0.016984)
 27:   1481.11   0.001874    9.47  0.000395  (-0.012543 -0.015409 -0.000028)
 28:   1508.93   0.002013   10.17  0.000416  ( 0.018151  0.009316  0.000003)
 29:   1591.36   0.004633   23.41  0.000908  ( 0.029750 -0.004840 -0.000003)
 30:   3013.78   0.006221   31.44  0.000644  ( 0.025354  0.001173  0.000039)
 31:   3078.12   0.002920   14.75  0.000296  (-0.000027  0.000033  0.017205)
 32:   3103.96   0.003653   18.46  0.000367  (-0.001722  0.019085 -0.000009)
 33:   3227.37   0.000518    2.62  0.000050  ( 0.007019 -0.000913 -0.000000)
 34:   3253.40   0.000150    0.76  0.000014  (-0.002048  0.003187 -0.000000)
 35:   3645.28   0.009772   49.38  0.000837  ( 0.024916  0.014688  0.000004)

--------------------------
THERMOCHEMISTRY AT 298.15K
--------------------------

Temperature         ...   298.15 K
Pressure            ...     1.00 atm
Total Mass          ...    82.11 AMU
Quasi RRHO          ...     True
Cut-Off Frequency   ...     1.00 cm^-1

Throughout the following assumptions are being made:
  (1) The electronic state is orbitally nondegenerate
  (2) There are no thermally accessible electronically excited states
  (3) Hindered rotations indicated by low frequency modes are not
      treated as such but are treated as vibrations and this may
      cause some error
  (4) All equations used are the standard statistical mechanics
      equations for an ideal gas
  (5) All vibrations are strictly harmonic

freq.     134.70  E(vib)   ...       0.42
freq.     267.18  E(vib)   ...       0.29
freq.     344.80  E(vib)   ...       0.23
freq.     490.77  E(vib)   ...       0.14
freq.     651.18  E(vib)   ...       0.08
freq.     667.43  E(vib)   ...       0.08
freq.     687.44  E(vib)   ...       0.07
freq.     715.83  E(vib)   ...       0.07
freq.     798.54  E(vib)   ...       0.05
freq.     952.16  E(vib)   ...       0.03
freq.     971.48  E(vib)   ...       0.03
freq.     998.30  E(vib)   ...       0.02
freq.    1059.09  E(vib)   ...       0.02
freq.    1088.04  E(vib)   ...       0.02
freq.    1122.79  E(vib)   ...       0.01
freq.    1238.16  E(vib)   ...       0.01
freq.    1282.43  E(vib)   ...       0.01
freq.    1332.19  E(vib)   ...       0.01
freq.    1403.70  E(vib)   ...       0.00
freq.    1445.16  E(vib)   ...       0.00
freq.    1469.03  E(vib)   ...       0.00
freq.    1481.11  E(vib)   ...       0.00
freq.    1508.93  E(vib)   ...       0.00
freq.    1591.36  E(vib)   ...       0.00
freq.    3013.78  E(vib)   ...       0.00
freq.    3078.12  E(vib)   ...       0.00
freq.    3103.96  E(vib)   ...       0.00
freq.    3227.37  E(vib)   ...       0.00
freq.    3253.40  E(vib)   ...       0.00
freq.    3645.28  E(vib)   ...       0.00

------------
INNER ENERGY
------------

The inner energy is: U= E(el) + E(ZPE) + E(vib) + E(rot) + E(trans)
    E(el)   - is the total energy from the electronic structure calculation
              = E(kin-el) + E(nuc-el) + E(el-el) + E(nuc-nuc)
    E(ZPE)  - the the zero temperature vibrational energy from the frequency calculation
    E(vib)  - the the finite temperature correction to E(ZPE) due to population
              of excited vibrational states
    E(rot)  - is the rotational thermal energy
    E(trans)- is the translational thermal energy

Summary of contributions to the inner energy U:
Electronic energy                ...   -265.48667754 Eh
Zero point energy                ...      0.09801514 Eh      61.51 kcal/mol
Thermal vibrational correction   ...      0.00256425 Eh       1.61 kcal/mol
Thermal rotational correction    ...      0.00141627 Eh       0.89 kcal/mol
Thermal translational correction ...      0.00141627 Eh       0.89 kcal/mol
-----------------------------------------------------------------------
Total thermal energy                   -265.38326561 Eh

Summary of corrections to the electronic energy:
(perhaps to be used in another calculation)
Total thermal correction                  0.00539679 Eh       3.39 kcal/mol
Non-thermal (ZPE) correction              0.09801514 Eh      61.51 kcal/mol
-----------------------------------------------------------------------
Total correction                          0.10341193 Eh      64.89 kcal/mol

--------
ENTHALPY
--------

The enthalpy is H = U + kB*T
                kB is Boltzmann's constant
Total thermal energy              ...   -265.38326561 Eh
Thermal Enthalpy correction       ...      0.00094421 Eh       0.59 kcal/mol
-----------------------------------------------------------------------
Total Enthalpy                    ...   -265.38232140 Eh

Note: Only C1 symmetry has been detected, increase convergence thresholds
      if your molecule has a higher symmetry. Symmetry factor of 1.0 is
      used for the rotational entropy correction.

Note: Rotational entropy computed according to Herzberg
Infrared and Raman Spectra, Chapter V,1, Van Nostrand Reinhold, 1945
Point Group:  C1, Symmetry Number:   1
Rotational constants in cm-1:     0.299629     0.117263     0.085622

Vibrational entropy computed according to the QRRHO of S. Grimme
Chem.Eur.J. 2012 18 9955 using a reference frequency of 100.0 cm-1

-------
ENTROPY
-------

The entropy contributions are T*S = T*(S(el)+S(vib)+S(rot)+S(trans))
     S(el)   - electronic entropy
     S(vib)  - vibrational entropy
     S(rot)  - rotational entropy
     S(trans)- translational entropy
The entropies will be listed as multiplied by the temperature to get
units of energy

Electronic entropy                ...      0.00000000 Eh      0.00 kcal/mol
Vibrational entropy               ...      0.00404317 Eh      2.54 kcal/mol
Rotational entropy                ...      0.01225194 Eh      7.69 kcal/mol
Translational entropy             ...      0.01859201 Eh     11.67 kcal/mol
-----------------------------------------------------------------------
Final entropy term                ...      0.03488712 Eh     21.89 kcal/mol

In case the symmetry of your molecule has not been determined correctly
or in case you have a reason to use a different symmetry number we print
out the resulting rotational entropy values for sn=1,12:

 non-linear molecules -----------------------------------
|  sn= 1 | S(rot)=       0.01225194 Eh      7.69 kcal/mol|
|  sn= 2 | S(rot)=       0.01159748 Eh      7.28 kcal/mol|
|  sn= 3 | S(rot)=       0.01121465 Eh      7.04 kcal/mol|
|  sn= 4 | S(rot)=       0.01094303 Eh      6.87 kcal/mol|
|  sn= 5 | S(rot)=       0.01073234 Eh      6.73 kcal/mol|
|  sn= 6 | S(rot)=       0.01056019 Eh      6.63 kcal/mol|
|  sn= 7 | S(rot)=       0.01041465 Eh      6.54 kcal/mol|
|  sn= 8 | S(rot)=       0.01028857 Eh      6.46 kcal/mol|
|  sn= 9 | S(rot)=       0.01017736 Eh      6.39 kcal/mol|
|  sn=10 | S(rot)=       0.01007788 Eh      6.32 kcal/mol|
|  sn=11 | S(rot)=       0.00998789 Eh      6.27 kcal/mol|
|  sn=12 | S(rot)=       0.00990574 Eh      6.22 kcal/mol|
 linear molecules ---------------------------------------
|  Dinfh | S(rot)=       0.00764643 Eh      4.80 kcal/mol|
|  Cinfv | S(rot)=       0.00830089 Eh      5.21 kcal/mol|
 --------------------------------------------------------

-------------------
GIBBS FREE ENERGY
-------------------

The Gibbs free energy is G = H - T*S

Total enthalpy                    ...   -265.38232140 Eh
Total entropy correction          ...     -0.03488712 Eh    -21.89 kcal/mol
-----------------------------------------------------------------------
Final Gibbs free energy         ...   -265.41720853 Eh

For completeness - the Gibbs free energy minus the electronic energy

                             ****ORCA TERMINATED NORMALLY****
TOTAL RUN TIME: 0 days 0 hours 5 minutes 36 seconds 146 msec
