                         Program Version 6.0.0  -   RELEASE  -
|  1> ! r2SCAN-3c DEF2-TZVP FREQ
|  2> * xyzfile 0 1 censo.xyz
|  3>
|  4>                          ****END OF INPUT****

CARTESIAN COORDINATES (ANGSTROEM)
---------------------------------
  C      1.750393   -0.314418   -0.223835
  C      0.567594    0.581376    0.159334
  C     -0.683680   -0.207617    0.385288
  C     -1.824406   -0.046540   -0.283756
  H      1.945942   -1.058884    0.555390
  H      2.660245    0.278449   -0.359626
  H      1.548789   -0.848953   -1.157849
  H      0.394377    1.334770   -0.617714
  H      0.821384    1.120639    1.082369
  H     -0.624039   -0.979385    1.155034
  H     -2.696347   -0.660253   -0.075112
  H     -1.920984    0.708757   -1.061319

 Total Charge           Charge          ....    0
 Multiplicity           Mult            ....    1
 Number of Electrons    NEL             ....   32
 Basis Dimension        Dim             ....  172

ORBITAL ENERGIES
----------------

  NO   OCC          E(Eh)            E(eV)
   0   2.0000     -10.035278      -273.0738
   1   2.0000     -10.034588      -273.0550
   2   2.0000     -10.024645      -272.7845
   3   2.0000     -10.022224      -272.7186
   4   2.0000      -0.766804       -20.8658
   5   2.0000      -0.694158       -18.8890
   6   2.0000      -0.594283       -16.1713
   7   2.0000      -0.520368       -14.1599
   8   2.0000      -0.438381       -11.9290
   9   2.0000      -0.410148       -11.1607
  10   2.0000      -0.393649       -10.7117
  11   2.0000      -0.350122        -9.5273
  12   2.0000      -0.343846        -9.3565
  13   2.0000      -0.312189        -8.4951
  14   2.0000      -0.303912        -8.2699
  15   2.0000      -0.236254        -6.4288
  16   0.0000      -0.015095        -0.4108
  17   0.0000       0.057827         1.5736
  18   0.0000       0.081833         2.2268
  19   0.0000       0.090448         2.4612
  20   0.0000       0.106768         2.9053

MULLIKEN ATOMIC CHARGES
-----------------------
   0 C :   -0.320691
   1 C :   -0.076939
   2 C :   -0.133513
   3 C :   -0.276780
   4 H :    0.099396
   5 H :    0.105431
   6 H :    0.107356
   7 H :    0.080298
   8 H :    0.087068
   9 H :    0.100025
  10 H :    0.118657
  11 H :    0.109691
Sum of atomic charges:    0.0000000

LOEWDIN ATOMIC CHARGES
----------------------
   0 C :   -0.303351
   1 C :   -0.278230
   2 C :   -0.206698
   3 C :   -0.221139
   4 H :    0.117797
   5 H :    0.117424
   6 H :    0.119518
   7 H :    0.136404
   8 H :    0.140240
   9 H :    0.138462
  10 H :    0.120035
  11 H :    0.119539

  Mayer bond orders larger than 0.100000
B(  0-C ,  1-C ) :   0.9620 B(  0-C ,  4-H ) :   0.9776 B(  0-C ,  5-H ) :   0.9718
B(  0-C ,  6-H ) :   0.9746 B(  1-C ,  2-C ) :   0.9609 B(  1-C ,  7-H ) :   0.9682
B(  1-C ,  8-H ) :   0.9569 B(  2-C ,  3-C ) :   1.9426 B(  2-C ,  9-H ) :   0.9530
B(  3-C , 10-H ) :   0.9625 B(  3-C , 11-H ) :   0.9614

Dispersion correction           -0.002248257
FINAL SINGLE POINT ENERGY      -157.171002348791

DIPOLE MOMENT
-------------

Method             : SCF
Type of density    : Electron Density
Multiplicity       :   1
Irrep              :   0
Energy             :  -157.1732116918115594 Eh
Relativity type    :
Basis              : AO
                                X                 Y                 Z
Electronic contribution:     -1.846758711       0.136337486       0.479821600
Nuclear contribution   :      2.016031103      -0.104804568      -0.444157925
                        -----------------------------------------
Total Dipole Moment    :      0.169272392       0.031532918       0.035663675
                        -----------------------------------------
Magnitude (a.u.)       :      0.175839033
Magnitude (Debye)      :      0.446947302

VIBRATIONAL FREQUENCIES
-----------------------

Scaling factor for frequencies =  1.000000000  (already applied!)

     0:       0.00 cm**-1
     1:       0.00 cm**-1
     2:       0.00 cm**-1
     3:       0.00 cm**-1
     4:       0.00 cm**-1
     5:       0.00 cm**-1
     6:     119.34 cm**-1
     7:     250.10 cm**-1
     8:     322.89 cm**-1
     9:     444.19 cm**-1
    10:     658.91 cm**-1
    11:     802.28 cm**-1
    12:     864.05 cm**-1
    13:     930.60 cm**-1
    14:     990.26 cm**-1
    15:    1019.57 cm**-1
    16:    1032.26 cm**-1
    17:    1091.62 cm**-1
    18:    1201.47 cm**-1
    19:    1287.07 cm**-1
    20:    1316.59 cm**-1
    21:    1335.01 cm**-1
    22:    1398.36 cm**-1
    23:    1448.86 cm**-1
    24:    1472.93 cm**-1
    25:    1490.98 cm**-1
    26:    1498.77 cm**-1
    27:    1685.91 cm**-1
    28:    2992.15 cm**-1
    29:    3005.06 cm**-1
    30:    3044.99 cm**-1
    31:    3084.01 cm**-1
    32:    3087.09 cm**-1
    33:    3099.69 cm**-1
    34:    3108.27 cm**-1
    35:    3194.99 cm**-1

IR SPECTRUM
-----------

 Mode   freq       eps      Int      T**2         TX        TY        TZ
       cm**-1   L/(mol*cm) km/mol    a.u.
----------------------------------------------------------------------------
  6:    119.34   0.000020    0.10  0.000051  (-0.000043 -0.006378 -0.003231)
  7:    250.10   0.000013    0.06  0.000016  ( 0.000516  0.003617  0.001545)
  8:    322.89   0.000129    0.65  0.000125  (-0.007680  0.005028  0.006373)
  9:    444.19   0.000165    0.83  0.000116  (-0.009831 -0.003629 -0.002473)
 10:    658.91   0.002335   11.80  0.001106  (-0.009160  0.018178  0.026301)
 11:    802.28   0.000749    3.79  0.000291  (-0.013654  0.007763 -0.006683)
 12:    864.05   0.000553    2.80  0.000200  ( 0.013509  0.003673 -0.001942)
 13:    930.60   0.009348   47.24  0.003135  (-0.016908  0.036998  0.038468)
 14:    990.26   0.000455    2.30  0.000143  (-0.011015 -0.004705  0.000104)
 15:   1019.57   0.000953    4.81  0.000292  (-0.000310 -0.007841 -0.015167)
 16:   1032.26   0.002071   10.46  0.000626  ( 0.014429 -0.013772 -0.015103)
 17:   1091.62   0.000708    3.58  0.000202  (-0.000730  0.011996  0.007618)
 18:   1201.47   0.000080    0.41  0.000021  ( 0.003551 -0.002093  0.001971)
 19:   1287.07   0.000020    0.10  0.000005  ( 0.001300 -0.000915  0.001521)
 20:   1316.59   0.000264    1.34  0.000063  ( 0.006743 -0.003317  0.002487)
 21:   1335.01   0.000344    1.74  0.000080  ( 0.008889  0.000620 -0.000974)
 22:   1398.36   0.000389    1.97  0.000087  (-0.004285  0.008087  0.001742)
 23:   1448.86   0.000303    1.53  0.000065  (-0.003923 -0.000608 -0.007040)
 24:   1472.93   0.000980    4.95  0.000208  ( 0.008929 -0.010402  0.004435)
 25:   1490.98   0.001443    7.29  0.000302  ( 0.004685  0.000955  0.016707)
 26:   1498.77   0.001367    6.91  0.000285  ( 0.004035  0.015226 -0.006049)
 27:   1685.91   0.003227   16.31  0.000597  ( 0.023227  0.002448  0.007194)
 28:   2992.15   0.004807   24.29  0.000501  (-0.005178 -0.019918 -0.008819)
 29:   3005.06   0.006877   34.76  0.000714  (-0.022341  0.013890  0.004705)
 30:   3044.99   0.001267    6.40  0.000130  (-0.003843  0.006825 -0.008279)
 31:   3084.01   0.005862   29.63  0.000593  ( 0.005107  0.012156 -0.020478)
 32:   3087.09   0.006751   34.11  0.000682  ( 0.017337  0.015695  0.011640)
 33:   3099.69   0.007423   37.51  0.000747  ( 0.006644 -0.015648  0.021409)
 34:   3108.27   0.000839    4.24  0.000084  (-0.007865 -0.003769  0.002862)
 35:   3194.99   0.003228   16.31  0.000315  (-0.008346 -0.012630  0.009281)

--------------------------
THERMOCHEMISTRY AT 298.15K
--------------------------

Temperature         ...   298.15 K
Pressure            ...     1.00 atm
Total Mass          ...    56.11 AMU
Quasi RRHO          ...     True
Cut-Off Frequency   ...     1.00 cm^-1

Throughout the following assumptions are being made:
  (1) The electronic state is orbitally nondegenerate
  (2) There are no thermally accessible electronically excited states
  (3) Hindered rotations indicated by low frequency modes are not
      treated as such but are treated as vibrations and this may
      cause some error
  (4) All equations used are the standard statistical mechanics
      equations for an ideal gas
  (5) All vibrations are strictly harmonic

freq.     119.34  E(vib)   ...       0.44
freq.     250.10  E(vib)   ...       0.31
freq.     322.89  E(vib)   ...       0.25
freq.     444.19  E(vib)   ...       0.17
freq.     658.91  E(vib)   ...       0.08
freq.     802.28  E(vib)   ...       0.05
freq.     864.05  E(vib)   ...       0.04
freq.     930.60  E(vib)   ...       0.03
freq.     990.26  E(vib)   ...       0.02
freq.    1019.57  E(vib)   ...       0.02
freq.    1032.26  E(vib)   ...       0.02
freq.    1091.62  E(vib)   ...       0.02
freq.    1201.47  E(vib)   ...       0.01
freq.    1287.07  E(vib)   ...       0.01
freq.    1316.59  E(vib)   ...       0.01
freq.    1335.01  E(vib)   ...       0.01
freq.    1398.36  E(vib)   ...       0.00
freq.    1448.86  E(vib)   ...       0.00
freq.    1472.93  E(vib)   ...       0.00
freq.    1490.98  E(vib)   ...       0.00
freq.    1498.77  E(vib)   ...       0.00
freq.    1685.91  E(vib)   ...       0.00
freq.    2992.15  E(vib)   ...       0.00
freq.    3005.06  E(vib)   ...       0.00
freq.    3044.99  E(vib)   ...       0.00
freq.    3084.01  E(vib)   ...       0.00
freq.    3087.09  E(vib)   ...       0.00
freq.    3099.69  E(vib)   ...       0.00
freq.    3108.27  E(vib)   ...       0.00
freq.    3194.99  E(vib)   ...       0.00

------------
INNER ENERGY
------------

The inner energy is: U= E(el) + E(ZPE) + E(vib) + E(rot) + E(trans)
    E(el)   - is the total energy from the electronic structure calculation
              = E(kin-el) + E(nuc-el) + E(el-el) + E(nuc-nuc)
    E(ZPE)  - the the zero temperature vibrational energy from the frequency calculation
    E(vib)  - the the finite temperature correction to E(ZPE) due to population
              of excited vibrational states
    E(rot)  - is the rotational thermal energy
    E(trans)- is the translational thermal energy

Summary of contributions to the inner energy U:
Electronic energy                ...   -157.17100235 Eh
Zero point energy                ...      0.10770782 Eh      67.59 kcal/mol
Thermal vibrational correction   ...      0.00237449 Eh       1.49 kcal/mol
Thermal rotational correction    ...      0.00141627 Eh       0.89 kcal/mol
Thermal translational correction ...      0.00141627 Eh       0.89 kcal/mol
-----------------------------------------------------------------------
Total thermal energy                   -157.05808749 Eh

Summary of corrections to the electronic energy:
(perhaps to be used in another calculation)
Total thermal correction                  0.00520704 Eh       3.27 kcal/mol
Non-thermal (ZPE) correction              0.10770782 Eh      67.59 kcal/mol
-----------------------------------------------------------------------
Total correction                          0.11291486 Eh      70.85 kcal/mol

--------
ENTHALPY
--------

The enthalpy is H = U + kB*T
                kB is Boltzmann's constant
Total thermal energy              ...   -157.05808749 Eh
Thermal Enthalpy correction       ...      0.00094421 Eh       0.59 kcal/mol
-----------------------------------------------------------------------
Total Enthalpy                    ...   -157.05714328 Eh

Note: Only C1 symmetry has been detected, increase convergence thresholds
      if your molecule has a higher symmetry. Symmetry factor of 1.0 is
      used for the rotational entropy correction.

Note: Rotational entropy computed according to Herzberg
Infrared and Raman Spectra, Chapter V,1, Van Nostrand Reinhold, 1945
Point Group:  C1, Symmetry Number:   1
Rotational constants in cm-1:     0.759329     0.138851     0.135286

Vibrational entropy computed according to the QRRHO of S. Grimme
Chem.Eur.J. 2012 18 9955 using a reference frequency of 100.0 cm-1

-------
ENTROPY
-------

The entropy contributions are T*S = T*(S(el)+S(vib)+S(rot)+S(trans))
     S(el)   - electronic entropy
     S(vib)  - vibrational entropy
     S(rot)  - rotational entropy
     S(trans)- translational entropy
The entropies will be listed as multiplied by the temperature to get
units of energy

Electronic entropy                ...      0.00000000 Eh      0.00 kcal/mol
Vibrational entropy               ...      0.00389222 Eh      2.44 kcal/mol
Rotational entropy                ...      0.01151721 Eh      7.23 kcal/mol
Translational entropy             ...      0.01805279 Eh     11.33 kcal/mol
-----------------------------------------------------------------------
Final entropy term                ...      0.03346223 Eh     21.00 kcal/mol

In case the symmetry of your molecule has not been determined correctly
or in case you have a reason to use a different symmetry number we print
out the resulting rotational entropy values for sn=1,12:

 non-linear molecules -----------------------------------
|  sn= 1 | S(rot)=       0.01151721 Eh      7.23 kcal/mol|
|  sn= 2 | S(rot)=       0.01086276 Eh      6.82 kcal/mol|
|  sn= 3 | S(rot)=       0.01047993 Eh      6.58 kcal/mol|
|  sn= 4 | S(rot)=       0.01020830 Eh      6.41 kcal/mol|
|  sn= 5 | S(rot)=       0.00999761 Eh      6.27 kcal/mol|
|  sn= 6 | S(rot)=       0.00982547 Eh      6.17 kcal/mol|
|  sn= 7 | S(rot)=       0.00967992 Eh      6.07 kcal/mol|
|  sn= 8 | S(rot)=       0.00955385 Eh      6.00 kcal/mol|
|  sn= 9 | S(rot)=       0.00944264 Eh      5.93 kcal/mol|
|  sn=10 | S(rot)=       0.00934316 Eh      5.86 kcal/mol|
|  sn=11 | S(rot)=       0.00925317 Eh      5.81 kcal/mol|
|  sn=12 | S(rot)=       0.00917101 Eh      5.75 kcal/mol|
 linear molecules ---------------------------------------
|  Dinfh | S(rot)=       0.00721451 Eh      4.53 kcal/mol|
|  Cinfv | S(rot)=       0.00786897 Eh      4.94 kcal/mol|
 --------------------------------------------------------

-------------------
GIBBS FREE ENERGY
-------------------

The Gibbs free energy is G = H - T*S

Total enthalpy                    ...   -157.05714328 Eh
Total entropy correction          ...     -0.03346223 Eh    -21.00 kcal/mol
-----------------------------------------------------------------------
Final Gibbs free energy         ...   -157.09060551 Eh

For completeness - the Gibbs free energy minus the electronic energy

                             ****ORCA TERMINATED NORMALLY****
TOTAL RUN TIME: 0 days 0 hours 3 minutes 16 seconds 410 msec
