                         Program Version 6.0.0  -   RELEASE  -
|  1> ! r2SCAN-3c DEF2-TZVP FREQ
|  2> * xyzfile 0 1 vacuum_censo.xyz
|  3>
|  4>                          ****END OF INPUT****

CARTESIAN COORDINATES (ANGSTROEM)
---------------------------------
  C      1.750913   -0.317991    0.222218
  C      0.568380    0.582523   -0.155643
  C     -0.685601   -0.201098   -0.390334
  C     -1.821829   -0.050985    0.284391
  H      2.661679    0.270008    0.369561
  H      1.949246   -1.054064   -0.563849
  H      1.540723   -0.864410    1.146420
  H      0.822598    1.137098   -1.069598
  H      0.394628    1.327398    0.629456
  H     -0.630166   -0.960957   -1.171459
  H     -2.694970   -0.659139    0.071852
  H     -1.915666    0.691709    1.072804

 Total Charge           Charge          ....    0
 Multiplicity           Mult            ....    1
 Number of Electrons    NEL             ....   32
 Basis Dimension        Dim             ....  172

ORBITAL ENERGIES
----------------

  NO   OCC          E(Eh)            E(eV)
   0   2.0000     -10.034998      -273.0662
   1   2.0000     -10.034638      -273.0564
   2   2.0000     -10.024575      -272.7826
   3   2.0000     -10.021732      -272.7052
   4   2.0000      -0.766727       -20.8637
   5   2.0000      -0.694390       -18.8953
   6   2.0000      -0.594510       -16.1774
   7   2.0000      -0.520463       -14.1625
   8   2.0000      -0.438418       -11.9300
   9   2.0000      -0.410087       -11.1590
  10   2.0000      -0.393745       -10.7144
  11   2.0000      -0.350335        -9.5331
  12   2.0000      -0.343789        -9.3550
  13   2.0000      -0.311908        -8.4875
  14   2.0000      -0.303851        -8.2682
  15   2.0000      -0.236719        -6.4415
  16   0.0000      -0.014769        -0.4019
  17   0.0000       0.058024         1.5789
  18   0.0000       0.082067         2.2331
  19   0.0000       0.090675         2.4674
  20   0.0000       0.106881         2.9084

MULLIKEN ATOMIC CHARGES
-----------------------
   0 C :   -0.320436
   1 C :   -0.078569
   2 C :   -0.132728
   3 C :   -0.275965
   4 H :    0.105778
   5 H :    0.099338
   6 H :    0.107451
   7 H :    0.087439
   8 H :    0.079966
   9 H :    0.099811
  10 H :    0.118575
  11 H :    0.109339
Sum of atomic charges:   -0.0000000

LOEWDIN ATOMIC CHARGES
----------------------
   0 C :   -0.303065
   1 C :   -0.277700
   2 C :   -0.206862
   3 C :   -0.220630
   4 H :    0.117279
   5 H :    0.117646
   6 H :    0.119477
   7 H :    0.139829
   8 H :    0.136336
   9 H :    0.138437
  10 H :    0.119834
  11 H :    0.119418

  Mayer bond orders larger than 0.100000
B(  0-C ,  1-C ) :   0.9618 B(  0-C ,  4-H ) :   0.9716 B(  0-C ,  5-H ) :   0.9778
B(  0-C ,  6-H ) :   0.9747 B(  1-C ,  2-C ) :   0.9605 B(  1-C ,  7-H ) :   0.9572
B(  1-C ,  8-H ) :   0.9687 B(  2-C ,  3-C ) :   1.9439 B(  2-C ,  9-H ) :   0.9531
B(  3-C , 10-H ) :   0.9626 B(  3-C , 11-H ) :   0.9614

Dispersion correction           -0.002248484
FINAL SINGLE POINT ENERGY      -157.171024806991

DIPOLE MOMENT
-------------

Method             : SCF
Type of density    : Electron Density
Multiplicity       :   1
Irrep              :   0
Energy             :  -157.1732369582552167 Eh
Relativity type    :
Basis              : AO
                                X                 Y                 Z
Electronic contribution:     -1.845175970       0.141138904      -0.487069106
Nuclear contribution   :      2.011837798      -0.110259559       0.453020634
                        -----------------------------------------
Total Dipole Moment    :      0.166661829       0.030879345      -0.034048472
                        -----------------------------------------
Magnitude (a.u.)       :      0.172884347
Magnitude (Debye)      :      0.439437088

VIBRATIONAL FREQUENCIES
-----------------------

Scaling factor for frequencies =  1.000000000  (already applied!)

     0:       0.00 cm**-1
     1:       0.00 cm**-1
     2:       0.00 cm**-1
     3:       0.00 cm**-1
     4:       0.00 cm**-1
     5:       0.00 cm**-1
     6:     108.68 cm**-1
     7:     241.67 cm**-1
     8:     317.96 cm**-1
     9:     441.28 cm**-1
    10:     654.94 cm**-1
    11:     799.86 cm**-1
    12:     861.04 cm**-1
    13:     927.61 cm**-1
    14:     987.57 cm**-1
    15:    1017.22 cm**-1
    16:    1030.49 cm**-1
    17:    1090.86 cm**-1
    18:    1199.64 cm**-1
    19:    1286.41 cm**-1
    20:    1317.05 cm**-1
    21:    1335.88 cm**-1
    22:    1396.86 cm**-1
    23:    1448.43 cm**-1
    24:    1473.92 cm**-1
    25:    1490.14 cm**-1
    26:    1498.49 cm**-1
    27:    1693.12 cm**-1
    28:    2992.19 cm**-1
    29:    3009.30 cm**-1
    30:    3044.30 cm**-1
    31:    3086.65 cm**-1
    32:    3093.34 cm**-1
    33:    3104.83 cm**-1
    34:    3118.19 cm**-1
    35:    3206.11 cm**-1

IR SPECTRUM
-----------

 Mode   freq       eps      Int      T**2         TX        TY        TZ
       cm**-1   L/(mol*cm) km/mol    a.u.
----------------------------------------------------------------------------
  6:    108.68   0.000017    0.09  0.000049  ( 0.000431  0.006344 -0.003003)
  7:    241.67   0.000013    0.07  0.000017  (-0.000435 -0.003808  0.001651)
  8:    317.96   0.000139    0.70  0.000136  ( 0.007910 -0.005565  0.006522)
  9:    441.28   0.000164    0.83  0.000116  ( 0.009764  0.003747 -0.002593)
 10:    654.94   0.002354   11.90  0.001122  ( 0.009313 -0.018694  0.026185)
 11:    799.86   0.000751    3.80  0.000293  ( 0.013527 -0.007849 -0.006972)
 12:    861.04   0.000550    2.78  0.000199  (-0.013512 -0.003584 -0.001964)
 13:    927.61   0.009278   46.89  0.003121  ( 0.016958 -0.037519  0.037762)
 14:    987.57   0.000456    2.30  0.000144  ( 0.011046  0.004688  0.000295)
 15:   1017.22   0.000857    4.33  0.000263  ( 0.000936  0.007430 -0.014384)
 16:   1030.49   0.002192   11.08  0.000664  (-0.014409  0.014480 -0.015700)
 17:   1090.86   0.000715    3.61  0.000205  ( 0.000549 -0.012172  0.007493)
 18:   1199.64   0.000080    0.40  0.000021  (-0.003600  0.001993  0.001959)
 19:   1286.41   0.000019    0.09  0.000005  (-0.001170  0.000950  0.001496)
 20:   1317.05   0.000285    1.44  0.000067  (-0.007200  0.003158  0.002381)
 21:   1335.88   0.000319    1.61  0.000074  (-0.008548 -0.000495 -0.001079)
 22:   1396.86   0.000391    1.97  0.000087  ( 0.004135 -0.008165  0.001868)
 23:   1448.43   0.000330    1.67  0.000071  ( 0.004308  0.000287 -0.007236)
 24:   1473.92   0.000952    4.81  0.000202  (-0.008844  0.010158  0.004495)
 25:   1490.14   0.001521    7.69  0.000319  (-0.004408  0.000281  0.017293)
 26:   1498.49   0.001326    6.70  0.000276  (-0.004302 -0.015330 -0.004767)
 27:   1693.12   0.003176   16.05  0.000585  (-0.023002 -0.002585  0.007046)
 28:   2992.19   0.005020   25.37  0.000524  (-0.004831 -0.020461  0.009034)
 29:   3009.30   0.006738   34.05  0.000699  (-0.022471  0.013354 -0.003933)
 30:   3044.30   0.001619    8.18  0.000166  ( 0.004452 -0.007423 -0.009542)
 31:   3086.65   0.006197   31.32  0.000627  (-0.007020 -0.013910 -0.019590)
 32:   3093.34   0.006411   32.40  0.000647  (-0.016009 -0.014515  0.013409)
 33:   3104.83   0.007081   35.78  0.000712  (-0.004471  0.015471  0.021268)
 34:   3118.19   0.000908    4.59  0.000091  ( 0.009159 -0.000335 -0.002616)
 35:   3206.11   0.003178   16.06  0.000309  ( 0.008487  0.012328  0.009236)

--------------------------
THERMOCHEMISTRY AT 298.15K
--------------------------

Temperature         ...   298.15 K
Pressure            ...     1.00 atm
Total Mass          ...    56.11 AMU
Quasi RRHO          ...     True
Cut-Off Frequency   ...     1.00 cm^-1

Throughout the following assumptions are being made:
  (1) The electronic state is orbitally nondegenerate
  (2) There are no thermally accessible electronically excited states
  (3) Hindered rotations indicated by low frequency modes are not
      treated as such but are treated as vibrations and this may
      cause some error
  (4) All equations used are the standard statistical mechanics
      equations for an ideal gas
  (5) All vibrations are strictly harmonic

freq.     108.68  E(vib)   ...       0.45
freq.     241.67  E(vib)   ...       0.31
freq.     317.96  E(vib)   ...       0.25
freq.     441.28  E(vib)   ...       0.17
freq.     654.94  E(vib)   ...       0.08
freq.     799.86  E(vib)   ...       0.05
freq.     861.04  E(vib)   ...       0.04
freq.     927.61  E(vib)   ...       0.03
freq.     987.57  E(vib)   ...       0.02
freq.    1017.22  E(vib)   ...       0.02
freq.    1030.49  E(vib)   ...       0.02
freq.    1090.86  E(vib)   ...       0.02
freq.    1199.64  E(vib)   ...       0.01
freq.    1286.41  E(vib)   ...       0.01
freq.    1317.05  E(vib)   ...       0.01
freq.    1335.88  E(vib)   ...       0.01
freq.    1396.86  E(vib)   ...       0.00
freq.    1448.43  E(vib)   ...       0.00
freq.    1473.92  E(vib)   ...       0.00
freq.    1490.14  E(vib)   ...       0.00
freq.    1498.49  E(vib)   ...       0.00
freq.    1693.12  E(vib)   ...       0.00
freq.    2992.19  E(vib)   ...       0.00
freq.    3009.30  E(vib)   ...       0.00
freq.    3044.30  E(vib)   ...       0.00
freq.    3086.65  E(vib)   ...       0.00
freq.    3093.34  E(vib)   ...       0.00
freq.    3104.83  E(vib)   ...       0.00
freq.    3118.19  E(vib)   ...       0.00
freq.    3206.11  E(vib)   ...       0.00

------------
INNER ENERGY
------------

The inner energy is: U= E(el) + E(ZPE) + E(vib) + E(rot) + E(trans)
    E(el)   - is the total energy from the electronic structure calculation
              = E(kin-el) + E(nuc-el) + E(el-el) + E(nuc-nuc)
    E(ZPE)  - the the zero temperature vibrational energy from the frequency calculation
    E(vib)  - the the finite temperature correction to E(ZPE) due to population
              of excited vibrational states
    E(rot)  - is the rotational thermal energy
    E(trans)- is the translational thermal energy

Summary of contributions to the inner energy U:
Electronic energy                ...   -157.17102481 Eh
Zero point energy                ...      0.10769817 Eh      67.58 kcal/mol
Thermal vibrational correction   ...      0.00241958 Eh       1.52 kcal/mol
Thermal rotational correction    ...      0.00141627 Eh       0.89 kcal/mol
Thermal translational correction ...      0.00141627 Eh       0.89 kcal/mol
-----------------------------------------------------------------------
Total thermal energy                   -157.05807452 Eh

Summary of corrections to the electronic energy:
(perhaps to be used in another calculation)
Total thermal correction                  0.00525212 Eh       3.30 kcal/mol
Non-thermal (ZPE) correction              0.10769817 Eh      67.58 kcal/mol
-----------------------------------------------------------------------
Total correction                          0.11295029 Eh      70.88 kcal/mol

--------
ENTHALPY
--------

The enthalpy is H = U + kB*T
                kB is Boltzmann's constant
Total thermal energy              ...   -157.05807452 Eh
Thermal Enthalpy correction       ...      0.00094421 Eh       0.59 kcal/mol
-----------------------------------------------------------------------
Total Enthalpy                    ...   -157.05713031 Eh

Note: Only C1 symmetry has been detected, increase convergence thresholds
      if your molecule has a higher symmetry. Symmetry factor of 1.0 is
      used for the rotational entropy correction.

Note: Rotational entropy computed according to Herzberg
Infrared and Raman Spectra, Chapter V,1, Van Nostrand Reinhold, 1945
Point Group:  C1, Symmetry Number:   1
Rotational constants in cm-1:     0.757521     0.138853     0.135380

Vibrational entropy computed according to the QRRHO of S. Grimme
Chem.Eur.J. 2012 18 9955 using a reference frequency of 100.0 cm-1

-------
ENTROPY
-------

The entropy contributions are T*S = T*(S(el)+S(vib)+S(rot)+S(trans))
     S(el)   - electronic entropy
     S(vib)  - vibrational entropy
     S(rot)  - rotational entropy
     S(trans)- translational entropy
The entropies will be listed as multiplied by the temperature to get
units of energy

Electronic entropy                ...      0.00000000 Eh      0.00 kcal/mol
Vibrational entropy               ...      0.00399453 Eh      2.51 kcal/mol
Rotational entropy                ...      0.01151800 Eh      7.23 kcal/mol
Translational entropy             ...      0.01805279 Eh     11.33 kcal/mol
-----------------------------------------------------------------------
Final entropy term                ...      0.03356533 Eh     21.06 kcal/mol

In case the symmetry of your molecule has not been determined correctly
or in case you have a reason to use a different symmetry number we print
out the resulting rotational entropy values for sn=1,12:

 non-linear molecules -----------------------------------
|  sn= 1 | S(rot)=       0.01151800 Eh      7.23 kcal/mol|
|  sn= 2 | S(rot)=       0.01086355 Eh      6.82 kcal/mol|
|  sn= 3 | S(rot)=       0.01048071 Eh      6.58 kcal/mol|
|  sn= 4 | S(rot)=       0.01020909 Eh      6.41 kcal/mol|
|  sn= 5 | S(rot)=       0.00999840 Eh      6.27 kcal/mol|
|  sn= 6 | S(rot)=       0.00982626 Eh      6.17 kcal/mol|
|  sn= 7 | S(rot)=       0.00968071 Eh      6.07 kcal/mol|
|  sn= 8 | S(rot)=       0.00955463 Eh      6.00 kcal/mol|
|  sn= 9 | S(rot)=       0.00944342 Eh      5.93 kcal/mol|
|  sn=10 | S(rot)=       0.00934395 Eh      5.86 kcal/mol|
|  sn=11 | S(rot)=       0.00925396 Eh      5.81 kcal/mol|
|  sn=12 | S(rot)=       0.00917180 Eh      5.76 kcal/mol|
 linear molecules ---------------------------------------
|  Dinfh | S(rot)=       0.00721386 Eh      4.53 kcal/mol|
|  Cinfv | S(rot)=       0.00786831 Eh      4.94 kcal/mol|
 --------------------------------------------------------

-------------------
GIBBS FREE ENERGY
-------------------

The Gibbs free energy is G = H - T*S

Total enthalpy                    ...   -157.05713031 Eh
Total entropy correction          ...     -0.03356533 Eh    -21.06 kcal/mol
-----------------------------------------------------------------------
Final Gibbs free energy         ...   -157.09069563 Eh

For completeness - the Gibbs free energy minus the electronic energy

                             ****ORCA TERMINATED NORMALLY****
TOTAL RUN TIME: 0 days 0 hours 3 minutes 24 seconds 446 msec
