                         Program Version 6.0.1  -  RELEASE   -
|  1> ! pbe def2-sv(p) def2/J RI DEFGRID1 loosescf d4 GCP(DFT/SV(P)) printgap
|  2> %output
|  3>     printlevel normal
|  4> end
|  5> * xyz 0 1
|  6> C -1.5347767081 0.641021583 -0.0382884514
|  7> C -1.2595388722 -0.8049038493 -0.4432756568
|  8> C -0.0676827858 -1.177829093 0.4350755093
|  9> C 0.8107314781 0.0895413492 0.469758499
| 10> C -0.139729 1.2549027349 0.1053864139
| 11> O 1.9155582152 0.0051338131 -0.3998068489
| 12> H -2.0515265109 0.6578456295 0.9223598217
| 13> H -2.1469087097 1.1732367004 -0.7651374813
| 14> H -2.1165605662 -1.4569389487 -0.2824626004
| 15> H -0.9868867611 -0.8537199092 -1.4998399602
| 16> H -0.4109939386 -1.4146478663 1.4421129531
| 17> H 0.4960911079 -2.0296891869 0.0563020157
| 18> H 1.260589924 0.2305280396 1.4555265777
| 19> H -0.1155966507 2.0452549581 0.8529655858
| 20> H 0.187631185 1.6865214102 -0.8426527381
| 21> H 1.5863828689 -0.1524504424 -1.2925636865
| 22> *
| 23>
| 24>                          ****END OF INPUT****

CARTESIAN COORDINATES (ANGSTROEM)
---------------------------------
  C     -1.534777    0.641022   -0.038288
  C     -1.259539   -0.804904   -0.443276
  C     -0.067683   -1.177829    0.435076
  C      0.810731    0.089541    0.469758
  C     -0.139729    1.254903    0.105386
  O      1.915558    0.005134   -0.399807
  H     -2.051527    0.657846    0.922360
  H     -2.146909    1.173237   -0.765137
  H     -2.116561   -1.456939   -0.282463
  H     -0.986887   -0.853720   -1.499840
  H     -0.410994   -1.414648    1.442113
  H      0.496091   -2.029689    0.056302
  H      1.260590    0.230528    1.455527
  H     -0.115597    2.045255    0.852966
  H      0.187631    1.686521   -0.842653
  H      1.586383   -0.152450   -1.292564

 Total Charge           Charge          ....    0
 Multiplicity           Mult            ....    1
 Number of Electrons    NEL             ....   48
 Basis Dimension        Dim             ....  104

ORBITAL ENERGIES
----------------

  NO   OCC          E(Eh)            E(eV)
   0   2.0000     -18.737116      -509.8628
   1   2.0000      -9.930694      -270.2279
   2   2.0000      -9.886427      -269.0233
   3   2.0000      -9.884709      -268.9766
   4   2.0000      -9.879865      -268.8448
   5   2.0000      -9.879397      -268.8321
   6   2.0000      -0.918464       -24.9927
   7   2.0000      -0.751362       -20.4456
   8   2.0000      -0.639293       -17.3961
   9   2.0000      -0.625472       -17.0200
  10   2.0000      -0.521082       -14.1794
  11   2.0000      -0.511971       -13.9315
  12   2.0000      -0.450052       -12.2465
  13   2.0000      -0.438484       -11.9318
  14   2.0000      -0.395331       -10.7575
  15   2.0000      -0.377960       -10.2848
  16   2.0000      -0.362400        -9.8614
  17   2.0000      -0.326642        -8.8884
  18   2.0000      -0.301543        -8.2054
  19   2.0000      -0.299453        -8.1485
  20   2.0000      -0.296402        -8.0655
  21   2.0000      -0.288649        -7.8545
  22   2.0000      -0.262203        -7.1349
  23   2.0000      -0.206306        -5.6139
  24   0.0000       0.020276         0.5517
  25   0.0000       0.039265         1.0685
  26   0.0000       0.060435         1.6445
  27   0.0000       0.083866         2.2821
  28   0.0000       0.094304         2.5661

MULLIKEN ATOMIC CHARGES
-----------------------
   0 C :   -0.170576
   1 C :   -0.184651
   2 C :   -0.137027
   3 C :    0.015587
   4 C :   -0.126966
   5 O :   -0.425374
   6 H :    0.083888
   7 H :    0.090008
   8 H :    0.095149
   9 H :    0.075807
  10 H :    0.079975
  11 H :    0.089999
  12 H :    0.066756
  13 H :    0.089013
  14 H :    0.072419
  15 H :    0.285995
Sum of atomic charges:    0.0000000

LOEWDIN ATOMIC CHARGES
----------------------
   0 C :   -0.230956
   1 C :   -0.232340
   2 C :   -0.246327
   3 C :   -0.052768
   4 C :   -0.243419
   5 O :   -0.322972
   6 H :    0.116807
   7 H :    0.117199
   8 H :    0.118581
   9 H :    0.109090
  10 H :    0.121161
  11 H :    0.119096
  12 H :    0.111281
  13 H :    0.122797
  14 H :    0.118799
  15 H :    0.273970

  Mayer bond orders larger than 0.100000
B(  0-C ,  1-C ) :   1.1195 B(  0-C ,  4-C ) :   1.1479 B(  0-C ,  6-H ) :   0.9187
B(  0-C ,  7-H ) :   0.9251 B(  1-C ,  2-C ) :   1.1075 B(  1-C ,  8-H ) :   0.9282
B(  1-C ,  9-H ) :   0.9267 B(  2-C ,  3-C ) :   1.1015 B(  2-C , 10-H ) :   0.9064
B(  2-C , 11-H ) :   0.9199 B(  3-C ,  4-C ) :   1.0823 B(  3-C ,  5-O ) :   1.0562
B(  3-C , 12-H ) :   0.9049 B(  4-C , 13-H ) :   0.9152 B(  4-C , 14-H ) :   0.9097
B(  5-O , 15-H ) :   0.8571

Dispersion correction           -0.012397173
FINAL SINGLE POINT ENERGY      -271.120677183577

DIPOLE MOMENT
-------------

Method             : SCF
Type of density    : Electron Density
Multiplicity       :   1
Irrep              :   0
Energy             :  -271.1834512375225472 Eh
Relativity type    :
Basis              : AO
                                X                 Y                 Z
Electronic contribution:      3.406939826       0.055870143      -0.228247325
Nuclear contribution   :     -4.003613775      -0.106930648       0.037798043
                        -----------------------------------------
Total Dipole Moment    :     -0.596673948      -0.051060504      -0.190449283
                        -----------------------------------------
Magnitude (a.u.)       :      0.628409027
Magnitude (Debye)      :      1.597288808

Rotational constants in cm-1:             0.192492             0.109192             0.084437
Rotational constants in MHz :          5770.757958          3273.489276          2531.343138

                             ****ORCA TERMINATED NORMALLY****
TOTAL RUN TIME: 0 days 0 hours 0 minutes 15 seconds 773 msec
