                         Program Version 6.0.1  -  RELEASE   -
|  1> ! pbe def2-sv(p) def2/J RI DEFGRID1 loosescf d4 GCP(DFT/SV(P)) printgap
|  2> %output
|  3>     printlevel normal
|  4> end
|  5> * xyz 0 1
|  6> C -2.445236473 -0.8628544819 -0.2039985676
|  7> C -1.1076854433 -0.598315233 0.5151318502
|  8> H -1.1572005661 -0.9887560701 1.5426561064
|  9> C -0.7570847954 0.9105377599 0.5933095068
| 10> H -1.6571476488 1.4852472832 0.3446868146
| 11> C 0.3435542154 1.2044795294 -0.4462119284
| 12> H 0.5850982704 2.2715373263 -0.431316311
| 13> C 1.6071418409 0.3995016293 -0.0830912583
| 14> H 2.2587867086 0.3595814886 -0.9670756422
| 15> C 1.1924314533 -1.0521974576 0.2650331707
| 16> H 1.2139065377 -1.1768864483 1.3700092375
| 17> O -0.1075469341 -1.3318197974 -0.1944480773
| 18> O 2.0752313581 -1.9210992742 -0.3538917937
| 19> O 2.260351875 1.0251355652 0.9964147821
| 20> O -0.0769251871 0.8962494637 -1.7512359201
| 21> O -0.3800106492 1.2984185514 1.886473483
| 22> O -2.8268144248 0.1212024456 -1.1217417982
| 23> H -3.2497590336 -0.9051626786 0.5328616607
| 24> H -2.3606106236 -1.8447326286 -0.6930224928
| 25> H 1.6926953012 -2.8070276933 -0.3508054635
| 26> H 3.11562546 0.603634842 1.1361375664
| 27> H -0.0395144897 -0.0684820779 -1.8459109462
| 28> H 0.5859851118 1.2865973563 1.9561730744
| 29> H -2.0719248944 0.3724321968 -1.6762162565
| 30> *
| 31>
| 32>                          ****END OF INPUT****

CARTESIAN COORDINATES (ANGSTROEM)
---------------------------------
  C     -2.445236   -0.862854   -0.203999
  C     -1.107685   -0.598315    0.515132
  H     -1.157201   -0.988756    1.542656
  C     -0.757085    0.910538    0.593310
  H     -1.657148    1.485247    0.344687
  C      0.343554    1.204480   -0.446212
  H      0.585098    2.271537   -0.431316
  C      1.607142    0.399502   -0.083091
  H      2.258787    0.359581   -0.967076
  C      1.192431   -1.052197    0.265033
  H      1.213907   -1.176886    1.370009
  O     -0.107547   -1.331820   -0.194448
  O      2.075231   -1.921099   -0.353892
  O      2.260352    1.025136    0.996415
  O     -0.076925    0.896249   -1.751236
  O     -0.380011    1.298419    1.886473
  O     -2.826814    0.121202   -1.121742
  H     -3.249759   -0.905163    0.532862
  H     -2.360611   -1.844733   -0.693022
  H      1.692695   -2.807028   -0.350805
  H      3.115625    0.603635    1.136138
  H     -0.039514   -0.068482   -1.845911
  H      0.585985    1.286597    1.956173
  H     -2.071925    0.372432   -1.676216

 Total Charge           Charge          ....    0
 Multiplicity           Mult            ....    1
 Number of Electrons    NEL             ....   96
 Basis Dimension        Dim             ....  192

ORBITAL ENERGIES
----------------

  NO   OCC          E(Eh)            E(eV)
   0   2.0000     -18.793287      -511.3913
   1   2.0000     -18.789030      -511.2755
   2   2.0000     -18.778841      -510.9982
   3   2.0000     -18.773525      -510.8536
   4   2.0000     -18.740144      -509.9452
   5   2.0000     -18.739304      -509.9224
   6   2.0000     -10.003451      -272.2077
   7   2.0000      -9.960385      -271.0359
   8   2.0000      -9.956356      -270.9262
   9   2.0000      -9.947353      -270.6812
  10   2.0000      -9.939110      -270.4569
  11   2.0000      -9.933269      -270.2980
  12   2.0000      -1.005869       -27.3711
  13   2.0000      -0.964628       -26.2489
  14   2.0000      -0.954603       -25.9761
  15   2.0000      -0.934092       -25.4179
  16   2.0000      -0.919357       -25.0170
  17   2.0000      -0.917473       -24.9657
  18   2.0000      -0.705648       -19.2017
  19   2.0000      -0.698262       -19.0007
  20   2.0000      -0.626008       -17.0345
  21   2.0000      -0.602080       -16.3834
  22   2.0000      -0.572710       -15.5842
  23   2.0000      -0.534033       -14.5318
  24   2.0000      -0.521723       -14.1968
  25   2.0000      -0.498660       -13.5692
  26   2.0000      -0.494976       -13.4690
  27   2.0000      -0.468491       -12.7483
  28   2.0000      -0.452788       -12.3210
  29   2.0000      -0.447939       -12.1890
  30   2.0000      -0.419285       -11.4093
  31   2.0000      -0.404545       -11.0082
  32   2.0000      -0.392676       -10.6853
  33   2.0000      -0.380093       -10.3428
  34   2.0000      -0.364675        -9.9233
  35   2.0000      -0.354632        -9.6500
  36   2.0000      -0.338687        -9.2161
  37   2.0000      -0.334508        -9.1024
  38   2.0000      -0.327982        -8.9248
  39   2.0000      -0.305800        -8.3212
  40   2.0000      -0.299021        -8.1368
  41   2.0000      -0.279334        -7.6011
  42   2.0000      -0.269543        -7.3347
  43   2.0000      -0.255679        -6.9574
  44   2.0000      -0.240955        -6.5567
  45   2.0000      -0.233043        -6.3414
  46   2.0000      -0.217513        -5.9188
  47   2.0000      -0.204061        -5.5528
  48   0.0000       0.000033         0.0009
  49   0.0000       0.018954         0.5158
  50   0.0000       0.036851         1.0028
  51   0.0000       0.051555         1.4029
  52   0.0000       0.061123         1.6633

MULLIKEN ATOMIC CHARGES
-----------------------
   0 C :    0.090694
   1 C :   -0.035948
   2 H :    0.074012
   3 C :    0.029920
   4 H :    0.096731
   5 C :    0.023201
   6 H :    0.098812
   7 C :    0.011057
   8 H :    0.088241
   9 C :    0.178156
  10 H :    0.042467
  11 O :   -0.320870
  12 O :   -0.383930
  13 O :   -0.414509
  14 O :   -0.416941
  15 O :   -0.420906
  16 O :   -0.433212
  17 H :    0.091159
  18 H :    0.076977
  19 H :    0.307768
  20 H :    0.320005
  21 H :    0.310584
  22 H :    0.302630
  23 H :    0.283901
Sum of atomic charges:    0.0000000

LOEWDIN ATOMIC CHARGES
----------------------
   0 C :   -0.124417
   1 C :   -0.082089
   2 H :    0.114268
   3 C :   -0.081296
   4 H :    0.122162
   5 C :   -0.067994
   6 H :    0.126486
   7 C :   -0.091320
   8 H :    0.118485
   9 C :   -0.008350
  10 H :    0.081928
  11 O :   -0.163050
  12 O :   -0.300505
  13 O :   -0.304903
  14 O :   -0.299352
  15 O :   -0.322378
  16 O :   -0.334231
  17 H :    0.118850
  18 H :    0.099946
  19 H :    0.290441
  20 H :    0.299672
  21 H :    0.272726
  22 H :    0.270883
  23 H :    0.264039

  Mayer bond orders larger than 0.100000
B(  0-C ,  1-C ) :   1.0229 B(  0-C , 16-O ) :   1.1054 B(  0-C , 17-H ) :   0.9206
B(  0-C , 18-H ) :   0.9131 B(  1-C ,  2-H ) :   0.8810 B(  1-C ,  3-C ) :   0.9524
B(  1-C , 11-O ) :   0.9479 B(  3-C ,  4-H ) :   0.8889 B(  3-C ,  5-C ) :   0.9960
B(  3-C , 15-O ) :   1.0849 B(  5-C ,  6-H ) :   0.8938 B(  5-C ,  7-C ) :   1.0055
B(  5-C , 14-O ) :   1.0234 B(  7-C ,  8-H ) :   0.8830 B(  7-C ,  9-C ) :   0.9820
B(  7-C , 13-O ) :   1.0314 B(  9-C , 10-H ) :   0.8726 B(  9-C , 11-O ) :   1.0369
B(  9-C , 12-O ) :   1.1585 B( 12-O , 19-H ) :   0.8387 B( 13-O , 20-H ) :   0.8395
B( 13-O , 22-H ) :   0.1029 B( 14-O , 21-H ) :   0.8020 B( 14-O , 23-H ) :   0.1186
B( 15-O , 22-H ) :   0.8097 B( 16-O , 23-H ) :   0.8003

Dispersion correction           -0.025685526
FINAL SINGLE POINT ENERGY      -685.690968670327

DIPOLE MOMENT
-------------

Method             : SCF
Type of density    : Electron Density
Multiplicity       :   1
Irrep              :   0
Energy             :  -685.8270437965041992 Eh
Relativity type    :
Basis              : AO
                                X                 Y                 Z
Electronic contribution:      2.317624061       0.226406660      -0.623921754
Nuclear contribution   :     -1.003043456      -1.323407289       0.853429994
                        -----------------------------------------
Total Dipole Moment    :      1.314580605      -1.097000629       0.229508240
                        -----------------------------------------
Magnitude (a.u.)       :      1.727485623
Magnitude (Debye)      :      4.390919502

Rotational constants in cm-1:             0.043833             0.027052             0.023218
Rotational constants in MHz :          1314.090245           810.989057           696.044560

                             ****ORCA TERMINATED NORMALLY****
TOTAL RUN TIME: 0 days 0 hours 1 minutes 11 seconds 97 msec
