                         Program Version 6.0.0  -   RELEASE  -
|  1> ! r2SCAN-3c DEF2-TZVP FREQ
|  2> * xyzfile 0 1 censo.xyz
|  3>
|  4>                          ****END OF INPUT****

CARTESIAN COORDINATES (ANGSTROEM)
---------------------------------
  C     -2.730317   -0.035611    1.071914
  C     -1.780257    0.149946   -0.072651
  O     -2.172568    0.157794   -1.237493
  C     -0.320235    0.312613    0.274001
  C      0.452047    1.154167   -0.743752
  C      1.925532    1.263363   -0.348232
  C      2.562665   -0.121125   -0.215745
  C      1.787211   -0.992433    0.773359
  C      0.310452   -1.096580    0.388531
  H     -2.304664   -0.694157    1.835266
  H     -2.873684    0.943639    1.547363
  H     -3.695892   -0.411792    0.729906
  H     -0.260088    0.781887    1.265980
  H      0.374028    0.681487   -1.730675
  H     -0.000963    2.149192   -0.824119
  H      2.466662    1.861575   -1.090347
  H      2.005739    1.793253    0.611009
  H      2.568215   -0.610180   -1.199780
  H      3.607552   -0.029269    0.102490
  H      2.223688   -1.996884    0.821680
  H      1.865048   -0.558657    1.779558
  H      0.214865   -1.598541   -0.583814
  H     -0.233623   -1.697822    1.125256

 Total Charge           Charge          ....    0
 Multiplicity           Mult            ....    1
 Number of Electrons    NEL             ....   70
 Basis Dimension        Dim             ....  363

ORBITAL ENERGIES
----------------

  NO   OCC          E(Eh)            E(eV)
   0   2.0000     -18.934060      -515.2220
   1   2.0000     -10.114136      -275.2196
   2   2.0000     -10.043453      -273.2963
   3   2.0000     -10.040763      -273.2230
   4   2.0000     -10.036323      -273.1022
   5   2.0000     -10.033807      -273.0338
   6   2.0000     -10.029651      -272.9207
   7   2.0000     -10.028947      -272.9015
   8   2.0000     -10.027449      -272.8608
   9   2.0000      -0.991390       -26.9771
  10   2.0000      -0.807917       -21.9845
  11   2.0000      -0.739003       -20.1093
  12   2.0000      -0.713916       -19.4267
  13   2.0000      -0.699381       -19.0311
  14   2.0000      -0.597407       -16.2563
  15   2.0000      -0.581565       -15.8252
  16   2.0000      -0.530902       -14.4466
  17   2.0000      -0.497528       -13.5384
  18   2.0000      -0.449818       -12.2402
  19   2.0000      -0.433081       -11.7847
  20   2.0000      -0.422047       -11.4845
  21   2.0000      -0.417820       -11.3695
  22   2.0000      -0.404339       -11.0026
  23   2.0000      -0.395312       -10.7570
  24   2.0000      -0.380167       -10.3449
  25   2.0000      -0.354832        -9.6555
  26   2.0000      -0.354507        -9.6466
  27   2.0000      -0.346933        -9.4405
  28   2.0000      -0.322188        -8.7672
  29   2.0000      -0.317880        -8.6499
  30   2.0000      -0.312620        -8.5068
  31   2.0000      -0.294634        -8.0174
  32   2.0000      -0.286177        -7.7873
  33   2.0000      -0.275554        -7.4982
  34   2.0000      -0.209884        -5.7112
  35   0.0000      -0.046081        -1.2539
  36   0.0000       0.029954         0.8151
  37   0.0000       0.051507         1.4016
  38   0.0000       0.062090         1.6896
  39   0.0000       0.068127         1.8538

MULLIKEN ATOMIC CHARGES
-----------------------
   0 C :   -0.346999
   1 C :    0.225501
   2 O :   -0.344827
   3 C :    0.004659
   4 C :   -0.181433
   5 C :   -0.143844
   6 C :   -0.156779
   7 C :   -0.144876
   8 C :   -0.231442
   9 H :    0.115417
  10 H :    0.127833
  11 H :    0.133533
  12 H :    0.054537
  13 H :    0.100961
  14 H :    0.092113
  15 H :    0.091302
  16 H :    0.073175
  17 H :    0.078250
  18 H :    0.090028
  19 H :    0.092093
  20 H :    0.076155
  21 H :    0.105617
  22 H :    0.089026
Sum of atomic charges:    0.0000000

LOEWDIN ATOMIC CHARGES
----------------------
   0 C :   -0.262147
   1 C :   -0.326378
   2 O :    0.110172
   3 C :   -0.227706
   4 C :   -0.226393
   5 C :   -0.259870
   6 C :   -0.261294
   7 C :   -0.258931
   8 C :   -0.219951
   9 H :    0.131493
  10 H :    0.142670
  11 H :    0.131696
  12 H :    0.158196
  13 H :    0.145496
  14 H :    0.138436
  15 H :    0.133959
  16 H :    0.133423
  17 H :    0.136189
  18 H :    0.132959
  19 H :    0.134544
  20 H :    0.134811
  21 H :    0.144574
  22 H :    0.134054

  Mayer bond orders larger than 0.100000
B(  0-C ,  1-C ) :   0.9774 B(  0-C ,  9-H ) :   0.9501 B(  0-C , 10-H ) :   0.9437
B(  0-C , 11-H ) :   0.9762 B(  1-C ,  2-O ) :   2.0510 B(  1-C ,  3-C ) :   0.8799
B(  3-C ,  4-C ) :   0.9780 B(  3-C ,  8-C ) :   0.9518 B(  3-C , 12-H ) :   0.9376
B(  4-C ,  5-C ) :   0.9866 B(  4-C , 13-H ) :   0.9611 B(  4-C , 14-H ) :   0.9655
B(  5-C ,  6-C ) :   0.9953 B(  5-C , 15-H ) :   0.9653 B(  5-C , 16-H ) :   0.9612
B(  6-C ,  7-C ) :   0.9988 B(  6-C , 17-H ) :   0.9614 B(  6-C , 18-H ) :   0.9636
B(  7-C ,  8-C ) :   0.9876 B(  7-C , 19-H ) :   0.9641 B(  7-C , 20-H ) :   0.9624
B(  8-C , 21-H ) :   0.9639 B(  8-C , 22-H ) :   0.9538

Dispersion correction           -0.007254077
FINAL SINGLE POINT ENERGY      -388.437825479312

DIPOLE MOMENT
-------------

Method             : SCF
Type of density    : Electron Density
Multiplicity       :   1
Irrep              :   0
Energy             :  -388.4401574215519304 Eh
Relativity type    :
Basis              : AO
                                X                 Y                 Z
Electronic contribution:     -5.261125476       0.503333651      -3.243324307
Nuclear contribution   :      5.790384509      -0.543247681       4.290989451
                        -----------------------------------------
Total Dipole Moment    :      0.529259033      -0.039914030       1.047665144
                        -----------------------------------------
Magnitude (a.u.)       :      1.174440508
Magnitude (Debye)      :      2.985190535

VIBRATIONAL FREQUENCIES
-----------------------

Scaling factor for frequencies =  1.000000000  (already applied!)

     0:       0.00 cm**-1
     1:       0.00 cm**-1
     2:       0.00 cm**-1
     3:       0.00 cm**-1
     4:       0.00 cm**-1
     5:       0.00 cm**-1
     6:      73.91 cm**-1
     7:     119.79 cm**-1
     8:     157.92 cm**-1
     9:     189.25 cm**-1
    10:     245.48 cm**-1
    11:     279.93 cm**-1
    12:     313.16 cm**-1
    13:     377.86 cm**-1
    14:     443.53 cm**-1
    15:     456.89 cm**-1
    16:     518.95 cm**-1
    17:     599.83 cm**-1
    18:     615.51 cm**-1
    19:     785.41 cm**-1
    20:     801.03 cm**-1
    21:     842.78 cm**-1
    22:     881.32 cm**-1
    23:     894.58 cm**-1
    24:     901.07 cm**-1
    25:     927.06 cm**-1
    26:     974.13 cm**-1
    27:    1007.28 cm**-1
    28:    1035.87 cm**-1
    29:    1045.37 cm**-1
    30:    1065.78 cm**-1
    31:    1088.87 cm**-1
    32:    1092.92 cm**-1
    33:    1151.65 cm**-1
    34:    1185.10 cm**-1
    35:    1207.31 cm**-1
    36:    1267.44 cm**-1
    37:    1282.84 cm**-1
    38:    1289.99 cm**-1
    39:    1313.84 cm**-1
    40:    1330.53 cm**-1
    41:    1351.19 cm**-1
    42:    1357.95 cm**-1
    43:    1368.13 cm**-1
    44:    1372.70 cm**-1
    45:    1374.92 cm**-1
    46:    1392.60 cm**-1
    47:    1452.23 cm**-1
    48:    1466.90 cm**-1
    49:    1472.32 cm**-1
    50:    1474.60 cm**-1
    51:    1475.63 cm**-1
    52:    1482.83 cm**-1
    53:    1495.33 cm**-1
    54:    1688.51 cm**-1
    55:    2989.09 cm**-1
    56:    2992.20 cm**-1
    57:    2994.42 cm**-1
    58:    2995.19 cm**-1
    59:    3002.97 cm**-1
    60:    3005.23 cm**-1
    61:    3011.19 cm**-1
    62:    3045.20 cm**-1
    63:    3046.13 cm**-1
    64:    3051.54 cm**-1
    65:    3058.66 cm**-1
    66:    3065.00 cm**-1
    67:    3076.00 cm**-1
    68:    3130.14 cm**-1

IR SPECTRUM
-----------

 Mode   freq       eps      Int      T**2         TX        TY        TZ
       cm**-1   L/(mol*cm) km/mol    a.u.
----------------------------------------------------------------------------
  6:     73.91   0.000651    3.29  0.002750  (-0.009260  0.051607  0.000983)
  7:    119.79   0.000350    1.77  0.000912  (-0.029458  0.005613  0.003555)
  8:    157.92   0.000046    0.23  0.000092  (-0.003737 -0.008325  0.002886)
  9:    189.25   0.000352    1.78  0.000581  (-0.017272 -0.016617 -0.002472)
 10:    245.48   0.000054    0.27  0.000068  (-0.007213 -0.002876 -0.002859)
 11:    279.93   0.000364    1.84  0.000405  ( 0.019716 -0.000658  0.004017)
 12:    313.16   0.000179    0.90  0.000178  (-0.010186 -0.005418  0.006711)
 13:    377.86   0.000079    0.40  0.000065  ( 0.006267 -0.000469  0.005060)
 14:    443.53   0.000047    0.24  0.000033  (-0.005189  0.000839 -0.002342)
 15:    456.89   0.000405    2.05  0.000277  (-0.013110 -0.000367  0.010243)
 16:    518.95   0.000105    0.53  0.000063  (-0.005677  0.001309  0.005404)
 17:    599.83   0.000057    0.29  0.000030  (-0.003026 -0.004463  0.000859)
 18:    615.51   0.002424   12.25  0.001229  (-0.034314 -0.004373  0.005671)
 19:    785.41   0.000058    0.30  0.000023  ( 0.002985  0.001139  0.003608)
 20:    801.03   0.000001    0.01  0.000001  ( 0.000219 -0.000572 -0.000367)
 21:    842.78   0.000276    1.39  0.000102  ( 0.010087  0.000440 -0.000451)
 22:    881.32   0.000183    0.93  0.000065  (-0.005491  0.003969  0.004360)
 23:    894.58   0.001074    5.43  0.000375  ( 0.014993  0.010685 -0.005972)
 24:    901.07   0.000649    3.28  0.000225  (-0.008275  0.010011 -0.007500)
 25:    927.06   0.000435    2.20  0.000147  ( 0.010539 -0.005795  0.001390)
 26:    974.13   0.002623   13.26  0.000840  ( 0.027285 -0.005246 -0.008268)
 27:   1007.28   0.000277    1.40  0.000086  (-0.008497 -0.000455 -0.003661)
 28:   1035.87   0.000101    0.51  0.000031  (-0.002079 -0.000667  0.005073)
 29:   1045.37   0.001722    8.70  0.000514  ( 0.018849 -0.003899 -0.011985)
 30:   1065.78   0.000161    0.81  0.000047  (-0.004479  0.002304  0.004672)
 31:   1088.87   0.000076    0.39  0.000022  ( 0.003207 -0.003112 -0.001380)
 32:   1092.92   0.000225    1.13  0.000064  ( 0.007159 -0.002116 -0.002899)
 33:   1151.65   0.000482    2.44  0.000131  (-0.000400 -0.002609  0.011118)
 34:   1185.10   0.005979   30.21  0.001574  ( 0.038407 -0.002997 -0.009496)
 35:   1207.31   0.004000   20.21  0.001034  (-0.029569 -0.005667  0.011290)
 36:   1267.44   0.004569   23.09  0.001125  (-0.033230 -0.001829  0.004182)
 37:   1282.84   0.000107    0.54  0.000026  (-0.000066  0.005083  0.000345)
 38:   1289.99   0.000082    0.41  0.000020  (-0.001335  0.000692 -0.004193)
 39:   1313.84   0.002641   13.35  0.000627  ( 0.024574 -0.004605  0.001489)
 40:   1330.53   0.002217   11.20  0.000520  (-0.022181  0.001397 -0.005090)
 41:   1351.19   0.000240    1.21  0.000056  (-0.007025  0.000040  0.002482)
 42:   1357.95   0.000095    0.48  0.000022  ( 0.002788 -0.000957 -0.003628)
 43:   1368.13   0.002480   12.54  0.000566  (-0.012362  0.000406  0.020317)
 44:   1372.70   0.003615   18.27  0.000822  ( 0.016797 -0.000601 -0.023224)
 45:   1374.92   0.000770    3.89  0.000175  (-0.009095 -0.000919  0.009554)
 46:   1392.60   0.009471   47.86  0.002122  (-0.044497  0.002289  0.011708)
 47:   1452.23   0.003023   15.28  0.000650  ( 0.006596 -0.002071  0.024533)
 48:   1466.90   0.000862    4.35  0.000183  (-0.002257 -0.013348 -0.000253)
 49:   1472.32   0.000251    1.27  0.000053  ( 0.001965 -0.007019 -0.000242)
 50:   1474.60   0.001660    8.39  0.000351  (-0.014567 -0.008968  0.007665)
 51:   1475.63   0.001480    7.48  0.000313  ( 0.006428 -0.014864  0.007119)
 52:   1482.83   0.002972   15.02  0.000625  ( 0.009817  0.013039  0.018950)
 53:   1495.33   0.000457    2.31  0.000095  (-0.003448 -0.005071 -0.007602)
 54:   1688.51   0.029481  148.98  0.005449  ( 0.029336 -0.004852  0.067560)
 55:   2989.09   0.005028   25.41  0.000525  ( 0.020171  0.010828 -0.000890)
 56:   2992.20   0.005541   28.00  0.000578  (-0.008901  0.022122 -0.003052)
 57:   2994.42   0.000296    1.49  0.000031  ( 0.002883  0.000283 -0.004735)
 58:   2995.19   0.007302   36.90  0.000761  ( 0.001015 -0.005291 -0.027051)
 59:   3002.97   0.003383   17.10  0.000352  (-0.008390 -0.015221 -0.007034)
 60:   3005.23   0.001794    9.07  0.000186  (-0.000888  0.008333  0.010774)
 61:   3011.19   0.003571   18.05  0.000370  (-0.010992  0.006683 -0.014305)
 62:   3045.20   0.010628   53.71  0.001089  (-0.021412  0.024080 -0.007130)
 63:   3046.13   0.012410   62.72  0.001271  (-0.023398 -0.023162  0.013690)
 64:   3051.54   0.005039   25.47  0.000515  ( 0.011863  0.008651  0.017313)
 65:   3058.66   0.004457   22.53  0.000455  (-0.004202 -0.007222  0.019620)
 66:   3065.00   0.013943   70.46  0.001420  ( 0.009193 -0.019775 -0.030725)
 67:   3076.00   0.002166   10.94  0.000220  (-0.001535 -0.012352  0.008049)
 68:   3130.14   0.002329   11.77  0.000232  (-0.014222 -0.001091 -0.005365)

--------------------------
THERMOCHEMISTRY AT 298.15K
--------------------------

Temperature         ...   298.15 K
Pressure            ...     1.00 atm
Total Mass          ...   126.20 AMU
Quasi RRHO          ...     True
Cut-Off Frequency   ...     1.00 cm^-1

Throughout the following assumptions are being made:
  (1) The electronic state is orbitally nondegenerate
  (2) There are no thermally accessible electronically excited states
  (3) Hindered rotations indicated by low frequency modes are not
      treated as such but are treated as vibrations and this may
      cause some error
  (4) All equations used are the standard statistical mechanics
      equations for an ideal gas
  (5) All vibrations are strictly harmonic

freq.      73.91  E(vib)   ...       0.49
freq.     119.79  E(vib)   ...       0.44
freq.     157.92  E(vib)   ...       0.40
freq.     189.25  E(vib)   ...       0.36
freq.     245.48  E(vib)   ...       0.31
freq.     279.93  E(vib)   ...       0.28
freq.     313.16  E(vib)   ...       0.25
freq.     377.86  E(vib)   ...       0.21
freq.     443.53  E(vib)   ...       0.17
freq.     456.89  E(vib)   ...       0.16
freq.     518.95  E(vib)   ...       0.13
freq.     599.83  E(vib)   ...       0.10
freq.     615.51  E(vib)   ...       0.10
freq.     785.41  E(vib)   ...       0.05
freq.     801.03  E(vib)   ...       0.05
freq.     842.78  E(vib)   ...       0.04
freq.     881.32  E(vib)   ...       0.04
freq.     894.58  E(vib)   ...       0.03
freq.     901.07  E(vib)   ...       0.03
freq.     927.06  E(vib)   ...       0.03
freq.     974.13  E(vib)   ...       0.03
freq.    1007.28  E(vib)   ...       0.02
freq.    1035.87  E(vib)   ...       0.02
freq.    1045.37  E(vib)   ...       0.02
freq.    1065.78  E(vib)   ...       0.02
freq.    1088.87  E(vib)   ...       0.02
freq.    1092.92  E(vib)   ...       0.02
freq.    1151.65  E(vib)   ...       0.01
freq.    1185.10  E(vib)   ...       0.01
freq.    1207.31  E(vib)   ...       0.01
freq.    1267.44  E(vib)   ...       0.01
freq.    1282.84  E(vib)   ...       0.01
freq.    1289.99  E(vib)   ...       0.01
freq.    1313.84  E(vib)   ...       0.01
freq.    1330.53  E(vib)   ...       0.01
freq.    1351.19  E(vib)   ...       0.01
freq.    1357.95  E(vib)   ...       0.01
freq.    1368.13  E(vib)   ...       0.01
freq.    1372.70  E(vib)   ...       0.01
freq.    1374.92  E(vib)   ...       0.01
freq.    1392.60  E(vib)   ...       0.00
freq.    1452.23  E(vib)   ...       0.00
freq.    1466.90  E(vib)   ...       0.00
freq.    1472.32  E(vib)   ...       0.00
freq.    1474.60  E(vib)   ...       0.00
freq.    1475.63  E(vib)   ...       0.00
freq.    1482.83  E(vib)   ...       0.00
freq.    1495.33  E(vib)   ...       0.00
freq.    1688.51  E(vib)   ...       0.00
freq.    2989.09  E(vib)   ...       0.00
freq.    2992.20  E(vib)   ...       0.00
freq.    2994.42  E(vib)   ...       0.00
freq.    2995.19  E(vib)   ...       0.00
freq.    3002.97  E(vib)   ...       0.00
freq.    3005.23  E(vib)   ...       0.00
freq.    3011.19  E(vib)   ...       0.00
freq.    3045.20  E(vib)   ...       0.00
freq.    3046.13  E(vib)   ...       0.00
freq.    3051.54  E(vib)   ...       0.00
freq.    3058.66  E(vib)   ...       0.00
freq.    3065.00  E(vib)   ...       0.00
freq.    3076.00  E(vib)   ...       0.00
freq.    3130.14  E(vib)   ...       0.00

------------
INNER ENERGY
------------

The inner energy is: U= E(el) + E(ZPE) + E(vib) + E(rot) + E(trans)
    E(el)   - is the total energy from the electronic structure calculation
              = E(kin-el) + E(nuc-el) + E(el-el) + E(nuc-nuc)
    E(ZPE)  - the the zero temperature vibrational energy from the frequency calculation
    E(vib)  - the the finite temperature correction to E(ZPE) due to population
              of excited vibrational states
    E(rot)  - is the rotational thermal energy
    E(trans)- is the translational thermal energy

Summary of contributions to the inner energy U:
Electronic energy                ...   -388.43782548 Eh
Zero point energy                ...      0.20606706 Eh     129.31 kcal/mol
Thermal vibrational correction   ...      0.00628023 Eh       3.94 kcal/mol
Thermal rotational correction    ...      0.00141627 Eh       0.89 kcal/mol
Thermal translational correction ...      0.00141627 Eh       0.89 kcal/mol
-----------------------------------------------------------------------
Total thermal energy                   -388.22264565 Eh

Summary of corrections to the electronic energy:
(perhaps to be used in another calculation)
Total thermal correction                  0.00911277 Eh       5.72 kcal/mol
Non-thermal (ZPE) correction              0.20606706 Eh     129.31 kcal/mol
-----------------------------------------------------------------------
Total correction                          0.21517983 Eh     135.03 kcal/mol

--------
ENTHALPY
--------

The enthalpy is H = U + kB*T
                kB is Boltzmann's constant
Total thermal energy              ...   -388.22264565 Eh
Thermal Enthalpy correction       ...      0.00094421 Eh       0.59 kcal/mol
-----------------------------------------------------------------------
Total Enthalpy                    ...   -388.22170144 Eh

Note: Only C1 symmetry has been detected, increase convergence thresholds
      if your molecule has a higher symmetry. Symmetry factor of 1.0 is
      used for the rotational entropy correction.

Note: Rotational entropy computed according to Herzberg
Infrared and Raman Spectra, Chapter V,1, Van Nostrand Reinhold, 1945
Point Group:  C1, Symmetry Number:   1
Rotational constants in cm-1:     0.102903     0.035159     0.030305

Vibrational entropy computed according to the QRRHO of S. Grimme
Chem.Eur.J. 2012 18 9955 using a reference frequency of 100.0 cm-1

-------
ENTROPY
-------

The entropy contributions are T*S = T*(S(el)+S(vib)+S(rot)+S(trans))
     S(el)   - electronic entropy
     S(vib)  - vibrational entropy
     S(rot)  - rotational entropy
     S(trans)- translational entropy
The entropies will be listed as multiplied by the temperature to get
units of energy

Electronic entropy                ...      0.00000000 Eh      0.00 kcal/mol
Vibrational entropy               ...      0.01050263 Eh      6.59 kcal/mol
Rotational entropy                ...      0.01381546 Eh      8.67 kcal/mol
Translational entropy             ...      0.01920079 Eh     12.05 kcal/mol
-----------------------------------------------------------------------
Final entropy term                ...      0.04351888 Eh     27.31 kcal/mol

In case the symmetry of your molecule has not been determined correctly
or in case you have a reason to use a different symmetry number we print

                             ****ORCA TERMINATED NORMALLY****
TOTAL RUN TIME: 0 days 0 hours 24 minutes 57 seconds 752 msec
