                         Program Version 6.0.0  -   RELEASE  -
|  1> ! r2SCAN-3c DEF2-TZVP FREQ
|  2> * xyzfile 0 1 vacuum_censo.xyz
|  3>
|  4>                          ****END OF INPUT****

CARTESIAN COORDINATES (ANGSTROEM)
---------------------------------
  C     -2.681688    0.977382   -0.444706
  C     -1.776393   -0.163371   -0.022137
  O     -2.214274   -1.108863    0.601658
  C     -0.303339   -0.047303   -0.385244
  C      0.489156   -1.290359    0.014436
  C      1.966405   -1.150218   -0.356393
  C      2.578096    0.100834    0.276996
  C      1.793210    1.352762   -0.117744
  C      0.311066    1.222135    0.242226
  H     -3.702889    0.609193   -0.554600
  H     -2.680081    1.736746    0.346302
  H     -2.343459    1.459582   -1.366037
  H     -0.259371    0.077305   -1.480542
  H      0.387734   -1.436091    1.097036
  H      0.048916   -2.176203   -0.454364
  H      2.517044   -2.044102   -0.042089
  H      2.065491   -1.086910   -1.449443
  H      2.562899   -0.004504    1.370726
  H      3.628644    0.205398   -0.017377
  H      2.214828    2.239761    0.369218
  H      1.885733    1.510582   -1.201453
  H      0.202986    1.157775    1.334302
  H     -0.232921    2.115628   -0.083746

 Total Charge           Charge          ....    0
 Multiplicity           Mult            ....    1
 Number of Electrons    NEL             ....   70
 Basis Dimension        Dim             ....  363

ORBITAL ENERGIES
----------------

  NO   OCC          E(Eh)            E(eV)
   0   2.0000     -18.935669      -515.2658
   1   2.0000     -10.116653      -275.2881
   2   2.0000     -10.044312      -273.3196
   3   2.0000     -10.040880      -273.2262
   4   2.0000     -10.036804      -273.1153
   5   2.0000     -10.033756      -273.0324
   6   2.0000     -10.028849      -272.8989
   7   2.0000     -10.027677      -272.8670
   8   2.0000     -10.024381      -272.7773
   9   2.0000      -1.000968       -27.2377
  10   2.0000      -0.807019       -21.9601
  11   2.0000      -0.736738       -20.0477
  12   2.0000      -0.713200       -19.4071
  13   2.0000      -0.696356       -18.9488
  14   2.0000      -0.597718       -16.2647
  15   2.0000      -0.580609       -15.7992
  16   2.0000      -0.530853       -14.4452
  17   2.0000      -0.497084       -13.5263
  18   2.0000      -0.452654       -12.3173
  19   2.0000      -0.433439       -11.7945
  20   2.0000      -0.419662       -11.4196
  21   2.0000      -0.415078       -11.2949
  22   2.0000      -0.401695       -10.9307
  23   2.0000      -0.395357       -10.7582
  24   2.0000      -0.385668       -10.4946
  25   2.0000      -0.356811        -9.7093
  26   2.0000      -0.352528        -9.5928
  27   2.0000      -0.341965        -9.3053
  28   2.0000      -0.329675        -8.9709
  29   2.0000      -0.315805        -8.5935
  30   2.0000      -0.314101        -8.5471
  31   2.0000      -0.293874        -7.9967
  32   2.0000      -0.285612        -7.7719
  33   2.0000      -0.275413        -7.4944
  34   2.0000      -0.211490        -5.7549
  35   0.0000      -0.045160        -1.2289
  36   0.0000       0.031269         0.8509
  37   0.0000       0.051055         1.3893
  38   0.0000       0.057484         1.5642
  39   0.0000       0.071534         1.9465

MULLIKEN ATOMIC CHARGES
-----------------------
   0 C :   -0.351230
   1 C :    0.204110
   2 O :   -0.320488
   3 C :   -0.017160
   4 C :   -0.177020
   5 C :   -0.140431
   6 C :   -0.157115
   7 C :   -0.146049
   8 C :   -0.230119
   9 H :    0.135956
  10 H :    0.131838
  11 H :    0.117258
  12 H :    0.064896
  13 H :    0.092186
  14 H :    0.099067
  15 H :    0.091488
  16 H :    0.073301
  17 H :    0.076614
  18 H :    0.090403
  19 H :    0.092172
  20 H :    0.075604
  21 H :    0.097102
  22 H :    0.097617
Sum of atomic charges:    0.0000000

LOEWDIN ATOMIC CHARGES
----------------------
   0 C :   -0.267171
   1 C :   -0.328664
   2 O :    0.130136
   3 C :   -0.229226
   4 C :   -0.229582
   5 C :   -0.259617
   6 C :   -0.261986
   7 C :   -0.258733
   8 C :   -0.226112
   9 H :    0.133211
  10 H :    0.140677
  11 H :    0.126804
  12 H :    0.163206
  13 H :    0.143707
  14 H :    0.140873
  15 H :    0.133724
  16 H :    0.133734
  17 H :    0.135470
  18 H :    0.132637
  19 H :    0.133898
  20 H :    0.135154
  21 H :    0.141815
  22 H :    0.136042

  Mayer bond orders larger than 0.100000
B(  0-C ,  1-C ) :   0.9660 B(  0-C ,  9-H ) :   0.9677 B(  0-C , 10-H ) :   0.9410
B(  0-C , 11-H ) :   0.9671 B(  1-C ,  2-O ) :   2.0681 B(  1-C ,  3-C ) :   0.9074
B(  3-C ,  4-C ) :   1.0036 B(  3-C ,  8-C ) :   0.9353 B(  3-C , 12-H ) :   0.9247
B(  4-C ,  5-C ) :   0.9776 B(  4-C , 13-H ) :   0.9619 B(  4-C , 14-H ) :   0.9624
B(  5-C ,  6-C ) :   0.9916 B(  5-C , 15-H ) :   0.9675 B(  5-C , 16-H ) :   0.9620
B(  6-C ,  7-C ) :   0.9985 B(  6-C , 17-H ) :   0.9625 B(  6-C , 18-H ) :   0.9635
B(  7-C ,  8-C ) :   0.9891 B(  7-C , 19-H ) :   0.9641 B(  7-C , 20-H ) :   0.9627
B(  8-C , 21-H ) :   0.9591 B(  8-C , 22-H ) :   0.9598

Dispersion correction           -0.007256272
FINAL SINGLE POINT ENERGY      -388.438285824290

DIPOLE MOMENT
-------------

Method             : SCF
Type of density    : Electron Density
Multiplicity       :   1
Irrep              :   0
Energy             :  -388.4406403630036380 Eh
Relativity type    :
Basis              : AO
                                X                 Y                 Z
Electronic contribution:     -5.397302442      -3.337668981       1.271996614
Nuclear contribution   :      5.929438086       4.214266913      -1.778520317
                        -----------------------------------------
Total Dipole Moment    :      0.532135644       0.876597932      -0.506523703
                        -----------------------------------------
Magnitude (a.u.)       :      1.143747586
Magnitude (Debye)      :      2.907175326

VIBRATIONAL FREQUENCIES
-----------------------

Scaling factor for frequencies =  1.000000000  (already applied!)

     0:       0.00 cm**-1
     1:       0.00 cm**-1
     2:       0.00 cm**-1
     3:       0.00 cm**-1
     4:       0.00 cm**-1
     5:       0.00 cm**-1
     6:      62.84 cm**-1
     7:     117.70 cm**-1
     8:     154.86 cm**-1
     9:     195.64 cm**-1
    10:     242.90 cm**-1
    11:     291.34 cm**-1
    12:     321.54 cm**-1
    13:     387.57 cm**-1
    14:     443.08 cm**-1
    15:     448.60 cm**-1
    16:     512.84 cm**-1
    17:     557.65 cm**-1
    18:     619.95 cm**-1
    19:     773.81 cm**-1
    20:     798.43 cm**-1
    21:     837.76 cm**-1
    22:     866.05 cm**-1
    23:     894.59 cm**-1
    24:     899.68 cm**-1
    25:     921.07 cm**-1
    26:     971.53 cm**-1
    27:     986.14 cm**-1
    28:    1040.06 cm**-1
    29:    1047.65 cm**-1
    30:    1066.27 cm**-1
    31:    1091.98 cm**-1
    32:    1099.01 cm**-1
    33:    1146.75 cm**-1
    34:    1176.70 cm**-1
    35:    1209.97 cm**-1
    36:    1257.03 cm**-1
    37:    1281.86 cm**-1
    38:    1292.50 cm**-1
    39:    1309.26 cm**-1
    40:    1327.26 cm**-1
    41:    1350.35 cm**-1
    42:    1358.59 cm**-1
    43:    1365.06 cm**-1
    44:    1369.05 cm**-1
    45:    1373.39 cm**-1
    46:    1385.79 cm**-1
    47:    1456.61 cm**-1
    48:    1466.42 cm**-1
    49:    1472.35 cm**-1
    50:    1475.54 cm**-1
    51:    1476.32 cm**-1
    52:    1483.82 cm**-1
    53:    1495.49 cm**-1
    54:    1753.30 cm**-1
    55:    2960.64 cm**-1
    56:    2987.36 cm**-1
    57:    2988.42 cm**-1
    58:    2993.82 cm**-1
    59:    2995.76 cm**-1
    60:    3014.71 cm**-1
    61:    3017.68 cm**-1
    62:    3045.75 cm**-1
    63:    3047.47 cm**-1
    64:    3051.70 cm**-1
    65:    3056.52 cm**-1
    66:    3070.13 cm**-1
    67:    3088.64 cm**-1
    68:    3131.01 cm**-1

IR SPECTRUM
-----------

 Mode   freq       eps      Int      T**2         TX        TY        TZ
       cm**-1   L/(mol*cm) km/mol    a.u.
----------------------------------------------------------------------------
  6:     62.84   0.000617    3.12  0.003066  ( 0.008881  0.026713  0.047677)
  7:    117.70   0.000168    0.85  0.000445  ( 0.018268  0.001233  0.010500)
  8:    154.86   0.000025    0.12  0.000050  ( 0.003688  0.005962 -0.000832)
  9:    195.64   0.000627    3.17  0.001001  (-0.030135  0.005628  0.007814)
 10:    242.90   0.000029    0.15  0.000038  ( 0.005559 -0.000234 -0.002570)
 11:    291.34   0.000269    1.36  0.000288  (-0.016724 -0.002653 -0.001243)
 12:    321.54   0.000176    0.89  0.000170  (-0.008804  0.009639 -0.000233)
 13:    387.57   0.000090    0.45  0.000072  (-0.005634 -0.006214  0.001378)
 14:    443.08   0.000062    0.31  0.000044  ( 0.003990  0.004743 -0.002273)
 15:    448.60   0.000315    1.59  0.000219  ( 0.010683 -0.009234  0.004445)
 16:    512.84   0.000207    1.04  0.000126  ( 0.009490 -0.002165  0.005563)
 17:    557.65   0.001127    5.69  0.000630  (-0.024377  0.003043  0.005196)
 18:    619.95   0.001319    6.66  0.000664  (-0.024704  0.006934 -0.002340)
 19:    773.81   0.000047    0.24  0.000019  (-0.001597  0.003710  0.001665)
 20:    798.43   0.000010    0.05  0.000004  (-0.000646 -0.001786 -0.000671)
 21:    837.76   0.000301    1.52  0.000112  (-0.009171  0.005301 -0.000261)
 22:    866.05   0.000510    2.58  0.000184  ( 0.009959  0.009103  0.001271)
 23:    894.59   0.000627    3.17  0.000219  (-0.003279  0.014424 -0.000205)
 24:    899.68   0.001384    6.99  0.000480  (-0.015416  0.015281  0.002973)
 25:    921.07   0.000917    4.63  0.000311  ( 0.017068  0.003994  0.001811)
 26:    971.53   0.002255   11.39  0.000724  ( 0.026372 -0.005200  0.001300)
 27:    986.14   0.000421    2.13  0.000133  ( 0.010705 -0.004304  0.000454)
 28:   1040.06   0.000053    0.27  0.000016  ( 0.003856  0.000951 -0.000255)
 29:   1047.65   0.001353    6.84  0.000403  (-0.015313  0.004011 -0.012348)
 30:   1066.27   0.000018    0.09  0.000005  (-0.001345  0.001787 -0.000503)
 31:   1091.98   0.000098    0.50  0.000028  (-0.004923  0.001170 -0.001554)
 32:   1099.01   0.000096    0.49  0.000027  ( 0.005058 -0.000557  0.001203)
 33:   1146.75   0.002447   12.37  0.000666  ( 0.020558 -0.015432  0.002266)
 34:   1176.70   0.009154   46.26  0.002428  ( 0.047343 -0.013646  0.000398)
 35:   1209.97   0.002219   11.21  0.000572  (-0.020714  0.011966 -0.000136)
 36:   1257.03   0.004419   22.33  0.001097  (-0.032424  0.006763  0.000072)
 37:   1281.86   0.000044    0.22  0.000011  ( 0.000436  0.002835  0.001596)
 38:   1292.50   0.000239    1.21  0.000058  ( 0.006512  0.001949 -0.003391)
 39:   1309.26   0.002562   12.95  0.000611  ( 0.024092  0.005474  0.000485)
 40:   1327.26   0.001302    6.58  0.000306  (-0.017411  0.001719 -0.000236)
 41:   1350.35   0.000210    1.06  0.000048  ( 0.004231 -0.004813  0.002723)
 42:   1358.59   0.000397    2.00  0.000091  (-0.006159  0.007200 -0.001154)
 43:   1365.06   0.006631   33.51  0.001516  (-0.028155  0.026693 -0.003254)
 44:   1369.05   0.000775    3.92  0.000177  ( 0.009989 -0.008762 -0.000446)
 45:   1373.39   0.000088    0.44  0.000020  (-0.002700 -0.000433  0.003535)
 46:   1385.79   0.001954    9.87  0.000440  (-0.020616  0.003656  0.001250)
 47:   1456.61   0.002278   11.51  0.000488  (-0.013070 -0.014213  0.010732)
 48:   1466.42   0.001809    9.14  0.000385  ( 0.003100  0.009178  0.017065)
 49:   1472.35   0.000758    3.83  0.000161  (-0.007433 -0.001759  0.010112)
 50:   1475.54   0.000969    4.90  0.000205  ( 0.008819  0.011089  0.002038)
 51:   1476.32   0.001730    8.74  0.000366  ( 0.008895 -0.008050  0.014889)
 52:   1483.82   0.001902    9.61  0.000400  (-0.009869 -0.000290  0.017396)
 53:   1495.49   0.000101    0.51  0.000021  ( 0.001151  0.000896 -0.004342)
 54:   1753.30   0.033425  168.91  0.005949  ( 0.033326  0.060872 -0.033661)
 55:   2960.64   0.002467   12.46  0.000260  (-0.008237  0.003985 -0.013276)
 56:   2987.36   0.005396   27.27  0.000564  ( 0.016576 -0.011805 -0.012228)
 57:   2988.42   0.004571   23.10  0.000477  ( 0.006171  0.020667  0.003480)
 58:   2993.82   0.001865    9.42  0.000194  ( 0.013315 -0.000017  0.004132)
 59:   2995.76   0.009131   46.14  0.000951  (-0.002645 -0.001555  0.030688)
 60:   3014.71   0.000312    1.58  0.000032  ( 0.001626 -0.005298  0.001266)
 61:   3017.68   0.002670   13.49  0.000276  ( 0.009879  0.006900 -0.011440)
 62:   3045.75   0.011312   57.16  0.001159  ( 0.017958  0.027930  0.007509)
 63:   3047.47   0.012871   65.04  0.001318  ( 0.029329 -0.021380  0.000827)
 64:   3051.70   0.004550   22.99  0.000465  (-0.008431 -0.000445  0.019849)
 65:   3056.52   0.012016   60.72  0.001227  ( 0.005267 -0.019778  0.028423)
 66:   3070.13   0.007337   37.08  0.000746  (-0.006221 -0.011606 -0.023923)
 67:   3088.64   0.001898    9.59  0.000192  ( 0.002273 -0.002311  0.013465)
 68:   3131.01   0.002152   10.87  0.000214  (-0.012738 -0.005882  0.004195)

--------------------------
THERMOCHEMISTRY AT 298.15K
--------------------------

Temperature         ...   298.15 K
Pressure            ...     1.00 atm
Total Mass          ...   126.20 AMU
Quasi RRHO          ...     True
Cut-Off Frequency   ...     1.00 cm^-1

Throughout the following assumptions are being made:
  (1) The electronic state is orbitally nondegenerate
  (2) There are no thermally accessible electronically excited states
  (3) Hindered rotations indicated by low frequency modes are not
      treated as such but are treated as vibrations and this may
      cause some error
  (4) All equations used are the standard statistical mechanics
      equations for an ideal gas
  (5) All vibrations are strictly harmonic

freq.      62.84  E(vib)   ...       0.51
freq.     117.70  E(vib)   ...       0.44
freq.     154.86  E(vib)   ...       0.40
freq.     195.64  E(vib)   ...       0.36
freq.     242.90  E(vib)   ...       0.31
freq.     291.34  E(vib)   ...       0.27
freq.     321.54  E(vib)   ...       0.25
freq.     387.57  E(vib)   ...       0.20
freq.     443.08  E(vib)   ...       0.17
freq.     448.60  E(vib)   ...       0.17
freq.     512.84  E(vib)   ...       0.13
freq.     557.65  E(vib)   ...       0.12
freq.     619.95  E(vib)   ...       0.09
freq.     773.81  E(vib)   ...       0.05
freq.     798.43  E(vib)   ...       0.05
freq.     837.76  E(vib)   ...       0.04
freq.     866.05  E(vib)   ...       0.04
freq.     894.59  E(vib)   ...       0.03
freq.     899.68  E(vib)   ...       0.03
freq.     921.07  E(vib)   ...       0.03
freq.     971.53  E(vib)   ...       0.03
freq.     986.14  E(vib)   ...       0.02
freq.    1040.06  E(vib)   ...       0.02
freq.    1047.65  E(vib)   ...       0.02
freq.    1066.27  E(vib)   ...       0.02
freq.    1091.98  E(vib)   ...       0.02
freq.    1099.01  E(vib)   ...       0.02
freq.    1146.75  E(vib)   ...       0.01
freq.    1176.70  E(vib)   ...       0.01
freq.    1209.97  E(vib)   ...       0.01
freq.    1257.03  E(vib)   ...       0.01
freq.    1281.86  E(vib)   ...       0.01
freq.    1292.50  E(vib)   ...       0.01
freq.    1309.26  E(vib)   ...       0.01
freq.    1327.26  E(vib)   ...       0.01
freq.    1350.35  E(vib)   ...       0.01
freq.    1358.59  E(vib)   ...       0.01
freq.    1365.06  E(vib)   ...       0.01
freq.    1369.05  E(vib)   ...       0.01
freq.    1373.39  E(vib)   ...       0.01
freq.    1385.79  E(vib)   ...       0.00
freq.    1456.61  E(vib)   ...       0.00
freq.    1466.42  E(vib)   ...       0.00
freq.    1472.35  E(vib)   ...       0.00
freq.    1475.54  E(vib)   ...       0.00
freq.    1476.32  E(vib)   ...       0.00
freq.    1483.82  E(vib)   ...       0.00
freq.    1495.49  E(vib)   ...       0.00
freq.    1753.30  E(vib)   ...       0.00
freq.    2960.64  E(vib)   ...       0.00
freq.    2987.36  E(vib)   ...       0.00
freq.    2988.42  E(vib)   ...       0.00
freq.    2993.82  E(vib)   ...       0.00
freq.    2995.76  E(vib)   ...       0.00
freq.    3014.71  E(vib)   ...       0.00
freq.    3017.68  E(vib)   ...       0.00
freq.    3045.75  E(vib)   ...       0.00
freq.    3047.47  E(vib)   ...       0.00
freq.    3051.70  E(vib)   ...       0.00
freq.    3056.52  E(vib)   ...       0.00
freq.    3070.13  E(vib)   ...       0.00
freq.    3088.64  E(vib)   ...       0.00
freq.    3131.01  E(vib)   ...       0.00

------------
INNER ENERGY
------------

The inner energy is: U= E(el) + E(ZPE) + E(vib) + E(rot) + E(trans)
    E(el)   - is the total energy from the electronic structure calculation
              = E(kin-el) + E(nuc-el) + E(el-el) + E(nuc-nuc)
    E(ZPE)  - the the zero temperature vibrational energy from the frequency calculation
    E(vib)  - the the finite temperature correction to E(ZPE) due to population
              of excited vibrational states
    E(rot)  - is the rotational thermal energy
    E(trans)- is the translational thermal energy

Summary of contributions to the inner energy U:
Electronic energy                ...   -388.43828582 Eh
Zero point energy                ...      0.20590889 Eh     129.21 kcal/mol
Thermal vibrational correction   ...      0.00631834 Eh       3.96 kcal/mol
Thermal rotational correction    ...      0.00141627 Eh       0.89 kcal/mol
Thermal translational correction ...      0.00141627 Eh       0.89 kcal/mol
-----------------------------------------------------------------------
Total thermal energy                   -388.22322605 Eh

Summary of corrections to the electronic energy:
(perhaps to be used in another calculation)
Total thermal correction                  0.00915088 Eh       5.74 kcal/mol
Non-thermal (ZPE) correction              0.20590889 Eh     129.21 kcal/mol
-----------------------------------------------------------------------
Total correction                          0.21505978 Eh     134.95 kcal/mol

--------
ENTHALPY
--------

The enthalpy is H = U + kB*T
                kB is Boltzmann's constant
Total thermal energy              ...   -388.22322605 Eh
Thermal Enthalpy correction       ...      0.00094421 Eh       0.59 kcal/mol
-----------------------------------------------------------------------
Total Enthalpy                    ...   -388.22228184 Eh

Note: Only C1 symmetry has been detected, increase convergence thresholds
      if your molecule has a higher symmetry. Symmetry factor of 1.0 is
      used for the rotational entropy correction.

Note: Rotational entropy computed according to Herzberg
Infrared and Raman Spectra, Chapter V,1, Van Nostrand Reinhold, 1945
Point Group:  C1, Symmetry Number:   1
Rotational constants in cm-1:     0.102143     0.036281     0.029162

Vibrational entropy computed according to the QRRHO of S. Grimme
Chem.Eur.J. 2012 18 9955 using a reference frequency of 100.0 cm-1

-------
ENTROPY
-------

The entropy contributions are T*S = T*(S(el)+S(vib)+S(rot)+S(trans))
     S(el)   - electronic entropy
     S(vib)  - vibrational entropy
     S(rot)  - rotational entropy
     S(trans)- translational entropy
The entropies will be listed as multiplied by the temperature to get
units of energy

Electronic entropy                ...      0.00000000 Eh      0.00 kcal/mol
Vibrational entropy               ...      0.01055537 Eh      6.62 kcal/mol
Rotational entropy                ...      0.01382228 Eh      8.67 kcal/mol
Translational entropy             ...      0.01920079 Eh     12.05 kcal/mol
-----------------------------------------------------------------------
Final entropy term                ...      0.04357845 Eh     27.35 kcal/mol

In case the symmetry of your molecule has not been determined correctly
or in case you have a reason to use a different symmetry number we print

                             ****ORCA TERMINATED NORMALLY****
TOTAL RUN TIME: 0 days 0 hours 25 minutes 4 seconds 423 msec
