                         Program Version 6.0.1  -  RELEASE   -
|  1> ! pbe def2-sv(p) def2/J RI DEFGRID1 loosescf d4 GCP(DFT/SV(P)) printgap
|  2> %output
|  3>     printlevel normal
|  4> end
|  5> * xyz 0 1
|  6> C -2.1330100096 -0.8872460373 -0.2874127805
|  7> C -1.169847562 -0.3386250801 0.7862372063
|  8> H -1.7287984194 -0.3614106973 1.7311608399
|  9> C -0.755986876 1.1351173645 0.5681396824
| 10> H -1.6266470232 1.6856069895 0.1874782372
| 11> C 0.4175686842 1.2937139645 -0.4205362487
| 12> H 0.8571911343 2.2848354469 -0.2418724566
| 13> C 1.5299570802 0.2798855513 -0.1107618628
| 14> H 2.2019515346 0.2289825959 -0.9799334709
| 15> C 1.0280430633 -1.1617598403 0.1696715933
| 16> H 1.8231300309 -1.6785024378 0.7323386222
| 17> O -0.0603451718 -1.1812705371 1.0546880594
| 18> O 0.8533390573 -1.8992722969 -0.9846661752
| 19> O 2.1949694362 0.7978132349 1.0242052046
| 20> O 0.0113279147 1.1779079134 -1.7711130487
| 21> O -0.4301158401 1.7435979612 1.7882449893
| 22> O -1.6191618161 -0.9897114822 -1.5915462138
| 23> H -3.0316854432 -0.2543138969 -0.280603234
| 24> H -2.418461798 -1.9031013394 -0.0031266484
| 25> H -0.032706908 -1.718255517 -1.3666947123
| 26> H 2.9072687314 0.1989924334 1.2751369853
| 27> H -0.3446337591 2.0218579707 -2.0681107274
| 28> H 0.4215062181 1.3865528252 2.0810523198
| 29> H -1.1993850659 -0.1468354745 -1.8497436579
| 30> *
| 31>
| 32>                          ****END OF INPUT****

CARTESIAN COORDINATES (ANGSTROEM)
---------------------------------
  C     -2.133010   -0.887246   -0.287413
  C     -1.169848   -0.338625    0.786237
  H     -1.728798   -0.361411    1.731161
  C     -0.755987    1.135117    0.568140
  H     -1.626647    1.685607    0.187478
  C      0.417569    1.293714   -0.420536
  H      0.857191    2.284835   -0.241872
  C      1.529957    0.279886   -0.110762
  H      2.201952    0.228983   -0.979933
  C      1.028043   -1.161760    0.169672
  H      1.823130   -1.678502    0.732339
  O     -0.060345   -1.181271    1.054688
  O      0.853339   -1.899272   -0.984666
  O      2.194969    0.797813    1.024205
  O      0.011328    1.177908   -1.771113
  O     -0.430116    1.743598    1.788245
  O     -1.619162   -0.989711   -1.591546
  H     -3.031685   -0.254314   -0.280603
  H     -2.418462   -1.903101   -0.003127
  H     -0.032707   -1.718256   -1.366695
  H      2.907269    0.198992    1.275137
  H     -0.344634    2.021858   -2.068111
  H      0.421506    1.386553    2.081052
  H     -1.199385   -0.146835   -1.849744

 Total Charge           Charge          ....    0
 Multiplicity           Mult            ....    1
 Number of Electrons    NEL             ....   96
 Basis Dimension        Dim             ....  192

ORBITAL ENERGIES
----------------

  NO   OCC          E(Eh)            E(eV)
   0   2.0000     -18.799987      -511.5736
   1   2.0000     -18.776670      -510.9392
   2   2.0000     -18.765442      -510.6336
   3   2.0000     -18.762393      -510.5507
   4   2.0000     -18.746184      -510.1096
   5   2.0000     -18.731148      -509.7004
   6   2.0000      -9.982113      -271.6271
   7   2.0000      -9.963449      -271.1192
   8   2.0000      -9.952231      -270.8140
   9   2.0000      -9.950842      -270.7762
  10   2.0000      -9.946900      -270.6689
  11   2.0000      -9.940123      -270.4845
  12   2.0000      -0.983160       -26.7532
  13   2.0000      -0.967088       -26.3158
  14   2.0000      -0.949243       -25.8302
  15   2.0000      -0.933694       -25.4071
  16   2.0000      -0.928745       -25.2724
  17   2.0000      -0.896213       -24.3872
  18   2.0000      -0.711070       -19.3492
  19   2.0000      -0.694917       -18.9096
  20   2.0000      -0.624363       -16.9898
  21   2.0000      -0.602777       -16.4024
  22   2.0000      -0.578361       -15.7380
  23   2.0000      -0.539007       -14.6671
  24   2.0000      -0.499012       -13.5788
  25   2.0000      -0.497339       -13.5333
  26   2.0000      -0.485032       -13.1984
  27   2.0000      -0.455070       -12.3831
  28   2.0000      -0.444410       -12.0930
  29   2.0000      -0.435934       -11.8624
  30   2.0000      -0.431447       -11.7403
  31   2.0000      -0.423719       -11.5300
  32   2.0000      -0.396919       -10.8007
  33   2.0000      -0.386241       -10.5102
  34   2.0000      -0.369303       -10.0492
  35   2.0000      -0.346991        -9.4421
  36   2.0000      -0.330841        -9.0027
  37   2.0000      -0.329519        -8.9667
  38   2.0000      -0.312329        -8.4989
  39   2.0000      -0.306030        -8.3275
  40   2.0000      -0.294682        -8.0187
  41   2.0000      -0.278174        -7.5695
  42   2.0000      -0.265107        -7.2139
  43   2.0000      -0.253397        -6.8953
  44   2.0000      -0.246982        -6.7207
  45   2.0000      -0.226948        -6.1756
  46   2.0000      -0.207792        -5.6543
  47   2.0000      -0.204458        -5.5636
  48   0.0000      -0.011748        -0.3197
  49   0.0000       0.012797         0.3482
  50   0.0000       0.041944         1.1414
  51   0.0000       0.052744         1.4352
  52   0.0000       0.072581         1.9750

MULLIKEN ATOMIC CHARGES
-----------------------
   0 C :    0.033651
   1 C :    0.023048
   2 H :    0.083888
   3 C :    0.057464
   4 H :    0.055965
   5 C :    0.002590
   6 H :    0.094036
   7 C :    0.034810
   8 H :    0.084344
   9 C :    0.189358
  10 H :    0.046087
  11 O :   -0.302508
  12 O :   -0.405968
  13 O :   -0.424789
  14 O :   -0.411879
  15 O :   -0.421175
  16 O :   -0.446122
  17 H :    0.081279
  18 H :    0.101461
  19 H :    0.287137
  20 H :    0.310802
  21 H :    0.325482
  22 H :    0.303261
  23 H :    0.297778
Sum of atomic charges:   -0.0000000

LOEWDIN ATOMIC CHARGES
----------------------
   0 C :   -0.136935
   1 C :   -0.082342
   2 H :    0.128941
   3 C :   -0.077059
   4 H :    0.109414
   5 C :   -0.075716
   6 H :    0.119062
   7 C :   -0.086317
   8 H :    0.113713
   9 C :   -0.013491
  10 H :    0.097889
  11 O :   -0.139766
  12 O :   -0.327300
  13 O :   -0.311274
  14 O :   -0.297904
  15 O :   -0.315489
  16 O :   -0.332999
  17 H :    0.105595
  18 H :    0.121237
  19 H :    0.267281
  20 H :    0.291430
  21 H :    0.302042
  22 H :    0.275499
  23 H :    0.264489

  Mayer bond orders larger than 0.100000
B(  0-C ,  1-C ) :   1.0268 B(  0-C , 16-O ) :   1.0451 B(  0-C , 17-H ) :   0.9125
B(  0-C , 18-H ) :   0.9163 B(  1-C ,  2-H ) :   0.8800 B(  1-C ,  3-C ) :   0.9777
B(  1-C , 11-O ) :   1.0134 B(  3-C ,  4-H ) :   0.8951 B(  3-C ,  5-C ) :   0.9774
B(  3-C , 15-O ) :   1.0646 B(  5-C ,  6-H ) :   0.8973 B(  5-C ,  7-C ) :   0.9969
B(  5-C , 14-O ) :   1.0089 B(  7-C ,  8-H ) :   0.8897 B(  7-C ,  9-C ) :   0.9510
B(  7-C , 13-O ) :   1.0085 B(  9-C , 10-H ) :   0.9035 B(  9-C , 11-O ) :   1.0458
B(  9-C , 12-O ) :   1.1759 B( 12-O , 19-H ) :   0.7596 B( 13-O , 20-H ) :   0.8400
B( 14-O , 21-H ) :   0.8364 B( 14-O , 23-H ) :   0.1535 B( 15-O , 22-H ) :   0.8179
B( 16-O , 19-H ) :   0.1757 B( 16-O , 23-H ) :   0.7624

Dispersion correction           -0.026574675
FINAL SINGLE POINT ENERGY      -685.703076177211

DIPOLE MOMENT
-------------

Method             : SCF
Type of density    : Electron Density
Multiplicity       :   1
Irrep              :   0
Energy             :  -685.8391386171718977 Eh
Relativity type    :
Basis              : AO
                                X                 Y                 Z
Electronic contribution:      2.149773373      -0.584838913       0.565919814
Nuclear contribution   :     -2.022947384       1.631353376      -0.741623910
                        -----------------------------------------
Total Dipole Moment    :      0.126825989       1.046514462      -0.175704096
                        -----------------------------------------
Magnitude (a.u.)       :      1.068713844
Magnitude (Debye)      :      2.716454712

Rotational constants in cm-1:             0.039352             0.031432             0.027747
Rotational constants in MHz :          1179.752582           942.303390           831.847696

                             ****ORCA TERMINATED NORMALLY****
TOTAL RUN TIME: 0 days 0 hours 0 minutes 9 seconds 926 msec
