                         Program Version 6.0.1  -  RELEASE   -
|  1> ! pbe def2-sv(p) def2/J RI DEFGRID1 loosescf d4 GCP(DFT/SV(P)) printgap
|  2> %output
|  3>     printlevel normal
|  4> end
|  5> * xyz 0 1
|  6> C -2.0428854042 -1.1134268525 -0.1222607019
|  7> C -1.0266516487 -0.4276560246 0.8208038641
|  8> H -1.465425201 -0.4184828167 1.8251926635
|  9> C -0.7410199487 1.0476547779 0.4485865125
| 10> H -1.6152866924 1.4240409137 -0.0938543772
| 11> C 0.4953789907 1.2424461808 -0.4539762281
| 12> H 0.8261406222 2.286514151 -0.3187997964
| 13> C 1.6435528114 0.3239164024 0.0105492695
| 14> H 2.4974028106 0.4184578596 -0.6710304185
| 15> C 1.1517457706 -1.1288434154 0.0410751866
| 16> H 1.957632341 -1.7764128081 0.4312863959
| 17> O 0.1439848407 -1.2367594343 1.0078341231
| 18> O 0.7723101009 -1.5214358048 -1.2360996126
| 19> O 2.0702002304 0.6832049472 1.3033205598
| 20> O 0.1363078055 1.0202939829 -1.7916991607
| 21> O -0.625160899 1.8412894771 1.603392213
| 22> O -2.0681859465 -0.6644237149 -1.4435450915
| 23> H -3.0497889988 -0.9416971177 0.2688808422
| 24> H -1.8456098252 -2.1981172111 -0.0765462704
| 25> H 0.3991940141 -2.4107803306 -1.2028708365
| 26> H 1.6400038751 0.0834791222 1.9318150065
| 27> H 0.9280910392 0.9610907101 -2.3371370236
| 28> H 0.2734580866 1.7611287746 1.9525632728
| 29> H -1.1676680259 -0.4622798584 -1.7463185519
| 30> *
| 31>
| 32>                          ****END OF INPUT****

CARTESIAN COORDINATES (ANGSTROEM)
---------------------------------
  C     -2.042885   -1.113427   -0.122261
  C     -1.026652   -0.427656    0.820804
  H     -1.465425   -0.418483    1.825193
  C     -0.741020    1.047655    0.448587
  H     -1.615287    1.424041   -0.093854
  C      0.495379    1.242446   -0.453976
  H      0.826141    2.286514   -0.318800
  C      1.643553    0.323916    0.010549
  H      2.497403    0.418458   -0.671030
  C      1.151746   -1.128843    0.041075
  H      1.957632   -1.776413    0.431286
  O      0.143985   -1.236759    1.007834
  O      0.772310   -1.521436   -1.236100
  O      2.070200    0.683205    1.303321
  O      0.136308    1.020294   -1.791699
  O     -0.625161    1.841289    1.603392
  O     -2.068186   -0.664424   -1.443545
  H     -3.049789   -0.941697    0.268881
  H     -1.845610   -2.198117   -0.076546
  H      0.399194   -2.410780   -1.202871
  H      1.640004    0.083479    1.931815
  H      0.928091    0.961091   -2.337137
  H      0.273458    1.761129    1.952563
  H     -1.167668   -0.462280   -1.746319

 Total Charge           Charge          ....    0
 Multiplicity           Mult            ....    1
 Number of Electrons    NEL             ....   96
 Basis Dimension        Dim             ....  192

ORBITAL ENERGIES
----------------

  NO   OCC          E(Eh)            E(eV)
   0   2.0000     -18.787677      -511.2387
   1   2.0000     -18.787481      -511.2334
   2   2.0000     -18.778973      -511.0018
   3   2.0000     -18.773062      -510.8410
   4   2.0000     -18.746495      -510.1181
   5   2.0000     -18.725195      -509.5385
   6   2.0000     -10.006946      -272.3028
   7   2.0000      -9.961398      -271.0634
   8   2.0000      -9.954549      -270.8770
   9   2.0000      -9.946777      -270.6656
  10   2.0000      -9.946380      -270.6548
  11   2.0000      -9.927576      -270.1431
  12   2.0000      -1.005479       -27.3605
  13   2.0000      -0.959327       -26.1046
  14   2.0000      -0.950053       -25.8523
  15   2.0000      -0.934636       -25.4327
  16   2.0000      -0.924001       -25.1433
  17   2.0000      -0.905630       -24.6435
  18   2.0000      -0.705004       -19.1841
  19   2.0000      -0.702455       -19.1148
  20   2.0000      -0.627075       -17.0636
  21   2.0000      -0.601969       -16.3804
  22   2.0000      -0.578188       -15.7333
  23   2.0000      -0.545182       -14.8352
  24   2.0000      -0.498948       -13.5771
  25   2.0000      -0.497688       -13.5428
  26   2.0000      -0.479804       -13.0561
  27   2.0000      -0.472597       -12.8600
  28   2.0000      -0.450277       -12.2527
  29   2.0000      -0.444216       -12.0877
  30   2.0000      -0.425928       -11.5901
  31   2.0000      -0.406166       -11.0523
  32   2.0000      -0.397300       -10.8111
  33   2.0000      -0.375506       -10.2180
  34   2.0000      -0.365279        -9.9397
  35   2.0000      -0.355196        -9.6654
  36   2.0000      -0.342632        -9.3235
  37   2.0000      -0.327768        -8.9190
  38   2.0000      -0.325223        -8.8498
  39   2.0000      -0.298565        -8.1244
  40   2.0000      -0.291788        -7.9400
  41   2.0000      -0.277998        -7.5647
  42   2.0000      -0.275969        -7.5095
  43   2.0000      -0.249402        -6.7866
  44   2.0000      -0.242889        -6.6094
  45   2.0000      -0.223426        -6.0797
  46   2.0000      -0.220287        -5.9943
  47   2.0000      -0.198862        -5.4113
  48   0.0000       0.000549         0.0149
  49   0.0000       0.016393         0.4461
  50   0.0000       0.024383         0.6635
  51   0.0000       0.049768         1.3543
  52   0.0000       0.066287         1.8037

MULLIKEN ATOMIC CHARGES
-----------------------
   0 C :    0.043677
   1 C :    0.009840
   2 H :    0.082172
   3 C :    0.039320
   4 H :    0.103496
   5 C :    0.052965
   6 H :    0.085338
   7 C :    0.006657
   8 H :    0.079191
   9 C :    0.150771
  10 H :    0.080123
  11 O :   -0.320890
  12 O :   -0.391505
  13 O :   -0.416197
  14 O :   -0.399598
  15 O :   -0.419460
  16 O :   -0.453328
  17 H :    0.085816
  18 H :    0.054101
  19 H :    0.317830
  20 H :    0.305568
  21 H :    0.309135
  22 H :    0.284796
  23 H :    0.310180
Sum of atomic charges:    0.0000000

LOEWDIN ATOMIC CHARGES
----------------------
   0 C :   -0.136021
   1 C :   -0.080884
   2 H :    0.126322
   3 C :   -0.065323
   4 H :    0.131836
   5 C :   -0.076351
   6 H :    0.109643
   7 C :   -0.086832
   8 H :    0.113396
   9 C :   -0.017409
  10 H :    0.099641
  11 O :   -0.149892
  12 O :   -0.297554
  13 O :   -0.306115
  14 O :   -0.292098
  15 O :   -0.315018
  16 O :   -0.346071
  17 H :    0.114575
  18 H :    0.084604
  19 H :    0.294702
  20 H :    0.277903
  21 H :    0.289447
  22 H :    0.267071
  23 H :    0.260429

  Mayer bond orders larger than 0.100000
B(  0-C ,  1-C ) :   1.0349 B(  0-C , 16-O ) :   1.1216 B(  0-C , 17-H ) :   0.9170
B(  0-C , 18-H ) :   0.9067 B(  1-C ,  2-H ) :   0.8900 B(  1-C ,  3-C ) :   0.9814
B(  1-C , 11-O ) :   0.9533 B(  3-C ,  4-H ) :   0.8848 B(  3-C ,  5-C ) :   0.9925
B(  3-C , 15-O ) :   1.0528 B(  5-C ,  6-H ) :   0.9019 B(  5-C ,  7-C ) :   0.9613
B(  5-C , 14-O ) :   1.0483 B(  7-C ,  8-H ) :   0.8941 B(  7-C ,  9-C ) :   1.0076
B(  7-C , 13-O ) :   1.0616 B(  9-C , 10-H ) :   0.9076 B(  9-C , 11-O ) :   1.0456
B(  9-C , 12-O ) :   1.1309 B( 12-O , 19-H ) :   0.8249 B( 13-O , 20-H ) :   0.8104
B( 14-O , 21-H ) :   0.8346 B( 15-O , 22-H ) :   0.8234 B( 16-O , 23-H ) :   0.7832

Dispersion correction           -0.026867283
FINAL SINGLE POINT ENERGY      -685.690101365074

DIPOLE MOMENT
-------------

Method             : SCF
Type of density    : Electron Density
Multiplicity       :   1
Irrep              :   0
Energy             :  -685.8262781877217549 Eh
Relativity type    :
Basis              : AO
                                X                 Y                 Z
Electronic contribution:      1.741032875       0.414107502       0.048497651
Nuclear contribution   :     -0.577044500      -1.192535669      -0.042791237
                        -----------------------------------------
Total Dipole Moment    :      1.163988375      -0.778428167       0.005706413
                        -----------------------------------------
Magnitude (a.u.)       :      1.400304221
Magnitude (Debye)      :      3.559290468

Rotational constants in cm-1:             0.040040             0.031716             0.028164
Rotational constants in MHz :          1200.372070           950.836629           844.321501

                             ****ORCA TERMINATED NORMALLY****
TOTAL RUN TIME: 0 days 0 hours 0 minutes 9 seconds 418 msec
