                         Program Version 6.0.0  -   RELEASE  -
|  1> ! r2SCAN-3c DEF2-TZVP FREQ
|  2> * xyzfile 0 1 censo.xyz
|  3>
|  4>                          ****END OF INPUT****

CARTESIAN COORDINATES (ANGSTROEM)
---------------------------------
  C     -2.226051    0.000001    0.000022
  C     -1.533370   -1.209716    0.000015
  C     -0.145485   -1.219749   -0.000012
  C      0.547005    0.000002   -0.000030
  C     -0.145487    1.219753   -0.000034
  C     -1.533370    1.209717   -0.000008
  C      1.967786    0.000014   -0.000041
  N      3.128609   -0.000024   -0.000007
  H     -3.311188    0.000001    0.000044
  H     -2.076329   -2.148827    0.000032
  H      0.406905   -2.152790   -0.000014
  H      0.406903    2.152793   -0.000055
  H     -2.076330    2.148828   -0.000008

 Total Charge           Charge          ....    0
 Multiplicity           Mult            ....    1
 Number of Electrons    NEL             ....   54
 Basis Dimension        Dim             ....  278

ORBITAL ENERGIES
----------------

  NO   OCC          E(Eh)            E(eV)
   0   2.0000     -14.160590      -385.3293
   1   2.0000     -10.093823      -274.6669
   2   2.0000     -10.074029      -274.1283
   3   2.0000     -10.071522      -274.0601
   4   2.0000     -10.071512      -274.0598
   5   2.0000     -10.066921      -273.9349
   6   2.0000     -10.065457      -273.8950
   7   2.0000     -10.065390      -273.8932
   8   2.0000      -0.878004       -23.8917
   9   2.0000      -0.850335       -23.1388
  10   2.0000      -0.759198       -20.6588
  11   2.0000      -0.746005       -20.2998
  12   2.0000      -0.629624       -17.1329
  13   2.0000      -0.605183       -16.4679
  14   2.0000      -0.540507       -14.7079
  15   2.0000      -0.480822       -13.0838
  16   2.0000      -0.455332       -12.3902
  17   2.0000      -0.432373       -11.7655
  18   2.0000      -0.420333       -11.4378
  19   2.0000      -0.389238       -10.5917
  20   2.0000      -0.358231        -9.7480
  21   2.0000      -0.348920        -9.4946
  22   2.0000      -0.331356        -9.0167
  23   2.0000      -0.328701        -8.9444
  24   2.0000      -0.310150        -8.4396
  25   2.0000      -0.267660        -7.2834
  26   2.0000      -0.256243        -6.9727
  27   0.0000      -0.087152        -2.3715
  28   0.0000      -0.062437        -1.6990
  29   0.0000       0.001818         0.0495
  30   0.0000       0.036146         0.9836
  31   0.0000       0.038694         1.0529

MULLIKEN ATOMIC CHARGES
-----------------------
   0 C :   -0.107138
   1 C :   -0.079747
   2 C :   -0.237577
   3 C :    0.314863
   4 C :   -0.237565
   5 C :   -0.079752
   6 C :   -0.138683
   7 N :   -0.067266
   8 H :    0.122629
   9 H :    0.122349
  10 H :    0.132771
  11 H :    0.132766
  12 H :    0.122351
Sum of atomic charges:    0.0000000

LOEWDIN ATOMIC CHARGES
----------------------
   0 C :   -0.119739
   1 C :   -0.125743
   2 C :   -0.074147
   3 C :   -0.148643
   4 C :   -0.074148
   5 C :   -0.125743
   6 C :   -0.154333
   7 N :    0.064709
   8 H :    0.147693
   9 H :    0.148814
  10 H :    0.156233
  11 H :    0.156233
  12 H :    0.148814

  Mayer bond orders larger than 0.100000
B(  0-C ,  1-C ) :   1.3806 B(  0-C ,  5-C ) :   1.3806 B(  0-C ,  8-H ) :   0.9648
B(  1-C ,  2-C ) :   1.4374 B(  1-C ,  9-H ) :   0.9683 B(  2-C ,  3-C ) :   1.3101
B(  2-C , 10-H ) :   0.9739 B(  3-C ,  4-C ) :   1.3101 B(  3-C ,  6-C ) :   0.9279
B(  4-C ,  5-C ) :   1.4374 B(  4-C , 11-H ) :   0.9740 B(  5-C , 12-H ) :   0.9683
B(  6-C ,  7-N ) :   2.9883

Dispersion correction           -0.004212017
FINAL SINGLE POINT ENERGY      -324.427517201720

DIPOLE MOMENT
-------------

Method             : SCF
Type of density    : Electron Density
Multiplicity       :   1
Irrep              :   0
Energy             :  -324.4258322274087050 Eh
Relativity type    :
Basis              : AO
                                X                 Y                 Z
Electronic contribution:      4.370516291       0.000006073      -0.000058882
Nuclear contribution   :     -6.233421029       0.000008136       0.000051856
                        -----------------------------------------
Total Dipole Moment    :     -1.862904738       0.000014209      -0.000007026
                        -----------------------------------------
Magnitude (a.u.)       :      1.862904738
Magnitude (Debye)      :      4.735127537

VIBRATIONAL FREQUENCIES
-----------------------

Scaling factor for frequencies =  1.000000000  (already applied!)

     0:       0.00 cm**-1
     1:       0.00 cm**-1
     2:       0.00 cm**-1
     3:       0.00 cm**-1
     4:       0.00 cm**-1
     5:       0.00 cm**-1
     6:     150.44 cm**-1
     7:     175.14 cm**-1
     8:     391.38 cm**-1
     9:     405.10 cm**-1
    10:     468.99 cm**-1
    11:     563.26 cm**-1
    12:     567.74 cm**-1
    13:     642.49 cm**-1
    14:     705.13 cm**-1
    15:     772.95 cm**-1
    16:     778.44 cm**-1
    17:     852.94 cm**-1
    18:     934.55 cm**-1
    19:     969.09 cm**-1
    20:     994.45 cm**-1
    21:    1020.07 cm**-1
    22:    1047.16 cm**-1
    23:    1103.77 cm**-1
    24:    1186.95 cm**-1
    25:    1197.56 cm**-1
    26:    1228.35 cm**-1
    27:    1324.76 cm**-1
    28:    1353.79 cm**-1
    29:    1472.90 cm**-1
    30:    1515.84 cm**-1
    31:    1605.37 cm**-1
    32:    1632.13 cm**-1
    33:    2280.33 cm**-1
    34:    3165.84 cm**-1
    35:    3175.52 cm**-1
    36:    3183.17 cm**-1
    37:    3192.05 cm**-1
    38:    3195.34 cm**-1

IR SPECTRUM
-----------

 Mode   freq       eps      Int      T**2         TX        TY        TZ
       cm**-1   L/(mol*cm) km/mol    a.u.
----------------------------------------------------------------------------
  6:    150.44   0.000331    1.67  0.000687  (-0.000003  0.000002 -0.026220)
  7:    175.14   0.000854    4.31  0.001521  ( 0.000002  0.038998 -0.000000)
  8:    391.38   0.000099    0.50  0.000079  (-0.000003 -0.000002 -0.008872)
  9:    405.10   0.000000    0.00  0.000000  (-0.000002 -0.000005 -0.000001)
 10:    468.99   0.000001    0.00  0.000000  ( 0.000607  0.000000 -0.000000)
 11:    563.26   0.003436   17.36  0.001903  ( 0.000020 -0.000001  0.043628)
 12:    567.74   0.000027    0.14  0.000015  (-0.000005 -0.003851 -0.000000)
 13:    642.49   0.000029    0.15  0.000014  (-0.000002 -0.003740 -0.000000)
 14:    705.13   0.007446   37.63  0.003296  (-0.000004 -0.000000  0.057406)
 15:    772.95   0.007093   35.84  0.002864  ( 0.000013  0.000002 -0.053512)
 16:    778.44   0.000387    1.95  0.000155  (-0.012451 -0.000000 -0.000015)
 17:    852.94   0.000000    0.00  0.000000  (-0.000000 -0.000000 -0.000000)
 18:    934.55   0.000634    3.20  0.000212  ( 0.000002  0.000001 -0.014547)
 19:    969.09   0.000000    0.00  0.000000  ( 0.000000  0.000001 -0.000000)
 20:    994.45   0.000017    0.08  0.000005  (-0.000002  0.000000  0.002285)
 21:   1020.07   0.000001    0.01  0.000000  ( 0.000592  0.000000  0.000000)
 22:   1047.16   0.000779    3.94  0.000232  (-0.015238 -0.000000  0.000000)
 23:   1103.77   0.000909    4.60  0.000257  (-0.000001  0.016035 -0.000000)
 24:   1186.95   0.000017    0.09  0.000004  (-0.000000  0.002108 -0.000000)
 25:   1197.56   0.000163    0.83  0.000043  (-0.006524  0.000000 -0.000000)
 26:   1228.35   0.000091    0.46  0.000023  ( 0.004820 -0.000000 -0.000000)
 27:   1324.76   0.000108    0.55  0.000025  (-0.000001  0.005050 -0.000000)
 28:   1353.79   0.000226    1.14  0.000052  ( 0.000000 -0.007219  0.000000)
 29:   1472.90   0.001271    6.42  0.000269  (-0.000001 -0.016408  0.000000)
 30:   1515.84   0.001611    8.14  0.000332  (-0.018214  0.000000  0.000000)
 31:   1605.37   0.000260    1.31  0.000051  (-0.000001  0.007107 -0.000000)
 32:   1632.13   0.000146    0.74  0.000028  (-0.005287 -0.000000  0.000000)
 33:   2280.33   0.005938   30.01  0.000813  (-0.028505 -0.000001  0.000001)
 34:   3165.84   0.000017    0.08  0.000002  (-0.001284  0.000000  0.000000)
 35:   3175.52   0.000844    4.26  0.000083  (-0.000000 -0.009106  0.000000)
 36:   3183.17   0.001812    9.16  0.000178  (-0.013327  0.000000  0.000000)
 37:   3192.05   0.001325    6.70  0.000130  (-0.000000 -0.011381  0.000000)
 38:   3195.34   0.000472    2.39  0.000046  (-0.006793  0.000001  0.000000)

--------------------------
THERMOCHEMISTRY AT 298.15K
--------------------------

Temperature         ...   298.15 K
Pressure            ...     1.00 atm
Total Mass          ...   103.12 AMU
Quasi RRHO          ...     True
Cut-Off Frequency   ...     1.00 cm^-1

Throughout the following assumptions are being made:
  (1) The electronic state is orbitally nondegenerate
  (2) There are no thermally accessible electronically excited states
  (3) Hindered rotations indicated by low frequency modes are not
      treated as such but are treated as vibrations and this may
      cause some error
  (4) All equations used are the standard statistical mechanics
      equations for an ideal gas
  (5) All vibrations are strictly harmonic

freq.     150.44  E(vib)   ...       0.40
freq.     175.14  E(vib)   ...       0.38
freq.     391.38  E(vib)   ...       0.20
freq.     405.10  E(vib)   ...       0.19
freq.     468.99  E(vib)   ...       0.16
freq.     563.26  E(vib)   ...       0.11
freq.     567.74  E(vib)   ...       0.11
freq.     642.49  E(vib)   ...       0.09
freq.     705.13  E(vib)   ...       0.07
freq.     772.95  E(vib)   ...       0.05
freq.     778.44  E(vib)   ...       0.05
freq.     852.94  E(vib)   ...       0.04
freq.     934.55  E(vib)   ...       0.03
freq.     969.09  E(vib)   ...       0.03
freq.     994.45  E(vib)   ...       0.02
freq.    1020.07  E(vib)   ...       0.02
freq.    1047.16  E(vib)   ...       0.02
freq.    1103.77  E(vib)   ...       0.02
freq.    1186.95  E(vib)   ...       0.01
freq.    1197.56  E(vib)   ...       0.01
freq.    1228.35  E(vib)   ...       0.01
freq.    1324.76  E(vib)   ...       0.01
freq.    1353.79  E(vib)   ...       0.01
freq.    1472.90  E(vib)   ...       0.00
freq.    1515.84  E(vib)   ...       0.00
freq.    1605.37  E(vib)   ...       0.00
freq.    1632.13  E(vib)   ...       0.00
freq.    2280.33  E(vib)   ...       0.00
freq.    3165.84  E(vib)   ...       0.00
freq.    3175.52  E(vib)   ...       0.00
freq.    3183.17  E(vib)   ...       0.00
freq.    3192.05  E(vib)   ...       0.00
freq.    3195.34  E(vib)   ...       0.00

------------
INNER ENERGY
------------

The inner energy is: U= E(el) + E(ZPE) + E(vib) + E(rot) + E(trans)
    E(el)   - is the total energy from the electronic structure calculation
              = E(kin-el) + E(nuc-el) + E(el-el) + E(nuc-nuc)
    E(ZPE)  - the the zero temperature vibrational energy from the frequency calculation
    E(vib)  - the the finite temperature correction to E(ZPE) due to population
              of excited vibrational states
    E(rot)  - is the rotational thermal energy
    E(trans)- is the translational thermal energy

Summary of contributions to the inner energy U:
Electronic energy                ...   -324.42751720 Eh
Zero point energy                ...      0.09853752 Eh      61.83 kcal/mol
Thermal vibrational correction   ...      0.00325907 Eh       2.05 kcal/mol
Thermal rotational correction    ...      0.00141627 Eh       0.89 kcal/mol
Thermal translational correction ...      0.00141627 Eh       0.89 kcal/mol
-----------------------------------------------------------------------
Total thermal energy                   -324.32288807 Eh

Summary of corrections to the electronic energy:
(perhaps to be used in another calculation)
Total thermal correction                  0.00609161 Eh       3.82 kcal/mol
Non-thermal (ZPE) correction              0.09853752 Eh      61.83 kcal/mol
-----------------------------------------------------------------------
Total correction                          0.10462913 Eh      65.66 kcal/mol

--------
ENTHALPY
--------

The enthalpy is H = U + kB*T
                kB is Boltzmann's constant
Total thermal energy              ...   -324.32288807 Eh
Thermal Enthalpy correction       ...      0.00094421 Eh       0.59 kcal/mol
-----------------------------------------------------------------------
Total Enthalpy                    ...   -324.32194386 Eh

Note: Rotational entropy computed according to Herzberg
Infrared and Raman Spectra, Chapter V,1, Van Nostrand Reinhold, 1945
Point Group:  C2v, Symmetry Number:   2
Rotational constants in cm-1:     0.188257     0.052064     0.040784

Vibrational entropy computed according to the QRRHO of S. Grimme
Chem.Eur.J. 2012 18 9955 using a reference frequency of 100.0 cm-1

-------
ENTROPY
-------

The entropy contributions are T*S = T*(S(el)+S(vib)+S(rot)+S(trans))
     S(el)   - electronic entropy
     S(vib)  - vibrational entropy
     S(rot)  - rotational entropy
     S(trans)- translational entropy
The entropies will be listed as multiplied by the temperature to get
units of energy

Electronic entropy                ...      0.00000000 Eh      0.00 kcal/mol
Vibrational entropy               ...      0.00512127 Eh      3.21 kcal/mol
Rotational entropy                ...      0.01255032 Eh      7.88 kcal/mol
Translational entropy             ...      0.01891481 Eh     11.87 kcal/mol
-----------------------------------------------------------------------
Final entropy term                ...      0.03658640 Eh     22.96 kcal/mol

In case the symmetry of your molecule has not been determined correctly
or in case you have a reason to use a different symmetry number we print
out the resulting rotational entropy values for sn=1,12:

 non-linear molecules -----------------------------------
|  sn= 1 | S(rot)=       0.01320477 Eh      8.29 kcal/mol|
|  sn= 2 | S(rot)=       0.01255032 Eh      7.88 kcal/mol|
|  sn= 3 | S(rot)=       0.01216748 Eh      7.64 kcal/mol|
|  sn= 4 | S(rot)=       0.01189586 Eh      7.46 kcal/mol|
|  sn= 5 | S(rot)=       0.01168517 Eh      7.33 kcal/mol|
|  sn= 6 | S(rot)=       0.01151303 Eh      7.22 kcal/mol|
|  sn= 7 | S(rot)=       0.01136748 Eh      7.13 kcal/mol|
|  sn= 8 | S(rot)=       0.01124140 Eh      7.05 kcal/mol|
|  sn= 9 | S(rot)=       0.01113020 Eh      6.98 kcal/mol|
|  sn=10 | S(rot)=       0.01103072 Eh      6.92 kcal/mol|
|  sn=11 | S(rot)=       0.01094073 Eh      6.87 kcal/mol|
|  sn=12 | S(rot)=       0.01085857 Eh      6.81 kcal/mol|
 linear molecules ---------------------------------------
|  Dinfh | S(rot)=       0.00834667 Eh      5.24 kcal/mol|
|  Cinfv | S(rot)=       0.00900113 Eh      5.65 kcal/mol|
 --------------------------------------------------------

-------------------
GIBBS FREE ENERGY
-------------------

The Gibbs free energy is G = H - T*S

Total enthalpy                    ...   -324.32194386 Eh
Total entropy correction          ...     -0.03658640 Eh    -22.96 kcal/mol
-----------------------------------------------------------------------
Final Gibbs free energy         ...   -324.35853026 Eh

For completeness - the Gibbs free energy minus the electronic energy
G-E(el)                           ...      0.06898694 Eh     43.29 kcal/mol

                             ****ORCA TERMINATED NORMALLY****
TOTAL RUN TIME: 0 days 0 hours 8 minutes 14 seconds 44 msec
