                         Program Version 6.0.0  -   RELEASE  -
|  1> ! r2SCAN-3c DEF2-TZVP FREQ
|  2> * xyzfile 0 1 vacuum_censo.xyz
|  3>
|  4>                          ****END OF INPUT****

CARTESIAN COORDINATES (ANGSTROEM)
---------------------------------
  C     -2.230161    0.000048   -0.000176
  C     -1.535728   -1.207319   -0.000079
  C     -0.147902   -1.215083    0.000089
  C      0.550506   -0.000054    0.000154
  C     -0.147817    1.215034    0.000101
  C     -1.535648    1.207371   -0.000066
  C      1.975500   -0.000181    0.000279
  N      3.133359    0.000145   -0.000006
  H     -3.315205    0.000085   -0.000340
  H     -2.077532   -2.147132   -0.000143
  H      0.404110   -2.148219    0.000168
  H      0.404260    2.148134    0.000190
  H     -2.077397    2.147218   -0.000121

 Total Charge           Charge          ....    0
 Multiplicity           Mult            ....    1
 Number of Electrons    NEL             ....   54
 Basis Dimension        Dim             ....  278

ORBITAL ENERGIES
----------------

  NO   OCC          E(Eh)            E(eV)
   0   2.0000     -14.160436      -385.3250
   1   2.0000     -10.094074      -274.6737
   2   2.0000     -10.074162      -274.1319
   3   2.0000     -10.071139      -274.0496
   4   2.0000     -10.071127      -274.0493
   5   2.0000     -10.066629      -273.9269
   6   2.0000     -10.065169      -273.8872
   7   2.0000     -10.065100      -273.8853
   8   2.0000      -0.878917       -23.9165
   9   2.0000      -0.850955       -23.1557
  10   2.0000      -0.759422       -20.6649
  11   2.0000      -0.745525       -20.2868
  12   2.0000      -0.629319       -17.1246
  13   2.0000      -0.605069       -16.4648
  14   2.0000      -0.540588       -14.7102
  15   2.0000      -0.480978       -13.0881
  16   2.0000      -0.455303       -12.3894
  17   2.0000      -0.432674       -11.7737
  18   2.0000      -0.419361       -11.4114
  19   2.0000      -0.389253       -10.5921
  20   2.0000      -0.358595        -9.7579
  21   2.0000      -0.348206        -9.4752
  22   2.0000      -0.331993        -9.0340
  23   2.0000      -0.329019        -8.9531
  24   2.0000      -0.311196        -8.4681
  25   2.0000      -0.267278        -7.2730
  26   2.0000      -0.256952        -6.9920
  27   0.0000      -0.086762        -2.3609
  28   0.0000      -0.062106        -1.6900
  29   0.0000       0.002075         0.0565
  30   0.0000       0.035963         0.9786
  31   0.0000       0.038870         1.0577

MULLIKEN ATOMIC CHARGES
-----------------------
   0 C :   -0.106757
   1 C :   -0.079571
   2 C :   -0.237698
   3 C :    0.314183
   4 C :   -0.237716
   5 C :   -0.079564
   6 C :   -0.142934
   7 N :   -0.061418
   8 H :    0.122728
   9 H :    0.122332
  10 H :    0.132046
  11 H :    0.132040
  12 H :    0.122331
Sum of atomic charges:   -0.0000000

LOEWDIN ATOMIC CHARGES
----------------------
   0 C :   -0.120098
   1 C :   -0.125858
   2 C :   -0.074914
   3 C :   -0.148429
   4 C :   -0.074901
   5 C :   -0.125856
   6 C :   -0.154065
   7 N :    0.066281
   8 H :    0.147733
   9 H :    0.148942
  10 H :    0.156110
  11 H :    0.156112
  12 H :    0.148944

  Mayer bond orders larger than 0.100000
B(  0-C ,  1-C ) :   1.3806 B(  0-C ,  5-C ) :   1.3806 B(  0-C ,  8-H ) :   0.9647
B(  1-C ,  2-C ) :   1.4370 B(  1-C ,  9-H ) :   0.9684 B(  2-C ,  3-C ) :   1.3114
B(  2-C , 10-H ) :   0.9738 B(  3-C ,  4-C ) :   1.3114 B(  3-C ,  6-C ) :   0.9271
B(  4-C ,  5-C ) :   1.4370 B(  4-C , 11-H ) :   0.9738 B(  5-C , 12-H ) :   0.9684
B(  6-C ,  7-N ) :   2.9908

Dispersion correction           -0.004210419
FINAL SINGLE POINT ENERGY      -324.427617310322

DIPOLE MOMENT
-------------

Method             : SCF
Type of density    : Electron Density
Multiplicity       :   1
Irrep              :   0
Energy             :  -324.4259342636805172 Eh
Relativity type    :
Basis              : AO
                                X                 Y                 Z
Electronic contribution:      4.387026381      -0.000179018       0.000436660
Nuclear contribution   :     -6.245639460       0.000085860      -0.000379594
                        -----------------------------------------
Total Dipole Moment    :     -1.858613079      -0.000093158       0.000057066
                        -----------------------------------------
Magnitude (a.u.)       :      1.858613082
Magnitude (Debye)      :      4.724219015

VIBRATIONAL FREQUENCIES
-----------------------

Scaling factor for frequencies =  1.000000000  (already applied!)

     0:       0.00 cm**-1
     1:       0.00 cm**-1
     2:       0.00 cm**-1
     3:       0.00 cm**-1
     4:       0.00 cm**-1
     5:       0.00 cm**-1
     6:     143.43 cm**-1
     7:     162.61 cm**-1
     8:     384.73 cm**-1
     9:     404.44 cm**-1
    10:     467.73 cm**-1
    11:     560.60 cm**-1
    12:     562.88 cm**-1
    13:     641.80 cm**-1
    14:     704.35 cm**-1
    15:     773.27 cm**-1
    16:     777.04 cm**-1
    17:     853.21 cm**-1
    18:     935.53 cm**-1
    19:     969.56 cm**-1
    20:     994.70 cm**-1
    21:    1021.80 cm**-1
    22:    1050.31 cm**-1
    23:    1103.77 cm**-1
    24:    1187.36 cm**-1
    25:    1199.44 cm**-1
    26:    1223.71 cm**-1
    27:    1328.54 cm**-1
    28:    1356.23 cm**-1
    29:    1473.11 cm**-1
    30:    1518.03 cm**-1
    31:    1608.80 cm**-1
    32:    1634.34 cm**-1
    33:    2297.69 cm**-1
    34:    3166.11 cm**-1
    35:    3175.30 cm**-1
    36:    3183.53 cm**-1
    37:    3192.14 cm**-1
    38:    3195.45 cm**-1

IR SPECTRUM
-----------

 Mode   freq       eps      Int      T**2         TX        TY        TZ
       cm**-1   L/(mol*cm) km/mol    a.u.
----------------------------------------------------------------------------
  6:    143.43   0.000361    1.83  0.000786  (-0.000039  0.000000  0.028035)
  7:    162.61   0.000862    4.36  0.001655  (-0.000018  0.040681  0.000000)
  8:    384.73   0.000108    0.54  0.000087  (-0.000018 -0.000002  0.009338)
  9:    404.44   0.000000    0.00  0.000000  (-0.000001 -0.000031 -0.000004)
 10:    467.73   0.000001    0.00  0.000000  ( 0.000617 -0.000001  0.000002)
 11:    560.60   0.003413   17.25  0.001900  ( 0.000091 -0.000002 -0.043587)
 12:    562.88   0.000028    0.14  0.000015  ( 0.000042 -0.003921  0.000001)
 13:    641.80   0.000025    0.13  0.000012  ( 0.000013 -0.003477 -0.000000)
 14:    704.35   0.007325   37.02  0.003245  (-0.000013  0.000001 -0.056967)
 15:    773.27   0.007168   36.23  0.002893  ( 0.000090  0.000001  0.053786)
 16:    777.04   0.000380    1.92  0.000153  (-0.012358  0.000000  0.000107)
 17:    853.21   0.000000    0.00  0.000000  (-0.000000 -0.000007 -0.000001)
 18:    935.53   0.000634    3.20  0.000212  ( 0.000013  0.000001  0.014543)
 19:    969.56   0.000000    0.00  0.000000  ( 0.000000  0.000007  0.000001)
 20:    994.70   0.000016    0.08  0.000005  (-0.000014 -0.000000 -0.002264)
 21:   1021.80   0.000004    0.02  0.000001  ( 0.001140 -0.000000 -0.000000)
 22:   1050.31   0.000792    4.00  0.000235  (-0.015345  0.000001 -0.000002)
 23:   1103.77   0.000914    4.62  0.000258  ( 0.000006  0.016071  0.000000)
 24:   1187.36   0.000019    0.10  0.000005  ( 0.000002  0.002243  0.000000)
 25:   1199.44   0.000179    0.91  0.000047  (-0.006833 -0.000001  0.000000)
 26:   1223.71   0.000077    0.39  0.000020  ( 0.004443  0.000002  0.000001)
 27:   1328.54   0.000105    0.53  0.000025  ( 0.000010  0.004964  0.000000)
 28:   1356.23   0.000248    1.25  0.000057  (-0.000002 -0.007554 -0.000000)
 29:   1473.11   0.001273    6.43  0.000270  ( 0.000006 -0.016421 -0.000000)
 30:   1518.03   0.001586    8.01  0.000326  (-0.018056  0.000001 -0.000002)
 31:   1608.80   0.000250    1.26  0.000048  ( 0.000009  0.006958  0.000000)
 32:   1634.34   0.000155    0.78  0.000030  (-0.005433  0.000002 -0.000001)
 33:   2297.69   0.005730   28.95  0.000778  (-0.027896  0.000007 -0.000007)
 34:   3166.11   0.000007    0.04  0.000001  (-0.000836 -0.000005 -0.000000)
 35:   3175.30   0.000816    4.13  0.000080  ( 0.000007 -0.008957 -0.000000)
 36:   3183.53   0.001828    9.24  0.000179  (-0.013385 -0.000009 -0.000002)
 37:   3192.14   0.001430    7.23  0.000140  ( 0.000020 -0.011823 -0.000000)
 38:   3195.45   0.000454    2.29  0.000044  (-0.006657 -0.000028 -0.000000)

--------------------------
THERMOCHEMISTRY AT 298.15K
--------------------------

Temperature         ...   298.15 K
Pressure            ...     1.00 atm
Total Mass          ...   103.12 AMU
Quasi RRHO          ...     True
Cut-Off Frequency   ...     1.00 cm^-1

Throughout the following assumptions are being made:
  (1) The electronic state is orbitally nondegenerate
  (2) There are no thermally accessible electronically excited states
  (3) Hindered rotations indicated by low frequency modes are not
      treated as such but are treated as vibrations and this may
      cause some error
  (4) All equations used are the standard statistical mechanics
      equations for an ideal gas
  (5) All vibrations are strictly harmonic

freq.     143.43  E(vib)   ...       0.41
freq.     162.61  E(vib)   ...       0.39
freq.     384.73  E(vib)   ...       0.20
freq.     404.44  E(vib)   ...       0.19
freq.     467.73  E(vib)   ...       0.16
freq.     560.60  E(vib)   ...       0.11
freq.     562.88  E(vib)   ...       0.11
freq.     641.80  E(vib)   ...       0.09
freq.     704.35  E(vib)   ...       0.07
freq.     773.27  E(vib)   ...       0.05
freq.     777.04  E(vib)   ...       0.05
freq.     853.21  E(vib)   ...       0.04
freq.     935.53  E(vib)   ...       0.03
freq.     969.56  E(vib)   ...       0.03
freq.     994.70  E(vib)   ...       0.02
freq.    1021.80  E(vib)   ...       0.02
freq.    1050.31  E(vib)   ...       0.02
freq.    1103.77  E(vib)   ...       0.02
freq.    1187.36  E(vib)   ...       0.01
freq.    1199.44  E(vib)   ...       0.01
freq.    1223.71  E(vib)   ...       0.01
freq.    1328.54  E(vib)   ...       0.01
freq.    1356.23  E(vib)   ...       0.01
freq.    1473.11  E(vib)   ...       0.00
freq.    1518.03  E(vib)   ...       0.00
freq.    1608.80  E(vib)   ...       0.00
freq.    1634.34  E(vib)   ...       0.00
freq.    2297.69  E(vib)   ...       0.00
freq.    3166.11  E(vib)   ...       0.00
freq.    3175.30  E(vib)   ...       0.00
freq.    3183.53  E(vib)   ...       0.00
freq.    3192.14  E(vib)   ...       0.00
freq.    3195.45  E(vib)   ...       0.00

------------
INNER ENERGY
------------

The inner energy is: U= E(el) + E(ZPE) + E(vib) + E(rot) + E(trans)
    E(el)   - is the total energy from the electronic structure calculation
              = E(kin-el) + E(nuc-el) + E(el-el) + E(nuc-nuc)
    E(ZPE)  - the the zero temperature vibrational energy from the frequency calculation
    E(vib)  - the the finite temperature correction to E(ZPE) due to population
              of excited vibrational states
    E(rot)  - is the rotational thermal energy
    E(trans)- is the translational thermal energy

Summary of contributions to the inner energy U:
Electronic energy                ...   -324.42761731 Eh
Zero point energy                ...      0.09853426 Eh      61.83 kcal/mol
Thermal vibrational correction   ...      0.00330500 Eh       2.07 kcal/mol
Thermal rotational correction    ...      0.00141627 Eh       0.89 kcal/mol
Thermal translational correction ...      0.00141627 Eh       0.89 kcal/mol
-----------------------------------------------------------------------
Total thermal energy                   -324.32294550 Eh

Summary of corrections to the electronic energy:
(perhaps to be used in another calculation)
Total thermal correction                  0.00613754 Eh       3.85 kcal/mol
Non-thermal (ZPE) correction              0.09853426 Eh      61.83 kcal/mol
-----------------------------------------------------------------------
Total correction                          0.10467181 Eh      65.68 kcal/mol

--------
ENTHALPY
--------

The enthalpy is H = U + kB*T
                kB is Boltzmann's constant
Total thermal energy              ...   -324.32294550 Eh
Thermal Enthalpy correction       ...      0.00094421 Eh       0.59 kcal/mol
-----------------------------------------------------------------------
Total Enthalpy                    ...   -324.32200129 Eh

Note: Only C1 symmetry has been detected, increase convergence thresholds
      if your molecule has a higher symmetry. Symmetry factor of 1.0 is
      used for the rotational entropy correction.

Note: Rotational entropy computed according to Herzberg
Infrared and Raman Spectra, Chapter V,1, Van Nostrand Reinhold, 1945
Point Group:  C1, Symmetry Number:   1
Rotational constants in cm-1:     0.189243     0.051861     0.040706

Vibrational entropy computed according to the QRRHO of S. Grimme
Chem.Eur.J. 2012 18 9955 using a reference frequency of 100.0 cm-1

-------
ENTROPY
-------

The entropy contributions are T*S = T*(S(el)+S(vib)+S(rot)+S(trans))
     S(el)   - electronic entropy
     S(vib)  - vibrational entropy
     S(rot)  - rotational entropy
     S(trans)- translational entropy
The entropies will be listed as multiplied by the temperature to get
units of energy

Electronic entropy                ...      0.00000000 Eh      0.00 kcal/mol
Vibrational entropy               ...      0.00524093 Eh      3.29 kcal/mol
Rotational entropy                ...      0.01320507 Eh      8.29 kcal/mol
Translational entropy             ...      0.01891481 Eh     11.87 kcal/mol
-----------------------------------------------------------------------
Final entropy term                ...      0.03736080 Eh     23.44 kcal/mol

In case the symmetry of your molecule has not been determined correctly
or in case you have a reason to use a different symmetry number we print
out the resulting rotational entropy values for sn=1,12:

 non-linear molecules -----------------------------------
|  sn= 1 | S(rot)=       0.01320507 Eh      8.29 kcal/mol|
|  sn= 2 | S(rot)=       0.01255061 Eh      7.88 kcal/mol|
|  sn= 3 | S(rot)=       0.01216778 Eh      7.64 kcal/mol|
|  sn= 4 | S(rot)=       0.01189615 Eh      7.46 kcal/mol|
|  sn= 5 | S(rot)=       0.01168546 Eh      7.33 kcal/mol|
|  sn= 6 | S(rot)=       0.01151332 Eh      7.22 kcal/mol|
|  sn= 7 | S(rot)=       0.01136777 Eh      7.13 kcal/mol|
|  sn= 8 | S(rot)=       0.01124170 Eh      7.05 kcal/mol|
|  sn= 9 | S(rot)=       0.01113049 Eh      6.98 kcal/mol|
|  sn=10 | S(rot)=       0.01103101 Eh      6.92 kcal/mol|
|  sn=11 | S(rot)=       0.01094102 Eh      6.87 kcal/mol|
|  sn=12 | S(rot)=       0.01085886 Eh      6.81 kcal/mol|
 linear molecules ---------------------------------------
|  Dinfh | S(rot)=       0.00834850 Eh      5.24 kcal/mol|
|  Cinfv | S(rot)=       0.00900296 Eh      5.65 kcal/mol|
 --------------------------------------------------------

-------------------
GIBBS FREE ENERGY
-------------------

The Gibbs free energy is G = H - T*S

Total enthalpy                    ...   -324.32200129 Eh
Total entropy correction          ...     -0.03736080 Eh    -23.44 kcal/mol
-----------------------------------------------------------------------

                             ****ORCA TERMINATED NORMALLY****
TOTAL RUN TIME: 0 days 0 hours 8 minutes 23 seconds 977 msec
