                         Program Version 6.0.1  -  RELEASE   -
|  1> ! pbe def2-sv(p) def2/J RI DEFGRID1 loosescf d4 GCP(DFT/SV(P)) printgap
|  2> %output
|  3>     printlevel normal
|  4> end
|  5> * xyz 0 1
|  6> C -3.6480400514 -0.0348380733 -0.010170795
|  7> C -2.1517815902 -0.021316553 0.0075259431
|  8> C -1.4254552518 -1.2070725069 0.0046851619
|  9> C -0.0440715622 -1.1996250951 0.0015702833
| 10> C 0.6530924191 0.0074766323 0.0007866956
| 11> C -0.0770260811 1.1979579256 0.0030965887
| 12> C -1.4552296787 1.1834797443 0.0065417725
| 13> C 2.13319763 0.1012232767 -0.001803537
| 14> O 2.6993294452 1.1727593884 -0.0045526448
| 15> C 2.9067015355 -1.1963151789 -0.0012375431
| 16> H -4.0352395196 -0.9863086865 0.3459754647
| 17> H -4.0488974716 0.7658935929 0.6075511005
| 18> H -4.0068392315 0.1183101869 -1.0285942443
| 19> H -1.9522697768 -2.150978508 0.006131762
| 20> H 0.4832794733 -2.1408568188 0.0008603436
| 21> H 0.4681171575 2.1301612851 0.0034091701
| 22> H -2.0036197248 2.1145790444 0.0094651257
| 23> H 2.6606525664 -1.778847986 0.8838586892
| 24> H 3.9713898541 -0.9769011175 -0.0024007797
| 25> H 2.6591750456 -1.7802670761 -0.8850086868
| 26> *
| 27>
| 28>                          ****END OF INPUT****

CARTESIAN COORDINATES (ANGSTROEM)
---------------------------------
  C     -3.648040   -0.034838   -0.010171
  C     -2.151782   -0.021317    0.007526
  C     -1.425455   -1.207073    0.004685
  C     -0.044072   -1.199625    0.001570
  C      0.653092    0.007477    0.000787
  C     -0.077026    1.197958    0.003097
  C     -1.455230    1.183480    0.006542
  C      2.133198    0.101223   -0.001804
  O      2.699329    1.172759   -0.004553
  C      2.906702   -1.196315   -0.001238
  H     -4.035240   -0.986309    0.345975
  H     -4.048897    0.765894    0.607551
  H     -4.006839    0.118310   -1.028594
  H     -1.952270   -2.150979    0.006132
  H      0.483279   -2.140857    0.000860
  H      0.468117    2.130161    0.003409
  H     -2.003620    2.114579    0.009465
  H      2.660653   -1.778848    0.883859
  H      3.971390   -0.976901   -0.002401
  H      2.659175   -1.780267   -0.885009

 Total Charge           Charge          ....    0
 Multiplicity           Mult            ....    1
 Number of Electrons    NEL             ....   72
 Basis Dimension        Dim             ....  160

ORBITAL ENERGIES
----------------

  NO   OCC          E(Eh)            E(eV)
   0   2.0000     -18.734656      -509.7959
   1   2.0000      -9.968618      -271.2599
   2   2.0000      -9.917183      -269.8603
   3   2.0000      -9.903476      -269.4873
   4   2.0000      -9.899634      -269.3827
   5   2.0000      -9.899056      -269.3670
   6   2.0000      -9.898480      -269.3513
   7   2.0000      -9.897405      -269.3221
   8   2.0000      -9.893786      -269.2236
   9   2.0000      -9.884205      -268.9629
  10   2.0000      -0.934749       -25.4358
  11   2.0000      -0.788598       -21.4588
  12   2.0000      -0.715209       -19.4618
  13   2.0000      -0.680708       -18.5230
  14   2.0000      -0.666136       -18.1265
  15   2.0000      -0.625609       -17.0237
  16   2.0000      -0.552500       -15.0343
  17   2.0000      -0.544030       -14.8038
  18   2.0000      -0.497765       -13.5449
  19   2.0000      -0.442734       -12.0474
  20   2.0000      -0.428853       -11.6697
  21   2.0000      -0.402323       -10.9478
  22   2.0000      -0.401090       -10.9142
  23   2.0000      -0.394868       -10.7449
  24   2.0000      -0.388352       -10.5676
  25   2.0000      -0.381379       -10.3779
  26   2.0000      -0.367338        -9.9958
  27   2.0000      -0.345989        -9.4148
  28   2.0000      -0.341119        -9.2823
  29   2.0000      -0.336604        -9.1595
  30   2.0000      -0.314975        -8.5709
  31   2.0000      -0.310890        -8.4598
  32   2.0000      -0.301479        -8.2037
  33   2.0000      -0.238913        -6.5012
  34   2.0000      -0.228801        -6.2260
  35   2.0000      -0.197081        -5.3628
  36   0.0000      -0.082836        -2.2541
  37   0.0000      -0.042979        -1.1695
  38   0.0000       0.003716         0.1011
  39   0.0000       0.038855         1.0573
  40   0.0000       0.050640         1.3780

MULLIKEN ATOMIC CHARGES
-----------------------
   0 C :   -0.227102
   1 C :    0.055378
   2 C :   -0.097402
   3 C :   -0.120256
   4 C :    0.104690
   5 C :   -0.104896
   6 C :   -0.096786
   7 C :   -0.017054
   8 O :   -0.154215
   9 C :   -0.249285
  10 H :    0.108823
  11 H :    0.114974
  12 H :    0.126850
  13 H :    0.038451
  14 H :    0.046273
  15 H :    0.062983
  16 H :    0.042274
  17 H :    0.125066
  18 H :    0.116254
  19 H :    0.124977
Sum of atomic charges:   -0.0000000

LOEWDIN ATOMIC CHARGES
----------------------
   0 C :   -0.322643
   1 C :   -0.032070
   2 C :   -0.124186
   3 C :   -0.104854
   4 C :   -0.084889
   5 C :   -0.082154
   6 C :   -0.120632
   7 C :    0.042622
   8 O :   -0.127315
   9 C :   -0.363707
  10 H :    0.127478
  11 H :    0.131611
  12 H :    0.139120
  13 H :    0.122859
  14 H :    0.125429
  15 H :    0.133620
  16 H :    0.124031
  17 H :    0.140321
  18 H :    0.135035
  19 H :    0.140325

  Mayer bond orders larger than 0.100000
B(  0-C ,  1-C ) :   1.1011 B(  0-C , 10-H ) :   0.9430 B(  0-C , 11-H ) :   0.9390
B(  0-C , 12-H ) :   0.9290 B(  1-C ,  2-C ) :   1.3861 B(  1-C ,  6-C ) :   1.3545
B(  2-C ,  3-C ) :   1.3689 B(  2-C , 13-H ) :   0.9595 B(  3-C ,  4-C ) :   1.3454
B(  3-C , 14-H ) :   0.9474 B(  4-C ,  5-C ) :   1.3581 B(  4-C ,  7-C ) :   0.9281
B(  5-C ,  6-C ) :   1.3603 B(  5-C , 15-H ) :   0.9568 B(  6-C , 16-H ) :   0.9697
B(  7-C ,  8-O ) :   2.1727 B(  7-C ,  9-C ) :   1.1189 B(  9-C , 17-H ) :   0.9176
B(  9-C , 18-H ) :   0.9309 B(  9-C , 19-H ) :   0.9175

Dispersion correction           -0.020762515
FINAL SINGLE POINT ENERGY      -423.284244302531

DIPOLE MOMENT
-------------

Method             : SCF
Type of density    : Electron Density
Multiplicity       :   1
Irrep              :   0
Energy             :  -423.3398254365135926 Eh
Relativity type    :
Basis              : AO
                                X                 Y                 Z
Electronic contribution:      4.423506705       3.558487248       0.031572760
Nuclear contribution   :     -5.405374543      -4.378149285      -0.055186839
                        -----------------------------------------
Total Dipole Moment    :     -0.981867838      -0.819662037      -0.023614079
                        -----------------------------------------
Magnitude (a.u.)       :      1.279245063
Magnitude (Debye)      :      3.251582543

Rotational constants in cm-1:             0.121611             0.026590             0.021998
Rotational constants in MHz :          3645.793950           797.135166           659.475504

                             ****ORCA TERMINATED NORMALLY****
TOTAL RUN TIME: 0 days 0 hours 0 minutes 15 seconds 239 msec
