                         Program Version 6.0.1  -  RELEASE   -
|  1> ! r2scan-3c def2/J RI DEFGRID2 scfconv6 printgap
|  2> %output
|  3>     printlevel normal
|  4> end
|  5> * xyz 0 1
|  6> C -2.2332687215 0.2538568227 0.3600376521
|  7> C -0.9786663392 0.2486519437 -0.5115894876
|  8> C 0.0013561113 -0.7806343752 -0.0400137413
|  9> C 1.2925149603 -0.5891932677 0.1818755965
| 10> C 2.0280480866 0.7034155123 -0.007110929
| 11> H -2.7165230297 -0.7208094205 0.3411769616
| 12> H -2.9431166065 0.9970146635 0.0033718726
| 13> H -1.9761697125 0.4884975724 1.390810503
| 14> H -1.265079528 0.0187722558 -1.5433092632
| 15> H -0.5249956686 1.2395470196 -0.5016620681
| 16> H -0.4238051363 -1.7620448593 0.1284705379
| 17> H 1.8898929324 -1.418688719 0.5362059746
| 18> H 1.7934215815 1.1515826413 -0.9708660065
| 19> H 3.1015121675 0.5424722349 0.0451457234
| 20> H 1.7541982547 1.416869537 0.770869796
| 21> *
| 22>
| 23>                          ****END OF INPUT****

CARTESIAN COORDINATES (ANGSTROEM)
---------------------------------
  C     -2.233269    0.253857    0.360038
  C     -0.978666    0.248652   -0.511589
  C      0.001356   -0.780634   -0.040014
  C      1.292515   -0.589193    0.181876
  C      2.028048    0.703416   -0.007111
  H     -2.716523   -0.720809    0.341177
  H     -2.943117    0.997015    0.003372
  H     -1.976170    0.488498    1.390811
  H     -1.265080    0.018772   -1.543309
  H     -0.524996    1.239547   -0.501662
  H     -0.423805   -1.762045    0.128471
  H      1.889893   -1.418689    0.536206
  H      1.793422    1.151583   -0.970866
  H      3.101512    0.542472    0.045146
  H      1.754198    1.416870    0.770870

 Total Charge           Charge          ....    0
 Multiplicity           Mult            ....    1
 Number of Electrons    NEL             ....   40
 Basis Dimension        Dim             ....  145

ORBITAL ENERGIES
----------------

  NO   OCC          E(Eh)            E(eV)
   0   2.0000     -10.028048      -272.8770
   1   2.0000     -10.022452      -272.7248
   2   2.0000     -10.021459      -272.6978
   3   2.0000     -10.019193      -272.6361
   4   2.0000     -10.018327      -272.6125
   5   2.0000      -0.772248       -21.0139
   6   2.0000      -0.717722       -19.5302
   7   2.0000      -0.646673       -17.5969
   8   2.0000      -0.582138       -15.8408
   9   2.0000      -0.493888       -13.4394
  10   2.0000      -0.446805       -12.1582
  11   2.0000      -0.405488       -11.0339
  12   2.0000      -0.396998       -10.8029
  13   2.0000      -0.380056       -10.3418
  14   2.0000      -0.349253        -9.5036
  15   2.0000      -0.338071        -9.1994
  16   2.0000      -0.331713        -9.0264
  17   2.0000      -0.309988        -8.4352
  18   2.0000      -0.289888        -7.8882
  19   2.0000      -0.217504        -5.9186
  20   0.0000      -0.003815        -0.1038
  21   0.0000       0.092480         2.5165
  22   0.0000       0.119437         3.2500
  23   0.0000       0.129754         3.5308
  24   0.0000       0.143865         3.9148

MULLIKEN ATOMIC CHARGES
-----------------------
   0 C :   -0.455521
   1 C :   -0.248472
   2 C :   -0.143951
   3 C :   -0.144183
   4 C :   -0.497397
   5 H :    0.141505
   6 H :    0.144359
   7 H :    0.147705
   8 H :    0.149397
   9 H :    0.141002
  10 H :    0.146519
  11 H :    0.152124
  12 H :    0.159657
  13 H :    0.145213
  14 H :    0.162043
Sum of atomic charges:    0.0000000

LOEWDIN ATOMIC CHARGES
----------------------
   0 C :   -0.416139
   1 C :   -0.304713
   2 C :   -0.209456
   3 C :   -0.217048
   4 C :   -0.422833
   5 H :    0.149960
   6 H :    0.149278
   7 H :    0.152800
   8 H :    0.161288
   9 H :    0.157443
  10 H :    0.162320
  11 H :    0.159940
  12 H :    0.159400
  13 H :    0.155579
  14 H :    0.162181

  Mayer bond orders larger than 0.100000
B(  0-C ,  1-C ) :   0.8890 B(  0-C ,  5-H ) :   0.9793 B(  0-C ,  6-H ) :   0.9729
B(  0-C ,  7-H ) :   0.9782 B(  1-C ,  2-C ) :   0.9314 B(  1-C ,  8-H ) :   0.9714
B(  1-C ,  9-H ) :   0.9806 B(  2-C ,  3-C ) :   1.9475 B(  2-C , 10-H ) :   0.9381
B(  3-C ,  4-C ) :   0.8929 B(  3-C , 11-H ) :   0.9471 B(  4-C , 12-H ) :   0.9858
B(  4-C , 13-H ) :   0.9738 B(  4-C , 14-H ) :   0.9713

Dispersion correction           -0.003258358
FINAL SINGLE POINT ENERGY      -196.459272856752

DIPOLE MOMENT
-------------

Method             : SCF
Type of density    : Electron Density
Multiplicity       :   1
Irrep              :   0
Energy             :  -196.4621535619880603 Eh
Relativity type    :
Basis              : AO
                                X                 Y                 Z
Electronic contribution:      1.204200776      -1.697451649      -0.221798337
Nuclear contribution   :     -1.229617221       1.832432175       0.187833404
                        -----------------------------------------
Total Dipole Moment    :     -0.025416445       0.134980527      -0.033964933
                        -----------------------------------------
Magnitude (a.u.)       :      0.141489770
Magnitude (Debye)      :      0.359638414

Rotational constants in cm-1:             0.394255             0.086875             0.078723
Rotational constants in MHz :         11819.467352          2604.445469          2360.066936

                             ****ORCA TERMINATED NORMALLY****
TOTAL RUN TIME: 0 days 0 hours 0 minutes 10 seconds 483 msec
