                         Program Version 6.0.1  -  RELEASE   -
|  1> ! r2scan-3c def2/J RI DEFGRID2 scfconv6 printgap
|  2> %output
|  3>     printlevel normal
|  4> end
|  5> * xyz 0 1
|  6> C -1.5622867017 0.9173168328 0.2382226553
|  7> C -1.3286953399 -0.5145899266 -0.2253999949
|  8> C 0.0813734215 -1.0056610168 -0.3888166414
|  9> C 1.2659165779 -0.4701436475 -0.1328857695
| 10> C 1.6348496686 0.862565967 0.4374636886
| 11> H -1.0264053941 1.6216795771 -0.3920743085
| 12> H -1.2553420687 1.0520507099 1.2720756186
| 13> H -2.6252793262 1.1459017656 0.1759656067
| 14> H -1.8352946641 -1.1975521408 0.4663135713
| 15> H -1.8169728932 -0.6458946573 -1.1979824314
| 16> H 0.0899918889 -2.005595957 -0.8121758058
| 17> H 2.1320004471 -1.0717825862 -0.3872577418
| 18> H 0.8393396963 1.3078673202 1.0208458807
| 19> H 1.8997789594 1.5487131905 -0.3686933531
| 20> H 2.5118709712 0.7532516545 1.0740379483
| 21> *
| 22>
| 23>                          ****END OF INPUT****

CARTESIAN COORDINATES (ANGSTROEM)
---------------------------------
  C     -1.562287    0.917317    0.238223
  C     -1.328695   -0.514590   -0.225400
  C      0.081373   -1.005661   -0.388817
  C      1.265917   -0.470144   -0.132886
  C      1.634850    0.862566    0.437464
  H     -1.026405    1.621680   -0.392074
  H     -1.255342    1.052051    1.272076
  H     -2.625279    1.145902    0.175966
  H     -1.835295   -1.197552    0.466314
  H     -1.816973   -0.645895   -1.197982
  H      0.089992   -2.005596   -0.812176
  H      2.132000   -1.071783   -0.387258
  H      0.839340    1.307867    1.020846
  H      1.899779    1.548713   -0.368693
  H      2.511871    0.753252    1.074038

 Total Charge           Charge          ....    0
 Multiplicity           Mult            ....    1
 Number of Electrons    NEL             ....   40
 Basis Dimension        Dim             ....  145

ORBITAL ENERGIES
----------------

  NO   OCC          E(Eh)            E(eV)
   0   2.0000     -10.031540      -272.9721
   1   2.0000     -10.022970      -272.7389
   2   2.0000     -10.021381      -272.6956
   3   2.0000     -10.019361      -272.6407
   4   2.0000     -10.018157      -272.6079
   5   2.0000      -0.769060       -20.9272
   6   2.0000      -0.715890       -19.4804
   7   2.0000      -0.655607       -17.8400
   8   2.0000      -0.585937       -15.9441
   9   2.0000      -0.485957       -13.2236
  10   2.0000      -0.438599       -11.9349
  11   2.0000      -0.418491       -11.3877
  12   2.0000      -0.387478       -10.5438
  13   2.0000      -0.376948       -10.2573
  14   2.0000      -0.358184        -9.7467
  15   2.0000      -0.351530        -9.5656
  16   2.0000      -0.325076        -8.8458
  17   2.0000      -0.305325        -8.3083
  18   2.0000      -0.284222        -7.7341
  19   2.0000      -0.216417        -5.8890
  20   0.0000       0.004399         0.1197
  21   0.0000       0.084557         2.3009
  22   0.0000       0.119493         3.2516
  23   0.0000       0.127385         3.4663
  24   0.0000       0.139937         3.8079

MULLIKEN ATOMIC CHARGES
-----------------------
   0 C :   -0.513443
   1 C :   -0.204789
   2 C :   -0.168079
   3 C :   -0.118942
   4 C :   -0.473200
   5 H :    0.157707
   6 H :    0.148796
   7 H :    0.143935
   8 H :    0.143555
   9 H :    0.139582
  10 H :    0.144011
  11 H :    0.144753
  12 H :    0.155037
  13 H :    0.158670
  14 H :    0.142405
Sum of atomic charges:    0.0000000

LOEWDIN ATOMIC CHARGES
----------------------
   0 C :   -0.424980
   1 C :   -0.302895
   2 C :   -0.211408
   3 C :   -0.217779
   4 C :   -0.415174
   5 H :    0.153952
   6 H :    0.148838
   7 H :    0.150807
   8 H :    0.161165
   9 H :    0.160014
  10 H :    0.162151
  11 H :    0.160130
  12 H :    0.158485
  13 H :    0.161275
  14 H :    0.155419

  Mayer bond orders larger than 0.100000
B(  0-C ,  1-C ) :   0.8819 B(  0-C ,  5-H ) :   0.9815 B(  0-C ,  6-H ) :   0.9796
B(  0-C ,  7-H ) :   0.9697 B(  1-C ,  2-C ) :   0.9426 B(  1-C ,  8-H ) :   0.9647
B(  1-C ,  9-H ) :   0.9713 B(  2-C ,  3-C ) :   1.9406 B(  2-C , 10-H ) :   0.9352
B(  3-C ,  4-C ) :   0.9011 B(  3-C , 11-H ) :   0.9432 B(  4-C , 12-H ) :   0.9853
B(  4-C , 13-H ) :   0.9684 B(  4-C , 14-H ) :   0.9692

Dispersion correction           -0.003385389
FINAL SINGLE POINT ENERGY      -196.454379936020

DIPOLE MOMENT
-------------

Method             : SCF
Type of density    : Electron Density
Multiplicity       :   1
Irrep              :   0
Energy             :  -196.4574194345574085 Eh
Relativity type    :
Basis              : AO
                                X                 Y                 Z
Electronic contribution:      0.918214963      -2.262514877      -0.786423866
Nuclear contribution   :     -1.019138128       2.353512274       0.798428332
                        -----------------------------------------
Total Dipole Moment    :     -0.100923164       0.090997396       0.012004465
                        -----------------------------------------
Magnitude (a.u.)       :      0.136418908
Magnitude (Debye)      :      0.346749307

Rotational constants in cm-1:             0.256425             0.121492             0.086452
Rotational constants in MHz :          7687.420980          3642.224715          2591.766430

                             ****ORCA TERMINATED NORMALLY****
TOTAL RUN TIME: 0 days 0 hours 0 minutes 9 seconds 334 msec
