                         Program Version 6.0.1  -  RELEASE   -
|  1> ! pbe def2-sv(p) def2/J RI DEFGRID1 loosescf d4 GCP(DFT/SV(P)) printgap
|  2> %output
|  3>     printlevel normal
|  4> end
|  5> * xyz 0 1
|  6> C 1.5073719108 0.5548555958 0.0239859127
|  7> C 0.8188249967 -0.5696988598 -0.0291581209
|  8> C -0.6788020924 -0.6667670504 0.0192620489
|  9> O -1.3546931148 0.5639952721 0.0283177513
| 10> H 2.5824374962 0.5656837966 -0.0191581235
| 11> H 1.0249110896 1.5126603096 0.1331139513
| 12> H 1.3167091598 -1.525666664 -0.1183100036
| 13> H -0.979072062 -1.1764975488 0.9411396031
| 14> H -1.0187880496 -1.2878830737 -0.8272515259
| 15> H -1.0535734678 1.081497336 -0.7269563717
| 16> *
| 17>
| 18>                          ****END OF INPUT****

CARTESIAN COORDINATES (ANGSTROEM)
---------------------------------
  C      1.507372    0.554856    0.023986
  C      0.818825   -0.569699   -0.029158
  C     -0.678802   -0.666767    0.019262
  O     -1.354693    0.563995    0.028318
  H      2.582437    0.565684   -0.019158
  H      1.024911    1.512660    0.133114
  H      1.316709   -1.525667   -0.118310
  H     -0.979072   -1.176498    0.941140
  H     -1.018788   -1.287883   -0.827252
  H     -1.053573    1.081497   -0.726956

 Total Charge           Charge          ....    0
 Multiplicity           Mult            ....    1
 Number of Electrons    NEL             ....   32
 Basis Dimension        Dim             ....   68

ORBITAL ENERGIES
----------------

  NO   OCC          E(Eh)            E(eV)
   0   2.0000     -18.747690      -510.1506
   1   2.0000      -9.936613      -270.3890
   2   2.0000      -9.893595      -269.2184
   3   2.0000      -9.884585      -268.9732
   4   2.0000      -0.926515       -25.2118
   5   2.0000      -0.701822       -19.0975
   6   2.0000      -0.613893       -16.7049
   7   2.0000      -0.509503       -13.8643
   8   2.0000      -0.446903       -12.1608
   9   2.0000      -0.431632       -11.7453
  10   2.0000      -0.397568       -10.8184
  11   2.0000      -0.357353        -9.7241
  12   2.0000      -0.330065        -8.9815
  13   2.0000      -0.282762        -7.6944
  14   2.0000      -0.239423        -6.5150
  15   2.0000      -0.219100        -5.9620
  16   0.0000      -0.019014        -0.5174
  17   0.0000       0.033215         0.9038
  18   0.0000       0.058598         1.5945
  19   0.0000       0.086147         2.3442
  20   0.0000       0.105661         2.8752

MULLIKEN ATOMIC CHARGES
-----------------------
   0 C :   -0.209720
   1 C :   -0.175598
   2 C :    0.052355
   3 O :   -0.426327
   4 H :    0.103126
   5 H :    0.089403
   6 H :    0.077881
   7 H :    0.107834
   8 H :    0.084179
   9 H :    0.296867
Sum of atomic charges:   -0.0000000

LOEWDIN ATOMIC CHARGES
----------------------
   0 C :   -0.265266
   1 C :   -0.162595
   2 C :   -0.120543
   3 O :   -0.331553
   4 H :    0.124837
   5 H :    0.116798
   6 H :    0.123760
   7 H :    0.126965
   8 H :    0.104349
   9 H :    0.283248

  Mayer bond orders larger than 0.100000
B(  0-C ,  1-C ) :   2.0701 B(  0-C ,  4-H ) :   0.9252 B(  0-C ,  5-H ) :   0.9097
B(  1-C ,  2-C ) :   1.0486 B(  1-C ,  6-H ) :   0.9203 B(  2-C ,  3-O ) :   1.1021
B(  2-C ,  7-H ) :   0.9109 B(  2-C ,  8-H ) :   0.9135 B(  3-O ,  9-H ) :   0.8444

Dispersion correction           -0.005435030
FINAL SINGLE POINT ENERGY      -192.664200012327

DIPOLE MOMENT
-------------

Method             : SCF
Type of density    : Electron Density
Multiplicity       :   1
Irrep              :   0
Energy             :  -192.7040574098724051 Eh
Relativity type    :
Basis              : AO
                                X                 Y                 Z
Electronic contribution:     -1.428217503       0.577857031       0.151909203
Nuclear contribution   :      1.736746016      -0.770508460      -0.578825300
                        -----------------------------------------
Total Dipole Moment    :      0.308528513      -0.192651429      -0.426916098
                        -----------------------------------------
Magnitude (a.u.)       :      0.560858066
Magnitude (Debye)      :      1.425587911

Rotational constants in cm-1:             0.572834             0.198134             0.153048
Rotational constants in MHz :         17173.143567          5939.914584          4588.259018

                             ****ORCA TERMINATED NORMALLY****
TOTAL RUN TIME: 0 days 0 hours 1 minutes 14 seconds 191 msec
