                         Program Version 6.0.1  -  RELEASE   -
|  1> ! r2scan-3c def2/J RI DEFGRID2 scfconv6 printgap
|  2> %output
|  3>     printlevel normal
|  4> end
|  5> * xyz 0 1
|  6> C -3.4056520451 -0.1254540403 0.1603500767
|  7> O -2.2172969701 0.0325209824 -0.6038792471
|  8> C -1.0450260941 0.0157106699 0.0496035286
|  9> O -0.9550397213 -0.117140904 1.2419269208
| 10> C 0.0932634572 0.1826792467 -0.9348566712
| 11> C 0.9422795498 -1.0965885035 -0.9954144363
| 12> C 1.7470240849 -1.3048162897 0.2829719592
| 13> C 2.6404193574 -0.0981593068 0.5495799802
| 14> C 1.7838053033 1.1554243215 0.6899238824
| 15> C 0.9714351524 1.3906381677 -0.5792897774
| 16> H -3.190012882 0.0318567367 1.2188924093
| 17> H -3.7958902515 -1.1334828514 0.0109533574
| 18> H -4.1263852761 0.608338455 -0.197034448
| 19> H -0.3677469137 0.3496036906 -1.9139231898
| 20> H 0.2944444842 -1.9571596271 -1.1778889518
| 21> H 1.6267142267 -1.0066586506 -1.8428980469
| 22> H 1.0651975764 -1.436655019 1.1237495779
| 23> H 2.3511049373 -2.209729415 0.1882663735
| 24> H 3.217385305 -0.2575292064 1.4621756084
| 25> H 3.3451244152 0.0275048768 -0.2770303657
| 26> H 1.1060354589 1.032459336 1.5348274753
| 27> H 2.4153849082 2.0254234499 0.8820945092
| 28> H 0.3437579553 2.2771937497 -0.4634615927
| 29> H 1.6518792446 1.5688096833 -1.4161242543
| 30> *
| 31>
| 32>                          ****END OF INPUT****

CARTESIAN COORDINATES (ANGSTROEM)
---------------------------------
  C     -3.405652   -0.125454    0.160350
  O     -2.217297    0.032521   -0.603879
  C     -1.045026    0.015711    0.049604
  O     -0.955040   -0.117141    1.241927
  C      0.093263    0.182679   -0.934857
  C      0.942280   -1.096589   -0.995414
  C      1.747024   -1.304816    0.282972
  C      2.640419   -0.098159    0.549580
  C      1.783805    1.155424    0.689924
  C      0.971435    1.390638   -0.579290
  H     -3.190013    0.031857    1.218892
  H     -3.795890   -1.133483    0.010953
  H     -4.126385    0.608338   -0.197034
  H     -0.367747    0.349604   -1.913923
  H      0.294444   -1.957160   -1.177889
  H      1.626714   -1.006659   -1.842898
  H      1.065198   -1.436655    1.123750
  H      2.351105   -2.209729    0.188266
  H      3.217385   -0.257529    1.462176
  H      3.345124    0.027505   -0.277030
  H      1.106035    1.032459    1.534827
  H      2.415385    2.025423    0.882095
  H      0.343758    2.277194   -0.463462
  H      1.651879    1.568810   -1.416124

 Total Charge           Charge          ....    0
 Multiplicity           Mult            ....    1
 Number of Electrons    NEL             ....   78
 Basis Dimension        Dim             ....  270

ORBITAL ENERGIES
----------------

  NO   OCC          E(Eh)            E(eV)
   0   2.0000     -18.997876      -516.9585
   1   2.0000     -18.933498      -515.2067
   2   2.0000     -10.152067      -276.2518
   3   2.0000     -10.082330      -274.3542
   4   2.0000     -10.045554      -273.3534
   5   2.0000     -10.031852      -272.9806
   6   2.0000     -10.030635      -272.9475
   7   2.0000     -10.017516      -272.5905
   8   2.0000     -10.016436      -272.5611
   9   2.0000     -10.015060      -272.5236
  10   2.0000      -1.072716       -29.1901
  11   2.0000      -0.984107       -26.7789
  12   2.0000      -0.805553       -21.9202
  13   2.0000      -0.732562       -19.9340
  14   2.0000      -0.708965       -19.2919
  15   2.0000      -0.688093       -18.7239
  16   2.0000      -0.592254       -16.1160
  17   2.0000      -0.574266       -15.6266
  18   2.0000      -0.539667       -14.6851
  19   2.0000      -0.518391       -14.1061
  20   2.0000      -0.458348       -12.4723
  21   2.0000      -0.453308       -12.3351
  22   2.0000      -0.452701       -12.3186
  23   2.0000      -0.433425       -11.7941
  24   2.0000      -0.412849       -11.2342
  25   2.0000      -0.408865       -11.1258
  26   2.0000      -0.393630       -10.7112
  27   2.0000      -0.367428        -9.9982
  28   2.0000      -0.347564        -9.4577
  29   2.0000      -0.346895        -9.4395
  30   2.0000      -0.340840        -9.2747
  31   2.0000      -0.337847        -9.1933
  32   2.0000      -0.314243        -8.5510
  33   2.0000      -0.310225        -8.4417
  34   2.0000      -0.296084        -8.0569
  35   2.0000      -0.273427        -7.4403
  36   2.0000      -0.267798        -7.2872
  37   2.0000      -0.267473        -7.2783
  38   2.0000      -0.233135        -6.3439
  39   0.0000      -0.015531        -0.4226
  40   0.0000       0.065439         1.7807
  41   0.0000       0.085225         2.3191
  42   0.0000       0.104226         2.8361
  43   0.0000       0.112379         3.0580

MULLIKEN ATOMIC CHARGES
-----------------------
   0 C :   -0.317587
   1 O :   -0.184228
   2 C :    0.296626
   3 O :   -0.436361
   4 C :    0.066838
   5 C :   -0.381767
   6 C :   -0.269783
   7 C :   -0.338793
   8 C :   -0.272480
   9 C :   -0.382858
  10 H :    0.185194
  11 H :    0.147509
  12 H :    0.146700
  13 H :    0.172434
  14 H :    0.144649
  15 H :    0.160803
  16 H :    0.183568
  17 H :    0.146283
  18 H :    0.150251
  19 H :    0.144532
  20 H :    0.187854
  21 H :    0.145220
  22 H :    0.144176
  23 H :    0.161221
Sum of atomic charges:   -0.0000000

LOEWDIN ATOMIC CHARGES
----------------------
   0 C :   -0.050722
   1 O :   -0.608810
   2 C :    0.366576
   3 O :   -0.448179
   4 C :   -0.155690
   5 C :   -0.269862
   6 C :   -0.298479
   7 C :   -0.299514
   8 C :   -0.298844
   9 C :   -0.271283
  10 H :    0.192451
  11 H :    0.171337
  12 H :    0.173384
  13 H :    0.185134
  14 H :    0.162499
  15 H :    0.160875
  16 H :    0.175169
  17 H :    0.153387
  18 H :    0.155979
  19 H :    0.151383
  20 H :    0.176982
  21 H :    0.152963
  22 H :    0.162714
  23 H :    0.160551

  Mayer bond orders larger than 0.100000
B(  0-C ,  1-O ) :   0.8465 B(  0-C , 10-H ) :   0.9691 B(  0-C , 11-H ) :   0.9610
B(  0-C , 12-H ) :   0.9676 B(  1-O ,  2-C ) :   1.0642 B(  2-C ,  3-O ) :   1.8197
B(  2-C ,  4-C ) :   0.9308 B(  4-C ,  5-C ) :   0.9052 B(  4-C ,  9-C ) :   0.9052
B(  4-C , 13-H ) :   0.9271 B(  5-C ,  6-C ) :   0.9105 B(  5-C , 14-H ) :   0.9419
B(  5-C , 15-H ) :   0.9850 B(  6-C ,  7-C ) :   0.9051 B(  6-C , 16-H ) :   0.9794
B(  6-C , 17-H ) :   0.9372 B(  7-C ,  8-C ) :   0.9037 B(  7-C , 18-H ) :   0.9463
B(  7-C , 19-H ) :   1.0129 B(  8-C ,  9-C ) :   0.9050 B(  8-C , 20-H ) :   0.9813
B(  8-C , 21-H ) :   0.9376 B(  9-C , 22-H ) :   0.9447 B(  9-C , 23-H ) :   0.9868

Dispersion correction           -0.007832174
FINAL SINGLE POINT ENERGY      -463.632593681649

DIPOLE MOMENT
-------------

Method             : SCF
Type of density    : Electron Density
Multiplicity       :   1
Irrep              :   0
Energy             :  -463.6383665689984355 Eh
Relativity type    :
Basis              : AO
                                X                 Y                 Z
Electronic contribution:     -5.782655535       0.112971869       0.273400704
Nuclear contribution   :      5.522857927      -0.076331234      -0.804307733
                        -----------------------------------------
Total Dipole Moment    :     -0.259797608       0.036640635      -0.530907028
                        -----------------------------------------
Magnitude (a.u.)       :      0.592198958
Magnitude (Debye)      :      1.505250127

Rotational constants in cm-1:             0.089806             0.028314             0.027506
Rotational constants in MHz :          2692.306726           848.847324           824.599837

                             ****ORCA TERMINATED NORMALLY****
TOTAL RUN TIME: 0 days 0 hours 0 minutes 29 seconds 33 msec
