                         Program Version 6.0.1  -  RELEASE   -
|  1> ! pbe def2-sv(p) def2/J RI DEFGRID1 loosescf d4 GCP(DFT/SV(P)) printgap
|  2> %output
|  3>     printlevel normal
|  4> end
|  5> * xyz 0 1
|  6> C -2.0775983038 -1.2352899376 -0.198376526
|  7> C -1.2547556304 -0.3563706645 0.7659608611
|  8> H -1.8564232727 -0.1764552064 1.6621439871
|  9> C -0.9311690298 1.0091561207 0.1349719505
| 10> H -1.2129786974 0.9898731262 -0.9321862563
| 11> C 0.5768345703 1.2885009499 0.2305412801
| 12> H 0.8489919556 1.393737269 1.2892030779
| 13> C 1.3361926912 0.1089942032 -0.3862846711
| 14> H 1.0040716899 -0.0490439157 -1.419730105
| 15> C 1.0042160395 -1.1619438256 0.4302597588
| 16> H 1.8429590236 -1.3781621292 1.1115189014
| 17> O -0.096143584 -1.0124789102 1.2790225808
| 18> O 0.8377088585 -2.2250914845 -0.4705062892
| 19> O 2.7130360902 0.3402704126 -0.4740355311
| 20> O 0.903819916 2.5184145029 -0.3640664027
| 21> O -1.6641029468 2.0038928337 0.8038062019
| 22> O -1.5628915833 -1.2977513262 -1.4992880131
| 23> H -3.071999118 -0.7930357793 -0.2877413372
| 24> H -2.1731861779 -2.2377514829 0.2413679246
| 25> H 0.6996245576 -3.042557329 0.0244818298
| 26> H 3.0350051352 0.6962798932 0.3631090154
| 27> H 0.9139456005 2.4133470577 -1.3232817535
| 28> H -1.253952233 2.8550592552 0.5979366503
| 29> H -0.6928995416 -1.7315603955 -1.4607394116
| 30> *
| 31>
| 32>                          ****END OF INPUT****

CARTESIAN COORDINATES (ANGSTROEM)
---------------------------------
  C     -2.077598   -1.235290   -0.198377
  C     -1.254756   -0.356371    0.765961
  H     -1.856423   -0.176455    1.662144
  C     -0.931169    1.009156    0.134972
  H     -1.212979    0.989873   -0.932186
  C      0.576835    1.288501    0.230541
  H      0.848992    1.393737    1.289203
  C      1.336193    0.108994   -0.386285
  H      1.004072   -0.049044   -1.419730
  C      1.004216   -1.161944    0.430260
  H      1.842959   -1.378162    1.111519
  O     -0.096144   -1.012479    1.279023
  O      0.837709   -2.225091   -0.470506
  O      2.713036    0.340270   -0.474036
  O      0.903820    2.518415   -0.364066
  O     -1.664103    2.003893    0.803806
  O     -1.562892   -1.297751   -1.499288
  H     -3.071999   -0.793036   -0.287741
  H     -2.173186   -2.237751    0.241368
  H      0.699625   -3.042557    0.024482
  H      3.035005    0.696280    0.363109
  H      0.913946    2.413347   -1.323282
  H     -1.253952    2.855059    0.597937
  H     -0.692900   -1.731560   -1.460739

 Total Charge           Charge          ....    0
 Multiplicity           Mult            ....    1
 Number of Electrons    NEL             ....   96
 Basis Dimension        Dim             ....  192

ORBITAL ENERGIES
----------------

  NO   OCC          E(Eh)            E(eV)
   0   2.0000     -18.789953      -511.3006
   1   2.0000     -18.777645      -510.9657
   2   2.0000     -18.766735      -510.6688
   3   2.0000     -18.761496      -510.5263
   4   2.0000     -18.745521      -510.0916
   5   2.0000     -18.739244      -509.9208
   6   2.0000     -10.000251      -272.1207
   7   2.0000      -9.953987      -270.8618
   8   2.0000      -9.949586      -270.7420
   9   2.0000      -9.943668      -270.5810
  10   2.0000      -9.939116      -270.4571
  11   2.0000      -9.929767      -270.2027
  12   2.0000      -0.997011       -27.1301
  13   2.0000      -0.957046       -26.0426
  14   2.0000      -0.938409       -25.5354
  15   2.0000      -0.930175       -25.3114
  16   2.0000      -0.918090       -24.9825
  17   2.0000      -0.916270       -24.9330
  18   2.0000      -0.707135       -19.2421
  19   2.0000      -0.699490       -19.0341
  20   2.0000      -0.625481       -17.0202
  21   2.0000      -0.587338       -15.9823
  22   2.0000      -0.582806       -15.8590
  23   2.0000      -0.538290       -14.6476
  24   2.0000      -0.507647       -13.8138
  25   2.0000      -0.499374       -13.5887
  26   2.0000      -0.468620       -12.7518
  27   2.0000      -0.460987       -12.5441
  28   2.0000      -0.446967       -12.1626
  29   2.0000      -0.437378       -11.9017
  30   2.0000      -0.426496       -11.6055
  31   2.0000      -0.412109       -11.2141
  32   2.0000      -0.394653       -10.7391
  33   2.0000      -0.366769        -9.9803
  34   2.0000      -0.362976        -9.8771
  35   2.0000      -0.356447        -9.6994
  36   2.0000      -0.345052        -9.3893
  37   2.0000      -0.321611        -8.7515
  38   2.0000      -0.309576        -8.4240
  39   2.0000      -0.292261        -7.9528
  40   2.0000      -0.287717        -7.8292
  41   2.0000      -0.277121        -7.5409
  42   2.0000      -0.273081        -7.4309
  43   2.0000      -0.249445        -6.7877
  44   2.0000      -0.243673        -6.6307
  45   2.0000      -0.230881        -6.2826
  46   2.0000      -0.212523        -5.7830
  47   2.0000      -0.203514        -5.5379
  48   0.0000       0.011060         0.3010
  49   0.0000       0.020767         0.5651
  50   0.0000       0.025465         0.6929
  51   0.0000       0.047640         1.2963
  52   0.0000       0.055077         1.4987

MULLIKEN ATOMIC CHARGES
-----------------------
   0 C :    0.017418
   1 C :    0.047693
   2 H :    0.083610
   3 C :    0.057622
   4 H :    0.062709
   5 C :    0.021632
   6 H :    0.059611
   7 C :    0.000042
   8 H :    0.066398
   9 C :    0.204816
  10 H :    0.061247
  11 O :   -0.305780
  12 O :   -0.401502
  13 O :   -0.398671
  14 O :   -0.409128
  15 O :   -0.413586
  16 O :   -0.443387
  17 H :    0.097448
  18 H :    0.069728
  19 H :    0.311688
  20 H :    0.303475
  21 H :    0.304561
  22 H :    0.300013
  23 H :    0.302342
Sum of atomic charges:   -0.0000000

LOEWDIN ATOMIC CHARGES
----------------------
   0 C :   -0.136461
   1 C :   -0.067390
   2 H :    0.129504
   3 C :   -0.078522
   4 H :    0.103084
   5 C :   -0.091477
   6 H :    0.114349
   7 C :   -0.092810
   8 H :    0.118057
   9 C :   -0.008102
  10 H :    0.102679
  11 O :   -0.142784
  12 O :   -0.299799
  13 O :   -0.302857
  14 O :   -0.307997
  15 O :   -0.322481
  16 O :   -0.346253
  17 H :    0.121831
  18 H :    0.095758
  19 H :    0.291063
  20 H :    0.286798
  21 H :    0.289732
  22 H :    0.280625
  23 H :    0.263453

  Mayer bond orders larger than 0.100000
B(  0-C ,  1-C ) :   1.0340 B(  0-C , 16-O ) :   1.0955 B(  0-C , 17-H ) :   0.9197
B(  0-C , 18-H ) :   0.9118 B(  1-C ,  2-H ) :   0.8771 B(  1-C ,  3-C ) :   0.9825
B(  1-C , 11-O ) :   0.9974 B(  3-C ,  4-H ) :   0.8698 B(  3-C ,  5-C ) :   1.0184
B(  3-C , 15-O ) :   1.0796 B(  5-C ,  6-H ) :   0.8557 B(  5-C ,  7-C ) :   1.0131
B(  5-C , 14-O ) :   1.0567 B(  7-C ,  8-H ) :   0.8661 B(  7-C ,  9-C ) :   0.9693
B(  7-C , 13-O ) :   1.0658 B(  9-C , 10-H ) :   0.8886 B(  9-C , 11-O ) :   1.0912
B(  9-C , 12-O ) :   1.0591 B( 12-O , 19-H ) :   0.8331 B( 12-O , 23-H ) :   0.1185
B( 13-O , 20-H ) :   0.8476 B( 14-O , 21-H ) :   0.8466 B( 15-O , 22-H ) :   0.8336
B( 16-O , 23-H ) :   0.7873

Dispersion correction           -0.025311021
FINAL SINGLE POINT ENERGY      -685.696910580868

DIPOLE MOMENT
-------------

Method             : SCF
Type of density    : Electron Density
Multiplicity       :   1
Irrep              :   0
Energy             :  -685.8299441961544289 Eh
Relativity type    :
Basis              : AO
                                X                 Y                 Z
Electronic contribution:      2.336769147       0.628840851       0.552680742
Nuclear contribution   :     -1.781561509      -0.989865159      -0.136378881
                        -----------------------------------------
Total Dipole Moment    :      0.555207638      -0.361024307       0.416301861
                        -----------------------------------------
Magnitude (a.u.)       :      0.782241211
Magnitude (Debye)      :      1.988299145

Rotational constants in cm-1:             0.036164             0.032481             0.021495
Rotational constants in MHz :          1084.155273           973.769192           644.396051

                             ****ORCA TERMINATED NORMALLY****
TOTAL RUN TIME: 0 days 0 hours 26 minutes 7 seconds 72 msec
