                         Program Version 6.0.1  -  RELEASE   -
|  1> ! pbe def2-sv(p) def2/J RI DEFGRID1 loosescf d4 GCP(DFT/SV(P)) printgap
|  2> %output
|  3>     printlevel normal
|  4> end
|  5> * xyz 0 1
|  6> C -2.2151398844 -1.1985662772 0.0998292504
|  7> C -0.8455362558 -0.5821320894 0.4352238161
|  8> H -0.8218923206 -0.326072418 1.5054072854
|  9> C -0.5871527518 0.6937865365 -0.386820325
| 10> H -0.6465062798 0.4466392937 -1.4541127604
| 11> C 0.8162406084 1.2767195795 -0.0937702778
| 12> H 0.7253016071 2.0729848224 0.6546532832
| 13> C 1.7475513296 0.1984329237 0.4964079691
| 14> H 2.782068595 0.4621787033 0.2288968643
| 15> C 1.4088630946 -1.1520026697 -0.1499237882
| 16> H 2.0869938763 -1.9427974117 0.2193271905
| 17> O 0.1259971336 -1.5920050796 0.1724958148
| 18> O 1.573982926 -0.9956071627 -1.5365027027
| 19> O 1.5751843663 0.1698503671 1.8883434915
| 20> O 1.3843096973 1.8729533753 -1.2221081298
| 21> O -1.6061937096 1.642500926 -0.1758649229
| 22> O -3.2845935109 -0.4314095611 0.5682327598
| 23> H -2.2831688077 -2.1729868555 0.5884863747
| 24> H -2.277901141 -1.3486256053 -0.9882197598
| 25> H 1.2486938983 -1.7928019042 -1.9724230694
| 26> H 2.1133251032 -0.5344686357 2.267485357
| 27> H 1.5665542384 1.1764695941 -1.8679804881
| 28> H -1.4974279401 2.028697732 0.702095816
| 29> H -3.1950843909 0.4558538923 0.1863369182
| 30> *
| 31>
| 32>                          ****END OF INPUT****

CARTESIAN COORDINATES (ANGSTROEM)
---------------------------------
  C     -2.215140   -1.198566    0.099829
  C     -0.845536   -0.582132    0.435224
  H     -0.821892   -0.326072    1.505407
  C     -0.587153    0.693787   -0.386820
  H     -0.646506    0.446639   -1.454113
  C      0.816241    1.276720   -0.093770
  H      0.725302    2.072985    0.654653
  C      1.747551    0.198433    0.496408
  H      2.782069    0.462179    0.228897
  C      1.408863   -1.152003   -0.149924
  H      2.086994   -1.942797    0.219327
  O      0.125997   -1.592005    0.172496
  O      1.573983   -0.995607   -1.536503
  O      1.575184    0.169850    1.888343
  O      1.384310    1.872953   -1.222108
  O     -1.606194    1.642501   -0.175865
  O     -3.284594   -0.431410    0.568233
  H     -2.283169   -2.172987    0.588486
  H     -2.277901   -1.348626   -0.988220
  H      1.248694   -1.792802   -1.972423
  H      2.113325   -0.534469    2.267485
  H      1.566554    1.176470   -1.867980
  H     -1.497428    2.028698    0.702096
  H     -3.195084    0.455854    0.186337

 Total Charge           Charge          ....    0
 Multiplicity           Mult            ....    1
 Number of Electrons    NEL             ....   96
 Basis Dimension        Dim             ....  192

ORBITAL ENERGIES
----------------

  NO   OCC          E(Eh)            E(eV)
   0   2.0000     -18.784072      -511.1406
   1   2.0000     -18.780522      -511.0440
   2   2.0000     -18.771896      -510.8092
   3   2.0000     -18.771222      -510.7909
   4   2.0000     -18.744051      -510.0516
   5   2.0000     -18.731096      -509.6990
   6   2.0000     -10.000593      -272.1300
   7   2.0000      -9.953494      -270.8483
   8   2.0000      -9.948104      -270.7017
   9   2.0000      -9.947510      -270.6855
  10   2.0000      -9.940065      -270.4829
  11   2.0000      -9.924577      -270.0615
  12   2.0000      -0.997402       -27.1407
  13   2.0000      -0.953476       -25.9454
  14   2.0000      -0.948124       -25.7998
  15   2.0000      -0.931418       -25.3452
  16   2.0000      -0.922251       -25.0957
  17   2.0000      -0.909591       -24.7512
  18   2.0000      -0.705400       -19.1949
  19   2.0000      -0.697829       -18.9889
  20   2.0000      -0.618389       -16.8272
  21   2.0000      -0.601436       -16.3659
  22   2.0000      -0.567513       -15.4428
  23   2.0000      -0.534321       -14.5396
  24   2.0000      -0.511687       -13.9237
  25   2.0000      -0.499776       -13.5996
  26   2.0000      -0.476631       -12.9698
  27   2.0000      -0.465791       -12.6748
  28   2.0000      -0.447641       -12.1809
  29   2.0000      -0.433862       -11.8060
  30   2.0000      -0.421956       -11.4820
  31   2.0000      -0.404360       -11.0032
  32   2.0000      -0.387158       -10.5351
  33   2.0000      -0.373800       -10.1716
  34   2.0000      -0.365308        -9.9405
  35   2.0000      -0.356215        -9.6931
  36   2.0000      -0.350193        -9.5292
  37   2.0000      -0.322961        -8.7882
  38   2.0000      -0.310793        -8.4571
  39   2.0000      -0.300293        -8.1714
  40   2.0000      -0.285277        -7.7628
  41   2.0000      -0.281188        -7.6515
  42   2.0000      -0.263491        -7.1699
  43   2.0000      -0.253283        -6.8922
  44   2.0000      -0.231290        -6.2937
  45   2.0000      -0.229878        -6.2553
  46   2.0000      -0.213361        -5.8059
  47   2.0000      -0.201502        -5.4832
  48   0.0000       0.006334         0.1724
  49   0.0000       0.015188         0.4133
  50   0.0000       0.021983         0.5982
  51   0.0000       0.047031         1.2798
  52   0.0000       0.068796         1.8720

MULLIKEN ATOMIC CHARGES
-----------------------
   0 C :    0.102711
   1 C :    0.008405
   2 H :    0.062917
   3 C :    0.052653
   4 H :    0.049437
   5 C :    0.113510
   6 H :    0.061531
   7 C :    0.006876
   8 H :    0.081573
   9 C :    0.150407
  10 H :    0.059040
  11 O :   -0.302951
  12 O :   -0.407075
  13 O :   -0.406535
  14 O :   -0.422050
  15 O :   -0.420623
  16 O :   -0.445850
  17 H :    0.087663
  18 H :    0.052045
  19 H :    0.307909
  20 H :    0.305938
  21 H :    0.304180
  22 H :    0.307183
  23 H :    0.291107
Sum of atomic charges:   -0.0000000

LOEWDIN ATOMIC CHARGES
----------------------
   0 C :   -0.122208
   1 C :   -0.082514
   2 H :    0.107034
   3 C :   -0.079157
   4 H :    0.115393
   5 C :   -0.062777
   6 H :    0.119062
   7 C :   -0.089483
   8 H :    0.111401
   9 C :   -0.011162
  10 H :    0.091830
  11 O :   -0.137270
  12 O :   -0.318478
  13 O :   -0.306129
  14 O :   -0.309158
  15 O :   -0.296570
  16 O :   -0.343501
  17 H :    0.114089
  18 H :    0.090409
  19 H :    0.289030
  20 H :    0.290598
  21 H :    0.275944
  22 H :    0.286818
  23 H :    0.266799

  Mayer bond orders larger than 0.100000
B(  0-C ,  1-C ) :   1.0179 B(  0-C , 16-O ) :   1.0968 B(  0-C , 17-H ) :   0.9222
B(  0-C , 18-H ) :   0.9057 B(  1-C ,  2-H ) :   0.8684 B(  1-C ,  3-C ) :   1.0432
B(  1-C , 11-O ) :   0.9463 B(  3-C ,  4-H ) :   0.8462 B(  3-C ,  5-C ) :   1.0029
B(  3-C , 15-O ) :   0.9875 B(  5-C ,  6-H ) :   0.8625 B(  5-C ,  7-C ) :   0.9967
B(  5-C , 14-O ) :   1.0612 B(  7-C ,  8-H ) :   0.8846 B(  7-C ,  9-C ) :   1.0196
B(  7-C , 13-O ) :   1.0303 B(  9-C , 10-H ) :   0.8952 B(  9-C , 11-O ) :   1.1028
B(  9-C , 12-O ) :   1.0893 B( 12-O , 19-H ) :   0.8365 B( 13-O , 20-H ) :   0.8438
B( 14-O , 21-H ) :   0.8306 B( 15-O , 22-H ) :   0.8383 B( 15-O , 23-H ) :   0.1069
B( 16-O , 23-H ) :   0.8134

Dispersion correction           -0.025074079
FINAL SINGLE POINT ENERGY      -685.693696402913

DIPOLE MOMENT
-------------

Method             : SCF
Type of density    : Electron Density
Multiplicity       :   1
Irrep              :   0
Energy             :  -685.8265936253498012 Eh
Relativity type    :
Basis              : AO
                                X                 Y                 Z
Electronic contribution:      1.282470060       0.628773363      -0.042733715
Nuclear contribution   :     -0.190163508      -1.373863478       0.061103425
                        -----------------------------------------
Total Dipole Moment    :      1.092306553      -0.745090115       0.018369710
                        -----------------------------------------
Magnitude (a.u.)       :      1.322357868
Magnitude (Debye)      :      3.361166583

Rotational constants in cm-1:             0.043180             0.025509             0.022026
Rotational constants in MHz :          1294.510543           764.734624           660.326851

                             ****ORCA TERMINATED NORMALLY****
TOTAL RUN TIME: 0 days 0 hours 0 minutes 13 seconds 898 msec
