                         Program Version 6.0.1  -  RELEASE   -
|  1> ! pbe def2-sv(p) def2/J RI DEFGRID1 loosescf d4 GCP(DFT/SV(P)) printgap
|  2> %output
|  3>     printlevel normal
|  4> end
|  5> * xyz 0 1
|  6> C -2.2983404142 -1.03422495 -0.2162896201
|  7> C -0.9038016888 -0.5517322949 0.1977167078
|  8> H -0.8212548127 -0.6440989666 1.2931354335
|  9> C -0.7043937263 0.9328632226 -0.1811664176
| 10> H -1.1903839216 1.143050346 -1.1401708897
| 11> C 0.7953482366 1.2475818618 -0.3588302501
| 12> H 0.9624845807 2.2793646723 -0.0146089223
| 13> C 1.6264794896 0.2890538186 0.5073551994
| 14> H 2.700480784 0.488364525 0.3602041469
| 15> C 1.3759894325 -1.1652401728 0.0211660917
| 16> H 1.6056500337 -1.8610450421 0.8500103579
| 17> O 0.0612735457 -1.3665663737 -0.4292826206
| 18> O 2.2367605733 -1.4839964693 -1.0151356083
| 19> O 1.2629441277 0.5074684217 1.8504326067
| 20> O 1.1229468757 1.1107699457 -1.7193809739
| 21> O -1.3091935505 1.7762551717 0.7634863067
| 22> O -3.3021060822 -0.3873342499 0.5158467762
| 23> H -2.3909637322 -2.1024575431 -0.0087432083
| 24> H -2.423371314 -0.8770849407 -1.2971170414
| 25> H 1.8397361977 -1.1268958203 -1.8237331185
| 26> H 1.7851063101 -0.0701005249 2.4189262864
| 27> H 2.0299394654 1.4070238765 -1.8595470289
| 28> H -0.837842958 1.6723031615 1.6012252169
| 29> H -3.1168524929 0.5627258527 0.5187477567
| 30> *
| 31>
| 32>                          ****END OF INPUT****

CARTESIAN COORDINATES (ANGSTROEM)
---------------------------------
  C     -2.298340   -1.034225   -0.216290
  C     -0.903802   -0.551732    0.197717
  H     -0.821255   -0.644099    1.293135
  C     -0.704394    0.932863   -0.181166
  H     -1.190384    1.143050   -1.140171
  C      0.795348    1.247582   -0.358830
  H      0.962485    2.279365   -0.014609
  C      1.626479    0.289054    0.507355
  H      2.700481    0.488365    0.360204
  C      1.375989   -1.165240    0.021166
  H      1.605650   -1.861045    0.850010
  O      0.061274   -1.366566   -0.429283
  O      2.236761   -1.483996   -1.015136
  O      1.262944    0.507468    1.850433
  O      1.122947    1.110770   -1.719381
  O     -1.309194    1.776255    0.763486
  O     -3.302106   -0.387334    0.515847
  H     -2.390964   -2.102458   -0.008743
  H     -2.423371   -0.877085   -1.297117
  H      1.839736   -1.126896   -1.823733
  H      1.785106   -0.070101    2.418926
  H      2.029939    1.407024   -1.859547
  H     -0.837843    1.672303    1.601225
  H     -3.116852    0.562726    0.518748

 Total Charge           Charge          ....    0
 Multiplicity           Mult            ....    1
 Number of Electrons    NEL             ....   96
 Basis Dimension        Dim             ....  192

ORBITAL ENERGIES
----------------

  NO   OCC          E(Eh)            E(eV)
   0   2.0000     -18.783635      -511.1287
   1   2.0000     -18.777917      -510.9731
   2   2.0000     -18.772930      -510.8374
   3   2.0000     -18.765211      -510.6273
   4   2.0000     -18.756051      -510.3781
   5   2.0000     -18.733685      -509.7695
   6   2.0000      -9.993365      -271.9333
   7   2.0000      -9.957424      -270.9553
   8   2.0000      -9.955680      -270.9078
   9   2.0000      -9.948333      -270.7079
  10   2.0000      -9.940552      -270.4962
  11   2.0000      -9.923979      -270.0452
  12   2.0000      -0.991320       -26.9752
  13   2.0000      -0.958801       -26.0903
  14   2.0000      -0.951576       -25.8937
  15   2.0000      -0.943841       -25.6832
  16   2.0000      -0.917717       -24.9724
  17   2.0000      -0.910225       -24.7685
  18   2.0000      -0.708429       -19.2773
  19   2.0000      -0.689861       -18.7721
  20   2.0000      -0.622647       -16.9431
  21   2.0000      -0.595281       -16.1984
  22   2.0000      -0.569720       -15.5029
  23   2.0000      -0.532873       -14.5002
  24   2.0000      -0.511367       -13.9150
  25   2.0000      -0.501703       -13.6520
  26   2.0000      -0.478553       -13.0221
  27   2.0000      -0.465539       -12.6680
  28   2.0000      -0.463592       -12.6150
  29   2.0000      -0.437800       -11.9131
  30   2.0000      -0.423416       -11.5217
  31   2.0000      -0.395714       -10.7679
  32   2.0000      -0.386269       -10.5109
  33   2.0000      -0.378767       -10.3068
  34   2.0000      -0.363372        -9.8879
  35   2.0000      -0.353198        -9.6110
  36   2.0000      -0.341003        -9.2792
  37   2.0000      -0.325115        -8.8468
  38   2.0000      -0.316106        -8.6017
  39   2.0000      -0.307903        -8.3785
  40   2.0000      -0.286599        -7.7987
  41   2.0000      -0.279822        -7.6143
  42   2.0000      -0.265251        -7.2178
  43   2.0000      -0.257519        -7.0075
  44   2.0000      -0.240547        -6.5456
  45   2.0000      -0.225300        -6.1307
  46   2.0000      -0.211907        -5.7663
  47   2.0000      -0.199605        -5.4315
  48   0.0000      -0.005139        -0.1398
  49   0.0000       0.009011         0.2452
  50   0.0000       0.042976         1.1694
  51   0.0000       0.056291         1.5318
  52   0.0000       0.060487         1.6459

MULLIKEN ATOMIC CHARGES
-----------------------
   0 C :    0.098979
   1 C :   -0.010831
   2 H :    0.056669
   3 C :    0.046915
   4 H :    0.079826
   5 C :    0.055077
   6 H :    0.076653
   7 C :   -0.051479
   8 H :    0.071444
   9 C :    0.242754
  10 H :    0.048420
  11 O :   -0.296994
  12 O :   -0.401439
  13 O :   -0.416172
  14 O :   -0.408580
  15 O :   -0.423858
  16 O :   -0.444700
  17 H :    0.086820
  18 H :    0.068876
  19 H :    0.293883
  20 H :    0.312996
  21 H :    0.305449
  22 H :    0.310666
  23 H :    0.298628
Sum of atomic charges:    0.0000000

LOEWDIN ATOMIC CHARGES
----------------------
   0 C :   -0.116822
   1 C :   -0.084727
   2 H :    0.101244
   3 C :   -0.072219
   4 H :    0.123170
   5 C :   -0.068135
   6 H :    0.108049
   7 C :   -0.107070
   8 H :    0.104265
   9 C :    0.006912
  10 H :    0.089295
  11 O :   -0.140360
  12 O :   -0.303758
  13 O :   -0.314803
  14 O :   -0.306062
  15 O :   -0.302394
  16 O :   -0.338244
  17 H :    0.113229
  18 H :    0.094654
  19 H :    0.275043
  20 H :    0.292767
  21 H :    0.288562
  22 H :    0.284031
  23 H :    0.273373

  Mayer bond orders larger than 0.100000
B(  0-C ,  1-C ) :   1.0432 B(  0-C , 16-O ) :   1.0859 B(  0-C , 17-H ) :   0.9197
B(  0-C , 18-H ) :   0.9068 B(  1-C ,  2-H ) :   0.8672 B(  1-C ,  3-C ) :   0.9860
B(  1-C , 11-O ) :   1.0050 B(  3-C ,  4-H ) :   0.8740 B(  3-C ,  5-C ) :   0.9956
B(  3-C , 15-O ) :   1.0085 B(  5-C ,  6-H ) :   0.8949 B(  5-C ,  7-C ) :   1.0199
B(  5-C , 14-O ) :   1.0573 B(  7-C ,  8-H ) :   0.8970 B(  7-C ,  9-C ) :   0.9157
B(  7-C , 13-O ) :   1.0376 B(  9-C , 10-H ) :   0.9011 B(  9-C , 11-O ) :   1.0514
B(  9-C , 12-O ) :   1.1241 B( 12-O , 19-H ) :   0.8288 B( 13-O , 20-H ) :   0.8392
B( 14-O , 21-H ) :   0.8388 B( 15-O , 22-H ) :   0.8312 B( 16-O , 23-H ) :   0.8244

Dispersion correction           -0.025182349
FINAL SINGLE POINT ENERGY      -685.691535415554

DIPOLE MOMENT
-------------

Method             : SCF
Type of density    : Electron Density
Multiplicity       :   1
Irrep              :   0
Energy             :  -685.8243386964455794 Eh
Relativity type    :
Basis              : AO
                                X                 Y                 Z
Electronic contribution:      1.333972714      -0.194638383      -0.463559013
Nuclear contribution   :      0.134979186       0.819606416       0.842281225
                        -----------------------------------------
Total Dipole Moment    :      1.468951900       0.624968033       0.378722212
                        -----------------------------------------
Magnitude (a.u.)       :      1.640681334
Magnitude (Debye)      :      4.170280534

Rotational constants in cm-1:             0.044575             0.025234             0.022105
Rotational constants in MHz :          1336.338837           756.501873           662.678212

                             ****ORCA TERMINATED NORMALLY****
TOTAL RUN TIME: 0 days 0 hours 0 minutes 8 seconds 217 msec
