                         Program Version 6.0.1  -  RELEASE   -
|  1> ! r2scan-3c def2/J RI DEFGRID2 scfconv6 printgap
|  2> %output
|  3>     printlevel normal
|  4> end
|  5> * xyz 0 1
|  6> C 1.7156125141 0.4188783239 0.6073557577
|  7> C 0.8862775146 0.3823915075 -0.6729293912
|  8> C -0.5685459247 -0.0806933282 -0.4754040784
|  9> H -1.055501989 -0.0869246242 -1.4578442245
| 10> C -1.3549310429 0.8405115322 0.4587148441
| 11> O -0.6387555336 -1.4232759183 -0.0460863726
| 12> H 1.3127175372 1.1347208771 1.3196426902
| 13> H 2.7357424872 0.7149140368 0.3742229071
| 14> H 1.7542864407 -0.562621063 1.076867997
| 15> H 1.3586566733 -0.3021741058 -1.3805951706
| 16> H 0.8704185333 1.3753817739 -1.1253717874
| 17> H -0.9517724406 0.8023143132 1.4688051385
| 18> H -1.3131259293 1.8655863261 0.1010232615
| 19> H -2.3943140693 0.5232338038 0.4952088086
| 20> H -0.262056139 -1.4746185259 0.8399300654
| 21> *
| 22>
| 23>                          ****END OF INPUT****

CARTESIAN COORDINATES (ANGSTROEM)
---------------------------------
  C      1.715613    0.418878    0.607356
  C      0.886278    0.382392   -0.672929
  C     -0.568546   -0.080693   -0.475404
  H     -1.055502   -0.086925   -1.457844
  C     -1.354931    0.840512    0.458715
  O     -0.638756   -1.423276   -0.046086
  H      1.312718    1.134721    1.319643
  H      2.735742    0.714914    0.374223
  H      1.754286   -0.562621    1.076868
  H      1.358657   -0.302174   -1.380595
  H      0.870419    1.375382   -1.125372
  H     -0.951772    0.802314    1.468805
  H     -1.313126    1.865586    0.101023
  H     -2.394314    0.523234    0.495209
  H     -0.262056   -1.474619    0.839930

 Total Charge           Charge          ....    0
 Multiplicity           Mult            ....    1
 Number of Electrons    NEL             ....   42
 Basis Dimension        Dim             ....  150

ORBITAL ENERGIES
----------------

  NO   OCC          E(Eh)            E(eV)
   0   2.0000     -18.943538      -515.4799
   1   2.0000     -10.079183      -274.2685
   2   2.0000     -10.026028      -272.8221
   3   2.0000     -10.023937      -272.7652
   4   2.0000     -10.019281      -272.6385
   5   2.0000      -0.985111       -26.8062
   6   2.0000      -0.752245       -20.4696
   7   2.0000      -0.692238       -18.8367
   8   2.0000      -0.617634       -16.8067
   9   2.0000      -0.547840       -14.9075
  10   2.0000      -0.455920       -12.4062
  11   2.0000      -0.436231       -11.8705
  12   2.0000      -0.415603       -11.3091
  13   2.0000      -0.397191       -10.8081
  14   2.0000      -0.360357        -9.8058
  15   2.0000      -0.357398        -9.7253
  16   2.0000      -0.335254        -9.1227
  17   2.0000      -0.320149        -8.7117
  18   2.0000      -0.307532        -8.3684
  19   2.0000      -0.281827        -7.6689
  20   2.0000      -0.232979        -6.3397
  21   0.0000       0.060766         1.6535
  22   0.0000       0.103440         2.8148
  23   0.0000       0.113863         3.0984
  24   0.0000       0.128028         3.4838
  25   0.0000       0.138917         3.7801

MULLIKEN ATOMIC CHARGES
-----------------------
   0 C :   -0.520538
   1 C :   -0.200599
   2 C :   -0.001434
   3 H :    0.144170
   4 C :   -0.486462
   5 O :   -0.408165
   6 H :    0.155062
   7 H :    0.152940
   8 H :    0.139213
   9 H :    0.152244
  10 H :    0.133173
  11 H :    0.144547
  12 H :    0.144618
  13 H :    0.160720
  14 H :    0.290510
Sum of atomic charges:   -0.0000000

LOEWDIN ATOMIC CHARGES
----------------------
   0 C :   -0.426793
   1 C :   -0.298363
   2 C :    0.039686
   3 H :    0.180446
   4 C :   -0.401361
   5 O :   -0.603920
   6 H :    0.151329
   7 H :    0.155509
   8 H :    0.147472
   9 H :    0.162555
  10 H :    0.156885
  11 H :    0.152879
  12 H :    0.157983
  13 H :    0.161252
  14 H :    0.264442

  Mayer bond orders larger than 0.100000
B(  0-C ,  1-C ) :   0.8613 B(  0-C ,  6-H ) :   0.9822 B(  0-C ,  7-H ) :   0.9669
B(  0-C ,  8-H ) :   0.9811 B(  1-C ,  2-C ) :   0.9185 B(  1-C ,  9-H ) :   0.9700
B(  1-C , 10-H ) :   0.9719 B(  2-C ,  3-H ) :   0.9623 B(  2-C ,  4-C ) :   0.9426
B(  2-C ,  5-O ) :   0.9353 B(  4-C , 11-H ) :   0.9733 B(  4-C , 12-H ) :   0.9704
B(  4-C , 13-H ) :   0.9680 B(  5-O , 14-H ) :   0.8957

Dispersion correction           -0.003263858
FINAL SINGLE POINT ENERGY      -233.603204474940

DIPOLE MOMENT
-------------

Method             : SCF
Type of density    : Electron Density
Multiplicity       :   1
Irrep              :   0
Energy             :  -233.6082662495324485 Eh
Relativity type    :
Basis              : AO
                                X                 Y                 Z
Electronic contribution:     -1.660284134      -3.208462718      -1.335246497
Nuclear contribution   :      1.918495293       3.721976284       1.605348907
                        -----------------------------------------
Total Dipole Moment    :      0.258211159       0.513513566       0.270102410
                        -----------------------------------------
Magnitude (a.u.)       :      0.635078339
Magnitude (Debye)      :      1.614240852

Rotational constants in cm-1:             0.214641             0.128824             0.106059
Rotational constants in MHz :          6434.785326          3862.042576          3179.554213

                             ****ORCA TERMINATED NORMALLY****
TOTAL RUN TIME: 0 days 0 hours 0 minutes 10 seconds 435 msec
