                         Program Version 6.0.0  -   RELEASE  -
|  1> ! r2SCAN-3c DEF2-TZVP FREQ
|  2> * xyzfile 0 1 censo.xyz
|  3>
|  4>                          ****END OF INPUT****

CARTESIAN COORDINATES (ANGSTROEM)
---------------------------------
  C     -0.692700   -2.068826   -0.000019
  C      0.692716   -2.068822   -0.000011
  C      1.386337   -0.865740    0.000012
  C      0.701207    0.352351    0.000026
  C     -0.701207    0.352347    0.000018
  C     -1.386329   -0.865748   -0.000006
  Cl    -3.127940   -0.898646   -0.000016
  Cl    -1.571123    1.850187    0.000028
  Cl     1.571113    1.850197    0.000049
  Cl     3.127948   -0.898627    0.000026
  H     -1.234903   -3.006676   -0.000039
  H      1.234924   -3.006668   -0.000026

 Total Charge           Charge          ....    0
 Multiplicity           Mult            ....    1
 Number of Electrons    NEL             ....  106
 Basis Dimension        Dim             ....  346

ORBITAL ENERGIES
----------------

  NO   OCC          E(Eh)            E(eV)
   0   2.0000    -101.213988     -2754.1726
   1   2.0000    -101.213980     -2754.1724
   2   2.0000    -101.211546     -2754.1062
   3   2.0000    -101.211542     -2754.1061
   4   2.0000     -10.137620      -275.8587
   5   2.0000     -10.137233      -275.8481
   6   2.0000     -10.131328      -275.6875
   7   2.0000     -10.131316      -275.6871
   8   2.0000     -10.077674      -274.2275
   9   2.0000     -10.077214      -274.2149
  10   2.0000      -9.389742      -255.5079
  11   2.0000      -9.389735      -255.5077
  12   2.0000      -9.387340      -255.4425
  13   2.0000      -9.387336      -255.4424
  14   2.0000      -7.135098      -194.1559
  15   2.0000      -7.135097      -194.1558
  16   2.0000      -7.132556      -194.0867
  17   2.0000      -7.132555      -194.0867
  18   2.0000      -7.124778      -193.8751
  19   2.0000      -7.124777      -193.8750
  20   2.0000      -7.123696      -193.8456
  21   2.0000      -7.123696      -193.8456
  22   2.0000      -7.122300      -193.8076
  23   2.0000      -7.122300      -193.8076
  24   2.0000      -7.121531      -193.7867
  25   2.0000      -7.121530      -193.7867
  26   2.0000      -0.916703       -24.9448
  27   2.0000      -0.870200       -23.6794
  28   2.0000      -0.849861       -23.1259
  29   2.0000      -0.821986       -22.3674
  30   2.0000      -0.802724       -21.8432
  31   2.0000      -0.727249       -19.7894
  32   2.0000      -0.706338       -19.2204
  33   2.0000      -0.608713       -16.5639
  34   2.0000      -0.592438       -16.1211
  35   2.0000      -0.507464       -13.8088
  36   2.0000      -0.499237       -13.5849
  37   2.0000      -0.462803       -12.5935
  38   2.0000      -0.437662       -11.9094
  39   2.0000      -0.435893       -11.8613
  40   2.0000      -0.428887       -11.6706
  41   2.0000      -0.386910       -10.5283
  42   2.0000      -0.385674       -10.4947
  43   2.0000      -0.370742       -10.0884
  44   2.0000      -0.350304        -9.5322
  45   2.0000      -0.323361        -8.7991
  46   2.0000      -0.320494        -8.7211
  47   2.0000      -0.316213        -8.6046
  48   2.0000      -0.305994        -8.3265
  49   2.0000      -0.300001        -8.1635
  50   2.0000      -0.283513        -7.7148
  51   2.0000      -0.251369        -6.8401
  52   2.0000      -0.240253        -6.5376
  53   0.0000      -0.075214        -2.0467
  54   0.0000      -0.072524        -1.9735
  55   0.0000      -0.063446        -1.7265
  56   0.0000      -0.008446        -0.2298
  57   0.0000       0.022293         0.6066

MULLIKEN ATOMIC CHARGES
-----------------------
   0 C :   -0.173363
   1 C :   -0.173385
   2 C :    0.094060
   3 C :    0.058609
   4 C :    0.058631
   5 C :    0.094038
   6 Cl:   -0.071883
   7 Cl:   -0.043222
   8 Cl:   -0.043221
   9 Cl:   -0.071880
  10 H :    0.135807
  11 H :    0.135809
Sum of atomic charges:    0.0000000

LOEWDIN ATOMIC CHARGES
----------------------
   0 C :   -0.135673
   1 C :   -0.135673
   2 C :   -0.433509
   3 C :   -0.445499
   4 C :   -0.445499
   5 C :   -0.433509
   6 Cl:    0.417346
   7 Cl:    0.441628
   8 Cl:    0.441628
   9 Cl:    0.417346
  10 H :    0.155705
  11 H :    0.155705

  Mayer bond orders larger than 0.100000
B(  0-C ,  1-C ) :   1.3904 B(  0-C ,  5-C ) :   1.3619 B(  0-C , 10-H ) :   0.9633
B(  1-C ,  2-C ) :   1.3619 B(  1-C , 11-H ) :   0.9633 B(  2-C ,  3-C ) :   1.2767
B(  2-C ,  9-Cl) :   1.0776 B(  3-C ,  4-C ) :   1.2692 B(  3-C ,  8-Cl) :   1.1794
B(  4-C ,  5-C ) :   1.2767 B(  4-C ,  7-Cl) :   1.1794 B(  5-C ,  6-Cl) :   1.0776

Dispersion correction           -0.006444252
FINAL SINGLE POINT ENERGY     -2070.533553732162

DIPOLE MOMENT
-------------

Method             : SCF
Type of density    : Electron Density
Multiplicity       :   1
Irrep              :   0
Energy             : -2070.5344945053175252 Eh
Relativity type    :
Basis              : AO
                                X                 Y                 Z
Electronic contribution:     -0.000024335       7.478796058       0.000112309
Nuclear contribution   :      0.000026582      -8.205985999      -0.000124934
                        -----------------------------------------
Total Dipole Moment    :      0.000002247      -0.727189941      -0.000012625
                        -----------------------------------------
Magnitude (a.u.)       :      0.727189941
Magnitude (Debye)      :      1.848369938

VIBRATIONAL FREQUENCIES
-----------------------

Scaling factor for frequencies =  1.000000000  (already applied!)

     0:       0.00 cm**-1
     1:       0.00 cm**-1
     2:       0.00 cm**-1
     3:       0.00 cm**-1
     4:       0.00 cm**-1
     5:       0.00 cm**-1
     6:      87.69 cm**-1
     7:     104.68 cm**-1
     8:     211.28 cm**-1
     9:     215.92 cm**-1
    10:     225.19 cm**-1
    11:     250.06 cm**-1
    12:     308.82 cm**-1
    13:     329.09 cm**-1
    14:     349.11 cm**-1
    15:     485.44 cm**-1
    16:     502.06 cm**-1
    17:     522.34 cm**-1
    18:     570.22 cm**-1
    19:     596.32 cm**-1
    20:     727.97 cm**-1
    21:     767.91 cm**-1
    22:     813.92 cm**-1
    23:     818.58 cm**-1
    24:     942.39 cm**-1
    25:    1061.48 cm**-1
    26:    1142.86 cm**-1
    27:    1175.74 cm**-1
    28:    1186.37 cm**-1
    29:    1313.66 cm**-1
    30:    1372.45 cm**-1
    31:    1442.75 cm**-1
    32:    1578.21 cm**-1
    33:    1580.39 cm**-1
    34:    3193.73 cm**-1
    35:    3206.45 cm**-1

IR SPECTRUM
-----------

 Mode   freq       eps      Int      T**2         TX        TY        TZ
       cm**-1   L/(mol*cm) km/mol    a.u.
----------------------------------------------------------------------------
  6:     87.69   0.000000    0.00  0.000000  (-0.000001 -0.000000 -0.000000)
  7:    104.68   0.000107    0.54  0.000319  (-0.000000 -0.000001 -0.017851)
  8:    211.28   0.000032    0.16  0.000048  (-0.006919 -0.000000 -0.000000)
  9:    215.92   0.000002    0.01  0.000003  ( 0.000000  0.001623  0.000000)
 10:    225.19   0.000002    0.01  0.000003  ( 0.000000 -0.001834 -0.000000)
 11:    250.06   0.000296    1.50  0.000369  (-0.000001  0.000002  0.019216)
 12:    308.82   0.000000    0.00  0.000000  ( 0.000002  0.000001 -0.000000)
 13:    329.09   0.000001    0.01  0.000001  (-0.000000  0.000969  0.000000)
 14:    349.11   0.000022    0.11  0.000020  ( 0.004436 -0.000000  0.000000)
 15:    485.44   0.001126    5.69  0.000724  (-0.026899 -0.000000 -0.000000)
 16:    502.06   0.001846    9.33  0.001147  ( 0.000000 -0.033873 -0.000001)
 17:    522.34   0.000000    0.00  0.000000  (-0.000001 -0.000000 -0.000000)
 18:    570.22   0.000723    3.66  0.000396  ( 0.000000  0.000002  0.019898)
 19:    596.32   0.006565   33.18  0.003436  ( 0.058614  0.000000  0.000000)
 20:    727.97   0.000000    0.00  0.000000  ( 0.000002  0.000001  0.000000)
 21:    767.91   0.009159   46.29  0.003722  ( 0.061008  0.000000  0.000000)
 22:    813.92   0.005884   29.73  0.002256  ( 0.000000 -0.000002  0.047495)
 23:    818.58   0.007857   39.71  0.002995  ( 0.000000 -0.054731 -0.000003)
 24:    942.39   0.000000    0.00  0.000000  ( 0.000001  0.000000  0.000000)
 25:   1061.48   0.003295   16.65  0.000969  (-0.031122 -0.000000 -0.000000)
 26:   1142.86   0.002693   13.61  0.000735  ( 0.000000 -0.027117 -0.000000)
 27:   1175.74   0.001718    8.68  0.000456  ( 0.000000 -0.021352 -0.000000)
 28:   1186.37   0.013118   66.29  0.003450  (-0.058741 -0.000000 -0.000000)
 29:   1313.66   0.000001    0.00  0.000000  (-0.000000  0.000433  0.000000)
 30:   1372.45   0.011415   57.69  0.002596  ( 0.000000 -0.050946 -0.000001)
 31:   1442.75   0.024156  122.08  0.005225  ( 0.072284  0.000000  0.000000)
 32:   1578.21   0.000219    1.11  0.000043  ( 0.006581 -0.000000  0.000000)
 33:   1580.39   0.001266    6.40  0.000250  (-0.000000 -0.015808 -0.000000)
 34:   3193.73   0.000000    0.00  0.000000  ( 0.000041 -0.000000  0.000000)
 35:   3206.45   0.000018    0.09  0.000002  ( 0.000000 -0.001309 -0.000000)

--------------------------
THERMOCHEMISTRY AT 298.15K
--------------------------

Temperature         ...   298.15 K
Pressure            ...     1.00 atm
Total Mass          ...   215.89 AMU
Quasi RRHO          ...     True
Cut-Off Frequency   ...     1.00 cm^-1

Throughout the following assumptions are being made:
  (1) The electronic state is orbitally nondegenerate
  (2) There are no thermally accessible electronically excited states
  (3) Hindered rotations indicated by low frequency modes are not
      treated as such but are treated as vibrations and this may
      cause some error
  (4) All equations used are the standard statistical mechanics
      equations for an ideal gas
  (5) All vibrations are strictly harmonic

freq.      87.69  E(vib)   ...       0.48
freq.     104.68  E(vib)   ...       0.46
freq.     211.28  E(vib)   ...       0.34
freq.     215.92  E(vib)   ...       0.34
freq.     225.19  E(vib)   ...       0.33
freq.     250.06  E(vib)   ...       0.31
freq.     308.82  E(vib)   ...       0.26
freq.     329.09  E(vib)   ...       0.24
freq.     349.11  E(vib)   ...       0.23
freq.     485.44  E(vib)   ...       0.15
freq.     502.06  E(vib)   ...       0.14
freq.     522.34  E(vib)   ...       0.13
freq.     570.22  E(vib)   ...       0.11
freq.     596.32  E(vib)   ...       0.10
freq.     727.97  E(vib)   ...       0.06
freq.     767.91  E(vib)   ...       0.06
freq.     813.92  E(vib)   ...       0.05
freq.     818.58  E(vib)   ...       0.05
freq.     942.39  E(vib)   ...       0.03
freq.    1061.48  E(vib)   ...       0.02
freq.    1142.86  E(vib)   ...       0.01
freq.    1175.74  E(vib)   ...       0.01
freq.    1186.37  E(vib)   ...       0.01
freq.    1313.66  E(vib)   ...       0.01
freq.    1372.45  E(vib)   ...       0.01
freq.    1442.75  E(vib)   ...       0.00
freq.    1578.21  E(vib)   ...       0.00
freq.    1580.39  E(vib)   ...       0.00
freq.    3193.73  E(vib)   ...       0.00
freq.    3206.45  E(vib)   ...       0.00

------------
INNER ENERGY
------------

The inner energy is: U= E(el) + E(ZPE) + E(vib) + E(rot) + E(trans)
    E(el)   - is the total energy from the electronic structure calculation
              = E(kin-el) + E(nuc-el) + E(el-el) + E(nuc-nuc)
    E(ZPE)  - the the zero temperature vibrational energy from the frequency calculation
    E(vib)  - the the finite temperature correction to E(ZPE) due to population
              of excited vibrational states
    E(rot)  - is the rotational thermal energy
    E(trans)- is the translational thermal energy

Summary of contributions to the inner energy U:
Electronic energy                ...  -2070.53355373 Eh
Zero point energy                ...      0.06169985 Eh      38.72 kcal/mol
Thermal vibrational correction   ...      0.00623622 Eh       3.91 kcal/mol
Thermal rotational correction    ...      0.00141627 Eh       0.89 kcal/mol
Thermal translational correction ...      0.00141627 Eh       0.89 kcal/mol
-----------------------------------------------------------------------
Total thermal energy                  -2070.46278511 Eh

Summary of corrections to the electronic energy:
(perhaps to be used in another calculation)
Total thermal correction                  0.00906877 Eh       5.69 kcal/mol
Non-thermal (ZPE) correction              0.06169985 Eh      38.72 kcal/mol
-----------------------------------------------------------------------
Total correction                          0.07076862 Eh      44.41 kcal/mol

--------
ENTHALPY
--------

The enthalpy is H = U + kB*T
                kB is Boltzmann's constant
Total thermal energy              ...  -2070.46278511 Eh
Thermal Enthalpy correction       ...      0.00094421 Eh       0.59 kcal/mol
-----------------------------------------------------------------------
Total Enthalpy                    ...  -2070.46184091 Eh

Note: Rotational entropy computed according to Herzberg
Infrared and Raman Spectra, Chapter V,1, Van Nostrand Reinhold, 1945
Point Group:  C2v, Symmetry Number:   2
Rotational constants in cm-1:     0.038138     0.017908     0.012186

Vibrational entropy computed according to the QRRHO of S. Grimme
Chem.Eur.J. 2012 18 9955 using a reference frequency of 100.0 cm-1

-------
ENTROPY
-------

The entropy contributions are T*S = T*(S(el)+S(vib)+S(rot)+S(trans))
     S(el)   - electronic entropy
     S(vib)  - vibrational entropy
     S(rot)  - rotational entropy
     S(trans)- translational entropy
The entropies will be listed as multiplied by the temperature to get
units of energy

Electronic entropy                ...      0.00000000 Eh      0.00 kcal/mol
Vibrational entropy               ...      0.01050035 Eh      6.59 kcal/mol
Rotational entropy                ...      0.01437817 Eh      9.02 kcal/mol
Translational entropy             ...      0.01996123 Eh     12.53 kcal/mol
-----------------------------------------------------------------------
Final entropy term                ...      0.04483975 Eh     28.14 kcal/mol

In case the symmetry of your molecule has not been determined correctly
or in case you have a reason to use a different symmetry number we print
out the resulting rotational entropy values for sn=1,12:

 non-linear molecules -----------------------------------
|  sn= 1 | S(rot)=       0.01503262 Eh      9.43 kcal/mol|
|  sn= 2 | S(rot)=       0.01437817 Eh      9.02 kcal/mol|
|  sn= 3 | S(rot)=       0.01399533 Eh      8.78 kcal/mol|
|  sn= 4 | S(rot)=       0.01372371 Eh      8.61 kcal/mol|
|  sn= 5 | S(rot)=       0.01351302 Eh      8.48 kcal/mol|
|  sn= 6 | S(rot)=       0.01334088 Eh      8.37 kcal/mol|
|  sn= 7 | S(rot)=       0.01319533 Eh      8.28 kcal/mol|
|  sn= 8 | S(rot)=       0.01306925 Eh      8.20 kcal/mol|
|  sn= 9 | S(rot)=       0.01295805 Eh      8.13 kcal/mol|
|  sn=10 | S(rot)=       0.01285857 Eh      8.07 kcal/mol|
|  sn=11 | S(rot)=       0.01276858 Eh      8.01 kcal/mol|
|  sn=12 | S(rot)=       0.01268642 Eh      7.96 kcal/mol|
 linear molecules ---------------------------------------
|  Dinfh | S(rot)=       0.00948725 Eh      5.95 kcal/mol|
|  Cinfv | S(rot)=       0.01014171 Eh      6.36 kcal/mol|
 --------------------------------------------------------

-------------------
GIBBS FREE ENERGY
-------------------

The Gibbs free energy is G = H - T*S

Total enthalpy                    ...  -2070.46184091 Eh
Total entropy correction          ...     -0.04483975 Eh    -28.14 kcal/mol
-----------------------------------------------------------------------
Final Gibbs free energy         ...  -2070.50668065 Eh

For completeness - the Gibbs free energy minus the electronic energy
G-E(el)                           ...      0.02687308 Eh     16.86 kcal/mol

                             ****ORCA TERMINATED NORMALLY****
TOTAL RUN TIME: 0 days 0 hours 10 minutes 42 seconds 436 msec
