                         Program Version 6.0.0  -   RELEASE  -
|  1> ! r2SCAN-3c DEF2-TZVP FREQ
|  2> * xyzfile 0 1 vacuum_censo.xyz
|  3>
|  4>                          ****END OF INPUT****

CARTESIAN COORDINATES (ANGSTROEM)
---------------------------------
  C     -0.692491   -2.064572    0.000163
  C      0.692427   -2.064591    0.000168
  C      1.389653   -0.862462    0.000112
  C      0.702340    0.355920    0.000049
  C     -0.702336    0.355938    0.000045
  C     -1.389682   -0.862423    0.000103
  Cl    -3.127081   -0.900783    0.000096
  Cl    -1.571107    1.849506   -0.000036
  Cl     1.571154    1.849460   -0.000026
  Cl     3.127050   -0.900871    0.000117
  H     -1.241304   -2.998261    0.000204
  H      1.241212   -2.998296    0.000212

 Total Charge           Charge          ....    0
 Multiplicity           Mult            ....    1
 Number of Electrons    NEL             ....  106
 Basis Dimension        Dim             ....  346

ORBITAL ENERGIES
----------------

  NO   OCC          E(Eh)            E(eV)
   0   2.0000    -101.213904     -2754.1703
   1   2.0000    -101.213896     -2754.1701
   2   2.0000    -101.211826     -2754.1138
   3   2.0000    -101.211822     -2754.1137
   4   2.0000     -10.137277      -275.8493
   5   2.0000     -10.136897      -275.8390
   6   2.0000     -10.130868      -275.6749
   7   2.0000     -10.130857      -275.6746
   8   2.0000     -10.077192      -274.2143
   9   2.0000     -10.076730      -274.2018
  10   2.0000      -9.389731      -255.5076
  11   2.0000      -9.389724      -255.5074
  12   2.0000      -9.387667      -255.4514
  13   2.0000      -9.387663      -255.4513
  14   2.0000      -7.135051      -194.1546
  15   2.0000      -7.135049      -194.1546
  16   2.0000      -7.132867      -194.0952
  17   2.0000      -7.132866      -194.0951
  18   2.0000      -7.124776      -193.8750
  19   2.0000      -7.124775      -193.8750
  20   2.0000      -7.123692      -193.8455
  21   2.0000      -7.123691      -193.8455
  22   2.0000      -7.122630      -193.8166
  23   2.0000      -7.122630      -193.8166
  24   2.0000      -7.121857      -193.7956
  25   2.0000      -7.121856      -193.7955
  26   2.0000      -0.916783       -24.9469
  27   2.0000      -0.871111       -23.7041
  28   2.0000      -0.850581       -23.1455
  29   2.0000      -0.822969       -22.3941
  30   2.0000      -0.802661       -21.8415
  31   2.0000      -0.726182       -19.7604
  32   2.0000      -0.705934       -19.2094
  33   2.0000      -0.608360       -16.5543
  34   2.0000      -0.591882       -16.1059
  35   2.0000      -0.507228       -13.8024
  36   2.0000      -0.499078       -13.5806
  37   2.0000      -0.463300       -12.6070
  38   2.0000      -0.437280       -11.8990
  39   2.0000      -0.436372       -11.8743
  40   2.0000      -0.428725       -11.6662
  41   2.0000      -0.387846       -10.5538
  42   2.0000      -0.385068       -10.4782
  43   2.0000      -0.371246       -10.1021
  44   2.0000      -0.350626        -9.5410
  45   2.0000      -0.323826        -8.8118
  46   2.0000      -0.320133        -8.7113
  47   2.0000      -0.316047        -8.6001
  48   2.0000      -0.305939        -8.3250
  49   2.0000      -0.300340        -8.1727
  50   2.0000      -0.283920        -7.7259
  51   2.0000      -0.250593        -6.8190
  52   2.0000      -0.239705        -6.5227
  53   0.0000      -0.074921        -2.0387
  54   0.0000      -0.072431        -1.9709
  55   0.0000      -0.061517        -1.6739
  56   0.0000      -0.007015        -0.1909
  57   0.0000       0.023398         0.6367

MULLIKEN ATOMIC CHARGES
-----------------------
   0 C :   -0.173652
   1 C :   -0.173621
   2 C :    0.093640
   3 C :    0.057558
   4 C :    0.057525
   5 C :    0.093678
   6 Cl:   -0.069963
   7 Cl:   -0.042648
   8 Cl:   -0.042650
   9 Cl:   -0.069963
  10 H :    0.135048
  11 H :    0.135049
Sum of atomic charges:    0.0000000

LOEWDIN ATOMIC CHARGES
----------------------
   0 C :   -0.136218
   1 C :   -0.136218
   2 C :   -0.437490
   3 C :   -0.448888
   4 C :   -0.448886
   5 C :   -0.437489
   6 Cl:    0.421709
   7 Cl:    0.445500
   8 Cl:    0.445504
   9 Cl:    0.421710
  10 H :    0.155383
  11 H :    0.155383

  Mayer bond orders larger than 0.100000
B(  0-C ,  1-C ) :   1.3921 B(  0-C ,  5-C ) :   1.3606 B(  0-C , 10-H ) :   0.9638
B(  1-C ,  2-C ) :   1.3606 B(  1-C , 11-H ) :   0.9638 B(  2-C ,  3-C ) :   1.2769
B(  2-C ,  9-Cl) :   1.0808 B(  3-C ,  4-C ) :   1.2676 B(  3-C ,  8-Cl) :   1.1813
B(  4-C ,  5-C ) :   1.2769 B(  4-C ,  7-Cl) :   1.1813 B(  5-C ,  6-Cl) :   1.0808

Dispersion correction           -0.006446116
FINAL SINGLE POINT ENERGY     -2070.533798143947

DIPOLE MOMENT
-------------

Method             : SCF
Type of density    : Electron Density
Multiplicity       :   1
Irrep              :   0
Energy             : -2070.5347641386688338 Eh
Relativity type    :
Basis              : AO
                                X                 Y                 Z
Electronic contribution:      0.000111846       7.464022853      -0.000371633
Nuclear contribution   :     -0.000117597      -8.181181903       0.000405287
                        -----------------------------------------
Total Dipole Moment    :     -0.000005751      -0.717159051       0.000033654
                        -----------------------------------------
Magnitude (a.u.)       :      0.717159051
Magnitude (Debye)      :      1.822873442

VIBRATIONAL FREQUENCIES
-----------------------

Scaling factor for frequencies =  1.000000000  (already applied!)

     0:       0.00 cm**-1
     1:       0.00 cm**-1
     2:       0.00 cm**-1
     3:       0.00 cm**-1
     4:       0.00 cm**-1
     5:       0.00 cm**-1
     6:      86.59 cm**-1
     7:     102.75 cm**-1
     8:     210.53 cm**-1
     9:     215.51 cm**-1
    10:     224.28 cm**-1
    11:     247.60 cm**-1
    12:     308.84 cm**-1
    13:     330.30 cm**-1
    14:     350.64 cm**-1
    15:     487.60 cm**-1
    16:     505.09 cm**-1
    17:     522.65 cm**-1
    18:     569.98 cm**-1
    19:     599.90 cm**-1
    20:     728.47 cm**-1
    21:     771.71 cm**-1
    22:     814.05 cm**-1
    23:     823.68 cm**-1
    24:     941.50 cm**-1
    25:    1066.65 cm**-1
    26:    1144.13 cm**-1
    27:    1175.87 cm**-1
    28:    1188.14 cm**-1
    29:    1307.37 cm**-1
    30:    1369.84 cm**-1
    31:    1442.40 cm**-1
    32:    1573.73 cm**-1
    33:    1580.07 cm**-1
    34:    3195.96 cm**-1
    35:    3208.60 cm**-1

IR SPECTRUM
-----------

 Mode   freq       eps      Int      T**2         TX        TY        TZ
       cm**-1   L/(mol*cm) km/mol    a.u.
----------------------------------------------------------------------------
  6:     86.59   0.000000    0.00  0.000000  (-0.000000  0.000000 -0.000000)
  7:    102.75   0.000104    0.53  0.000317  (-0.000000 -0.000002  0.017810)
  8:    210.53   0.000032    0.16  0.000048  ( 0.006902 -0.000000  0.000000)
  9:    215.51   0.000002    0.01  0.000003  (-0.000000  0.001637 -0.000000)
 10:    224.28   0.000002    0.01  0.000003  (-0.000000 -0.001827  0.000000)
 11:    247.60   0.000298    1.51  0.000376  (-0.000000  0.000007 -0.019387)
 12:    308.84   0.000000    0.00  0.000000  ( 0.000002 -0.000000  0.000000)
 13:    330.30   0.000001    0.01  0.000001  ( 0.000000 -0.001082  0.000000)
 14:    350.64   0.000021    0.11  0.000019  (-0.004310 -0.000000 -0.000000)
 15:    487.60   0.001008    5.09  0.000645  ( 0.025394 -0.000001  0.000000)
 16:    505.09   0.001749    8.84  0.001081  (-0.000000 -0.032873  0.000002)
 17:    522.65   0.000000    0.00  0.000000  ( 0.000006 -0.000001  0.000000)
 18:    569.98   0.000755    3.81  0.000413  ( 0.000000  0.000009 -0.020328)
 19:    599.90   0.006391   32.30  0.003325  (-0.057660  0.000001 -0.000000)
 20:    728.47   0.000000    0.00  0.000000  (-0.000001  0.000000 -0.000000)
 21:    771.71   0.009118   46.08  0.003687  (-0.060722  0.000002 -0.000000)
 22:    814.05   0.005813   29.37  0.002228  (-0.000000 -0.000000 -0.047204)
 23:    823.68   0.007922   40.04  0.003001  (-0.000002 -0.054785  0.000005)
 24:    941.50   0.000000    0.00  0.000000  ( 0.000001 -0.000000  0.000000)
 25:   1066.65   0.003126   15.80  0.000914  (-0.030240  0.000000 -0.000000)
 26:   1144.13   0.002547   12.87  0.000695  (-0.000001 -0.026358  0.000002)
 27:   1175.87   0.001886    9.53  0.000500  ( 0.000001 -0.022371  0.000001)
 28:   1188.14   0.013382   67.63  0.003515  ( 0.059286 -0.000000  0.000000)
 29:   1307.37   0.000007    0.03  0.000002  ( 0.000001 -0.001265  0.000000)
 30:   1369.84   0.011771   59.48  0.002682  ( 0.000001  0.051783 -0.000002)
 31:   1442.40   0.024403  123.32  0.005280  (-0.072661  0.000001 -0.000000)
 32:   1573.73   0.000207    1.05  0.000041  ( 0.006407 -0.000003  0.000000)
 33:   1580.07   0.001189    6.01  0.000235  ( 0.000002  0.015327 -0.000001)
 34:   3195.96   0.000000    0.00  0.000000  (-0.000078 -0.000000  0.000000)
 35:   3208.60   0.000010    0.05  0.000001  ( 0.000000  0.000988 -0.000000)

--------------------------
THERMOCHEMISTRY AT 298.15K
--------------------------

Temperature         ...   298.15 K
Pressure            ...     1.00 atm
Total Mass          ...   215.89 AMU
Quasi RRHO          ...     True
Cut-Off Frequency   ...     1.00 cm^-1

Throughout the following assumptions are being made:
  (1) The electronic state is orbitally nondegenerate
  (2) There are no thermally accessible electronically excited states
  (3) Hindered rotations indicated by low frequency modes are not
      treated as such but are treated as vibrations and this may
      cause some error
  (4) All equations used are the standard statistical mechanics
      equations for an ideal gas
  (5) All vibrations are strictly harmonic

freq.      86.59  E(vib)   ...       0.48
freq.     102.75  E(vib)   ...       0.46
freq.     210.53  E(vib)   ...       0.34
freq.     215.51  E(vib)   ...       0.34
freq.     224.28  E(vib)   ...       0.33
freq.     247.60  E(vib)   ...       0.31
freq.     308.84  E(vib)   ...       0.26
freq.     330.30  E(vib)   ...       0.24
freq.     350.64  E(vib)   ...       0.23
freq.     487.60  E(vib)   ...       0.15
freq.     505.09  E(vib)   ...       0.14
freq.     522.65  E(vib)   ...       0.13
freq.     569.98  E(vib)   ...       0.11
freq.     599.90  E(vib)   ...       0.10
freq.     728.47  E(vib)   ...       0.06
freq.     771.71  E(vib)   ...       0.05
freq.     814.05  E(vib)   ...       0.05
freq.     823.68  E(vib)   ...       0.05
freq.     941.50  E(vib)   ...       0.03
freq.    1066.65  E(vib)   ...       0.02
freq.    1144.13  E(vib)   ...       0.01
freq.    1175.87  E(vib)   ...       0.01
freq.    1188.14  E(vib)   ...       0.01
freq.    1307.37  E(vib)   ...       0.01
freq.    1369.84  E(vib)   ...       0.01
freq.    1442.40  E(vib)   ...       0.00
freq.    1573.73  E(vib)   ...       0.00
freq.    1580.07  E(vib)   ...       0.00
freq.    3195.96  E(vib)   ...       0.00
freq.    3208.60  E(vib)   ...       0.00

------------
INNER ENERGY
------------

The inner energy is: U= E(el) + E(ZPE) + E(vib) + E(rot) + E(trans)
    E(el)   - is the total energy from the electronic structure calculation
              = E(kin-el) + E(nuc-el) + E(el-el) + E(nuc-nuc)
    E(ZPE)  - the the zero temperature vibrational energy from the frequency calculation
    E(vib)  - the the finite temperature correction to E(ZPE) due to population
              of excited vibrational states
    E(rot)  - is the rotational thermal energy
    E(trans)- is the translational thermal energy

Summary of contributions to the inner energy U:
Electronic energy                ...  -2070.53379814 Eh
Zero point energy                ...      0.06172558 Eh      38.73 kcal/mol
Thermal vibrational correction   ...      0.00623660 Eh       3.91 kcal/mol
Thermal rotational correction    ...      0.00141627 Eh       0.89 kcal/mol
Thermal translational correction ...      0.00141627 Eh       0.89 kcal/mol
-----------------------------------------------------------------------
Total thermal energy                  -2070.46300342 Eh

Summary of corrections to the electronic energy:
(perhaps to be used in another calculation)
Total thermal correction                  0.00906914 Eh       5.69 kcal/mol
Non-thermal (ZPE) correction              0.06172558 Eh      38.73 kcal/mol
-----------------------------------------------------------------------
Total correction                          0.07079472 Eh      44.42 kcal/mol

--------
ENTHALPY
--------

The enthalpy is H = U + kB*T
                kB is Boltzmann's constant
Total thermal energy              ...  -2070.46300342 Eh
Thermal Enthalpy correction       ...      0.00094421 Eh       0.59 kcal/mol
-----------------------------------------------------------------------
Total Enthalpy                    ...  -2070.46205921 Eh

Note: Rotational entropy computed according to Herzberg
Infrared and Raman Spectra, Chapter V,1, Van Nostrand Reinhold, 1945
Point Group:  C2v, Symmetry Number:   2
Rotational constants in cm-1:     0.038182     0.017910     0.012191

Vibrational entropy computed according to the QRRHO of S. Grimme
Chem.Eur.J. 2012 18 9955 using a reference frequency of 100.0 cm-1

-------
ENTROPY
-------

The entropy contributions are T*S = T*(S(el)+S(vib)+S(rot)+S(trans))
     S(el)   - electronic entropy
     S(vib)  - vibrational entropy
     S(rot)  - rotational entropy
     S(trans)- translational entropy
The entropies will be listed as multiplied by the temperature to get
units of energy

Electronic entropy                ...      0.00000000 Eh      0.00 kcal/mol
Vibrational entropy               ...      0.01050960 Eh      6.59 kcal/mol
Rotational entropy                ...      0.01437737 Eh      9.02 kcal/mol
Translational entropy             ...      0.01996123 Eh     12.53 kcal/mol
-----------------------------------------------------------------------
Final entropy term                ...      0.04484820 Eh     28.14 kcal/mol

In case the symmetry of your molecule has not been determined correctly
or in case you have a reason to use a different symmetry number we print
out the resulting rotational entropy values for sn=1,12:

 non-linear molecules -----------------------------------
|  sn= 1 | S(rot)=       0.01503182 Eh      9.43 kcal/mol|
|  sn= 2 | S(rot)=       0.01437737 Eh      9.02 kcal/mol|
|  sn= 3 | S(rot)=       0.01399454 Eh      8.78 kcal/mol|
|  sn= 4 | S(rot)=       0.01372291 Eh      8.61 kcal/mol|
|  sn= 5 | S(rot)=       0.01351222 Eh      8.48 kcal/mol|
|  sn= 6 | S(rot)=       0.01334008 Eh      8.37 kcal/mol|
|  sn= 7 | S(rot)=       0.01319453 Eh      8.28 kcal/mol|
|  sn= 8 | S(rot)=       0.01306846 Eh      8.20 kcal/mol|
|  sn= 9 | S(rot)=       0.01295725 Eh      8.13 kcal/mol|
|  sn=10 | S(rot)=       0.01285777 Eh      8.07 kcal/mol|
|  sn=11 | S(rot)=       0.01276778 Eh      8.01 kcal/mol|
|  sn=12 | S(rot)=       0.01268562 Eh      7.96 kcal/mol|
 linear molecules ---------------------------------------
|  Dinfh | S(rot)=       0.00948684 Eh      5.95 kcal/mol|
|  Cinfv | S(rot)=       0.01014130 Eh      6.36 kcal/mol|
 --------------------------------------------------------

-------------------
GIBBS FREE ENERGY
-------------------

The Gibbs free energy is G = H - T*S

Total enthalpy                    ...  -2070.46205921 Eh
Total entropy correction          ...     -0.04484820 Eh    -28.14 kcal/mol
-----------------------------------------------------------------------
Final Gibbs free energy         ...  -2070.50690741 Eh

For completeness - the Gibbs free energy minus the electronic energy
G-E(el)                           ...      0.02689073 Eh     16.87 kcal/mol

                             ****ORCA TERMINATED NORMALLY****
TOTAL RUN TIME: 0 days 0 hours 10 minutes 43 seconds 239 msec
