                         Program Version 6.0.1  -  RELEASE   -
|  1> ! pbe def2-sv(p) def2/J RI DEFGRID1 loosescf d4 GCP(DFT/SV(P)) printgap
|  2> %output
|  3>     printlevel normal
|  4> end
|  5> * xyz 0 1
|  6> C -2.26403454 -0.2459864867 -0.2128608761
|  7> C -1.6687651896 0.9975815119 -0.3406496326
|  8> C -0.3184781625 1.1498419529 -0.0823851513
|  9> C 0.4506182743 0.0610478599 0.3063817833
| 10> C -0.1507753073 -1.183789881 0.425249132
| 11> C -1.5024382524 -1.3363846402 0.1698717704
| 12> C 1.9272717105 0.2297336017 0.5509407016
| 13> O 2.5849709855 0.2347819771 -0.703726914
| 14> H -3.3187744626 -0.3652122262 -0.4132120242
| 15> H -2.2587313477 1.8511178871 -0.6414048391
| 16> H 0.1467192681 2.1191926682 -0.1855147325
| 17> H 0.4417541306 -2.0380945283 0.7195797788
| 18> H -1.9615056867 -2.3094076495 0.2678348153
| 19> H 2.111148271 1.1775066075 1.079473066
| 20> H 2.3005501641 -0.595210915 1.1749295534
| 21> H 3.5310268196 0.3413857953 -0.561410159
| 22> *
| 23>
| 24>                          ****END OF INPUT****

CARTESIAN COORDINATES (ANGSTROEM)
---------------------------------
  C     -2.264035   -0.245986   -0.212861
  C     -1.668765    0.997582   -0.340650
  C     -0.318478    1.149842   -0.082385
  C      0.450618    0.061048    0.306382
  C     -0.150775   -1.183790    0.425249
  C     -1.502438   -1.336385    0.169872
  C      1.927272    0.229734    0.550941
  O      2.584971    0.234782   -0.703727
  H     -3.318774   -0.365212   -0.413212
  H     -2.258731    1.851118   -0.641405
  H      0.146719    2.119193   -0.185515
  H      0.441754   -2.038095    0.719580
  H     -1.961506   -2.309408    0.267835
  H      2.111148    1.177507    1.079473
  H      2.300550   -0.595211    1.174930
  H      3.531027    0.341386   -0.561410

 Total Charge           Charge          ....    0
 Multiplicity           Mult            ....    1
 Number of Electrons    NEL             ....   58
 Basis Dimension        Dim             ....  128

ORBITAL ENERGIES
----------------

  NO   OCC          E(Eh)            E(eV)
   0   2.0000     -18.740819      -509.9636
   1   2.0000      -9.934107      -270.3208
   2   2.0000      -9.897956      -269.3371
   3   2.0000      -9.890444      -269.1327
   4   2.0000      -9.890131      -269.1242
   5   2.0000      -9.889963      -269.1196
   6   2.0000      -9.889739      -269.1135
   7   2.0000      -9.889698      -269.1124
   8   2.0000      -0.918158       -24.9843
   9   2.0000      -0.775417       -21.1002
  10   2.0000      -0.687875       -18.7180
  11   2.0000      -0.668356       -18.1869
  12   2.0000      -0.602766       -16.4021
  13   2.0000      -0.542155       -14.7528
  14   2.0000      -0.519599       -14.1390
  15   2.0000      -0.463242       -12.6055
  16   2.0000      -0.461693       -12.5633
  17   2.0000      -0.420747       -11.4491
  18   2.0000      -0.400715       -10.9040
  19   2.0000      -0.374751       -10.1975
  20   2.0000      -0.369906       -10.0656
  21   2.0000      -0.363753        -9.8982
  22   2.0000      -0.328322        -8.9341
  23   2.0000      -0.310714        -8.4550
  24   2.0000      -0.297609        -8.0984
  25   2.0000      -0.275460        -7.4957
  26   2.0000      -0.228807        -6.2261
  27   2.0000      -0.226101        -6.1525
  28   2.0000      -0.212270        -5.7761
  29   0.0000      -0.038449        -1.0463
  30   0.0000      -0.031860        -0.8669
  31   0.0000       0.033629         0.9151
  32   0.0000       0.048275         1.3136
  33   0.0000       0.074400         2.0245

MULLIKEN ATOMIC CHARGES
-----------------------
   0 C :   -0.045652
   1 C :   -0.049920
   2 C :   -0.093239
   3 C :    0.057624
   4 C :   -0.101361
   5 C :   -0.051290
   6 C :    0.050647
   7 O :   -0.432778
   8 H :    0.053473
   9 H :    0.052247
  10 H :    0.043120
  11 H :    0.040877
  12 H :    0.051589
  13 H :    0.067326
  14 H :    0.063478
  15 H :    0.293858
Sum of atomic charges:   -0.0000000

LOEWDIN ATOMIC CHARGES
----------------------
   0 C :   -0.121668
   1 C :   -0.121823
   2 C :   -0.108042
   3 C :   -0.052035
   4 C :   -0.113637
   5 C :   -0.122541
   6 C :   -0.105379
   7 O :   -0.346961
   8 H :    0.123208
   9 H :    0.123267
  10 H :    0.124072
  11 H :    0.122496
  12 H :    0.123170
  13 H :    0.098042
  14 H :    0.096030
  15 H :    0.281802

  Mayer bond orders larger than 0.100000
B(  0-C ,  1-C ) :   1.3776 B(  0-C ,  5-C ) :   1.3863 B(  0-C ,  8-H ) :   0.9650
B(  1-C ,  2-C ) :   1.3754 B(  1-C ,  9-H ) :   0.9638 B(  2-C ,  3-C ) :   1.3975
B(  2-C , 10-H ) :   0.9639 B(  3-C ,  4-C ) :   1.4105 B(  3-C ,  6-C ) :   1.0570
B(  4-C ,  5-C ) :   1.3702 B(  4-C , 11-H ) :   0.9604 B(  5-C , 12-H ) :   0.9631
B(  6-C ,  7-O ) :   1.1113 B(  6-C , 13-H ) :   0.9037 B(  6-C , 14-H ) :   0.9061
B(  7-O , 15-H ) :   0.8528

Dispersion correction           -0.015345040
FINAL SINGLE POINT ENERGY      -346.002458935660

DIPOLE MOMENT
-------------

Method             : SCF
Type of density    : Electron Density
Multiplicity       :   1
Irrep              :   0
Energy             :  -346.0536878478631024 Eh
Relativity type    :
Basis              : AO
                                X                 Y                 Z
Electronic contribution:     -0.626408986      -0.103612650      -0.907206182
Nuclear contribution   :      0.969141502       0.173547936       1.340795250
                        -----------------------------------------
Total Dipole Moment    :      0.342732516       0.069935286       0.433589069
                        -----------------------------------------
Magnitude (a.u.)       :      0.557096044
Magnitude (Debye)      :      1.416025610

Rotational constants in cm-1:             0.158846             0.049525             0.040848
Rotational constants in MHz :          4762.084169          1484.729945          1224.586305

                             ****ORCA TERMINATED NORMALLY****
TOTAL RUN TIME: 0 days 0 hours 1 minutes 12 seconds 661 msec
