                         Program Version 6.0.1  -  RELEASE   -
|  1> ! pbe def2-sv(p) def2/J RI DEFGRID1 loosescf d4 GCP(DFT/SV(P)) printgap
|  2> %output
|  3>     printlevel normal
|  4> end
|  5> * xyz 0 1
|  6> C 3.6884700988 -0.2853734159 0.1422908423
|  7> C 2.2058160619 -0.1840169939 0.0037055188
|  8> C 1.5651199475 0.9887122515 -0.035725498
|  9> C 0.1193957005 1.1310352776 -0.2162950436
| 10> O -0.4146941787 2.2203663456 -0.2468489733
| 11> C -0.649668112 -0.1682261815 -0.4259669682
| 12> H -0.5355566891 -0.3960649567 -1.4961937715
| 13> C 0.0100016964 -1.2949875856 0.3675110283
| 14> C 1.4526837535 -1.4752726212 -0.092215448
| 15> C -2.1513112601 0.0287202157 -0.1521053048
| 16> C -2.9874369168 -1.0956421231 -0.757897946
| 17> C -2.4505641259 0.1763571403 1.3379096607
| 18> H 3.9422502924 -0.7604759778 1.0900878877
| 19> H 4.1579883446 0.6936832171 0.1056604978
| 20> H 4.0971826333 -0.9065399471 -0.6541251954
| 21> H 2.108848214 1.9198698564 0.0484730296
| 22> H 0.0063112078 -1.0466859002 1.4302275081
| 23> H -0.542331257 -2.2256905373 0.2303928901
| 24> H 1.9525742712 -2.2425667435 0.5035693019
| 25> H 1.4677579193 -1.8127892017 -1.1350025894
| 26> H -2.4290155282 0.9682356997 -0.6424728967
| 27> H -4.0459927497 -0.8853631276 -0.6244515983
| 28> H -2.7712301376 -2.0470226738 -0.2763302058
| 29> H -2.7919679444 -1.1949104602 -1.8236447116
| 30> H -1.8258424702 0.951492555 1.7747049021
| 31> H -2.2805146454 -0.758124474 1.8681459383
| 32> H -3.4909671261 0.4600523411 1.4791434004
| 33> *
| 34>
| 35>                          ****END OF INPUT****

CARTESIAN COORDINATES (ANGSTROEM)
---------------------------------
  C      3.688470   -0.285373    0.142291
  C      2.205816   -0.184017    0.003706
  C      1.565120    0.988712   -0.035725
  C      0.119396    1.131035   -0.216295
  O     -0.414694    2.220366   -0.246849
  C     -0.649668   -0.168226   -0.425967
  H     -0.535557   -0.396065   -1.496194
  C      0.010002   -1.294988    0.367511
  C      1.452684   -1.475273   -0.092215
  C     -2.151311    0.028720   -0.152105
  C     -2.987437   -1.095642   -0.757898
  C     -2.450564    0.176357    1.337910
  H      3.942250   -0.760476    1.090088
  H      4.157988    0.693683    0.105660
  H      4.097183   -0.906540   -0.654125
  H      2.108848    1.919870    0.048473
  H      0.006311   -1.046686    1.430228
  H     -0.542331   -2.225691    0.230393
  H      1.952574   -2.242567    0.503569
  H      1.467758   -1.812789   -1.135003
  H     -2.429016    0.968236   -0.642473
  H     -4.045993   -0.885363   -0.624452
  H     -2.771230   -2.047023   -0.276330
  H     -2.791968   -1.194910   -1.823645
  H     -1.825842    0.951493    1.774705
  H     -2.280515   -0.758124    1.868146
  H     -3.490967    0.460052    1.479143

 Total Charge           Charge          ....    0
 Multiplicity           Mult            ....    1
 Number of Electrons    NEL             ....   84
 Basis Dimension        Dim             ....  186

ORBITAL ENERGIES
----------------

  NO   OCC          E(Eh)            E(eV)
   0   2.0000     -18.725555      -509.5483
   1   2.0000      -9.960841      -271.0483
   2   2.0000      -9.922197      -269.9967
   3   2.0000      -9.902521      -269.4613
   4   2.0000      -9.895965      -269.2829
   5   2.0000      -9.895892      -269.2809
   6   2.0000      -9.895023      -269.2573
   7   2.0000      -9.888970      -269.0926
   8   2.0000      -9.887424      -269.0505
   9   2.0000      -9.870787      -268.5978
  10   2.0000      -9.867091      -268.4972
  11   2.0000      -0.927241       -25.2315
  12   2.0000      -0.774500       -21.0752
  13   2.0000      -0.730129       -19.8678
  14   2.0000      -0.682584       -18.5741
  15   2.0000      -0.655003       -17.8235
  16   2.0000      -0.620238       -16.8775
  17   2.0000      -0.607168       -16.5219
  18   2.0000      -0.560773       -15.2594
  19   2.0000      -0.519050       -14.1241
  20   2.0000      -0.490311       -13.3420
  21   2.0000      -0.463707       -12.6181
  22   2.0000      -0.431034       -11.7290
  23   2.0000      -0.422107       -11.4861
  24   2.0000      -0.403884       -10.9902
  25   2.0000      -0.395401       -10.7594
  26   2.0000      -0.386031       -10.5044
  27   2.0000      -0.377416       -10.2700
  28   2.0000      -0.372542       -10.1374
  29   2.0000      -0.361327        -9.8322
  30   2.0000      -0.347792        -9.4639
  31   2.0000      -0.343901        -9.3580
  32   2.0000      -0.339206        -9.2303
  33   2.0000      -0.326814        -8.8931
  34   2.0000      -0.320575        -8.7233
  35   2.0000      -0.310684        -8.4542
  36   2.0000      -0.300700        -8.1825
  37   2.0000      -0.283146        -7.7048
  38   2.0000      -0.277066        -7.5393
  39   2.0000      -0.267670        -7.2837
  40   2.0000      -0.233825        -6.3627
  41   2.0000      -0.187014        -5.0889
  42   0.0000      -0.076345        -2.0775
  43   0.0000       0.014214         0.3868
  44   0.0000       0.035675         0.9708
  45   0.0000       0.048328         1.3151
  46   0.0000       0.063107         1.7172

MULLIKEN ATOMIC CHARGES
-----------------------
   0 C :   -0.217470
   1 C :   -0.094942
   2 C :   -0.111270
   3 C :    0.087137
   4 O :   -0.164699
   5 C :   -0.190302
   6 H :    0.085250
   7 C :   -0.154710
   8 C :   -0.070645
   9 C :   -0.111747
  10 C :   -0.235450
  11 C :   -0.265490
  12 H :    0.122182
  13 H :    0.111823
  14 H :    0.118134
  15 H :    0.041051
  16 H :    0.101638
  17 H :    0.087206
  18 H :    0.089749
  19 H :    0.099346
  20 H :    0.082226
  21 H :    0.099158
  22 H :    0.093435
  23 H :    0.092584
  24 H :    0.111495
  25 H :    0.094867
  26 H :    0.099446
Sum of atomic charges:    0.0000000

LOEWDIN ATOMIC CHARGES
----------------------
   0 C :   -0.321960
   1 C :   -0.016526
   2 C :   -0.171536
   3 C :    0.039012
   4 O :   -0.130172
   5 C :   -0.160119
   6 H :    0.134319
   7 C :   -0.209849
   8 C :   -0.212283
   9 C :   -0.149012
  10 C :   -0.329155
  11 C :   -0.330417
  12 H :    0.137537
  13 H :    0.129059
  14 H :    0.135497
  15 H :    0.127449
  16 H :    0.123310
  17 H :    0.119005
  18 H :    0.124893
  19 H :    0.135990
  20 H :    0.123911
  21 H :    0.119548
  22 H :    0.111945
  23 H :    0.115073
  24 H :    0.121355
  25 H :    0.112706
  26 H :    0.120421

  Mayer bond orders larger than 0.100000
B(  0-C ,  1-C ) :   1.1260 B(  0-C , 12-H ) :   0.9230 B(  0-C , 13-H ) :   0.9425
B(  0-C , 14-H ) :   0.9290 B(  1-C ,  2-C ) :   1.7309 B(  1-C ,  8-C ) :   1.0705
B(  2-C ,  3-C ) :   1.0601 B(  2-C , 15-H ) :   0.9352 B(  3-C ,  4-O ) :   2.1061
B(  3-C ,  5-C ) :   0.9364 B(  5-C ,  6-H ) :   0.8588 B(  5-C ,  7-C ) :   1.0610
B(  5-C ,  9-C ) :   1.0538 B(  7-C ,  8-C ) :   1.1255 B(  7-C , 16-H ) :   0.9095
B(  7-C , 17-H ) :   0.9077 B(  8-C , 18-H ) :   0.9071 B(  8-C , 19-H ) :   0.8723
B(  9-C , 10-C ) :   1.1132 B(  9-C , 11-C ) :   1.1108 B(  9-C , 20-H ) :   0.8792
B( 10-C , 21-H ) :   0.9504 B( 10-C , 22-H ) :   0.9405 B( 10-C , 23-H ) :   0.9491
B( 11-C , 24-H ) :   0.9467 B( 11-C , 25-H ) :   0.9414 B( 11-C , 26-H ) :   0.9485

Dispersion correction           -0.028118148
FINAL SINGLE POINT ENERGY      -464.845750714401

DIPOLE MOMENT
-------------

Method             : SCF
Type of density    : Electron Density
Multiplicity       :   1
Irrep              :   0
Energy             :  -464.9312860755369456 Eh
Relativity type    :
Basis              : AO
                                X                 Y                 Z
Electronic contribution:      3.611932149       7.478152519      -1.742776319
Nuclear contribution   :     -2.802360114      -8.675981226       1.758389292
                        -----------------------------------------
Total Dipole Moment    :      0.809572035      -1.197828707       0.015612973
                        -----------------------------------------
Magnitude (a.u.)       :      1.445836871
Magnitude (Debye)      :      3.675025267

Rotational constants in cm-1:             0.066572             0.024268             0.020124
Rotational constants in MHz :          1995.764199           727.545498           603.294327

                             ****ORCA TERMINATED NORMALLY****
TOTAL RUN TIME: 0 days 0 hours 0 minutes 29 seconds 174 msec
