                         Program Version 6.0.1  -  RELEASE   -
|  1> ! pbe def2-sv(p) def2/J RI DEFGRID1 loosescf d4 GCP(DFT/SV(P)) printgap
|  2> %output
|  3>     printlevel normal
|  4> end
|  5> * xyz 0 1
|  6> C -2.7884963369 0.236584202 -1.2688568559
|  7> C -2.3385205239 0.2187911707 0.191166329
|  8> H -3.2367387055 0.3334297259 0.8085040926
|  9> C -1.3860081368 1.3681389918 0.5212697497
| 10> C -0.1190444671 1.3214887866 -0.3289702533
| 11> C 0.4788854828 -0.0957625062 -0.4315324085
| 12> H 0.1860551088 -0.5187594913 -1.40226908
| 13> C -0.1400342794 -1.0502222957 0.5714295079
| 14> O 0.5071484203 -1.7872513529 1.2741428724
| 15> C -1.6539221188 -1.0991810407 0.5775011573
| 16> C 2.0191511473 -0.1359770843 -0.3804298265
| 17> C 2.6186523172 0.5787186679 -1.5896382874
| 18> C 2.5953464848 0.4263137639 0.9175111454
| 19> H -3.2075982775 1.2083699592 -1.5210432591
| 20> H -1.9647266235 0.0317163927 -1.9461598346
| 21> H -3.5570089667 -0.5160954043 -1.4326601278
| 22> H -1.8865537424 2.3268774105 0.3716389686
| 23> H -1.1153890179 1.2936754714 1.5776441255
| 24> H -0.3370205527 1.6969726826 -1.3297155831
| 25> H 0.6131773974 1.9949621224 0.1142551576
| 26> H -1.9433052472 -1.8965978814 -0.1127910826
| 27> H -1.9605815334 -1.4215124264 1.5748975976
| 28> H 2.3007091884 -1.193944197 -0.428792449
| 29> H 2.2430831173 0.1532237141 -2.5182627859
| 30> H 3.7015254649 0.4793315308 -1.5838345665
| 31> H 2.3755002381 1.6386754724 -1.5739208075
| 32> H 3.6694062842 0.2573322864 0.9424800411
| 33> H 2.1526729545 -0.0734333762 1.773935539
| 34> H 2.4248429466 1.4969552951 1.0054724455
| 35> *
| 36>
| 37>                          ****END OF INPUT****

CARTESIAN COORDINATES (ANGSTROEM)
---------------------------------
  C     -2.788496    0.236584   -1.268857
  C     -2.338521    0.218791    0.191166
  H     -3.236739    0.333430    0.808504
  C     -1.386008    1.368139    0.521270
  C     -0.119044    1.321489   -0.328970
  C      0.478885   -0.095763   -0.431532
  H      0.186055   -0.518759   -1.402269
  C     -0.140034   -1.050222    0.571430
  O      0.507148   -1.787251    1.274143
  C     -1.653922   -1.099181    0.577501
  C      2.019151   -0.135977   -0.380430
  C      2.618652    0.578719   -1.589638
  C      2.595346    0.426314    0.917511
  H     -3.207598    1.208370   -1.521043
  H     -1.964727    0.031716   -1.946160
  H     -3.557009   -0.516095   -1.432660
  H     -1.886554    2.326877    0.371639
  H     -1.115389    1.293675    1.577644
  H     -0.337021    1.696973   -1.329716
  H      0.613177    1.994962    0.114255
  H     -1.943305   -1.896598   -0.112791
  H     -1.960582   -1.421512    1.574898
  H      2.300709   -1.193944   -0.428792
  H      2.243083    0.153224   -2.518263
  H      3.701525    0.479332   -1.583835
  H      2.375500    1.638675   -1.573921
  H      3.669406    0.257332    0.942480
  H      2.152673   -0.073433    1.773936
  H      2.424843    1.496955    1.005472

 Total Charge           Charge          ....    0
 Multiplicity           Mult            ....    1
 Number of Electrons    NEL             ....   86
 Basis Dimension        Dim             ....  190

ORBITAL ENERGIES
----------------

  NO   OCC          E(Eh)            E(eV)
   0   2.0000     -18.733827      -509.7733
   1   2.0000      -9.969080      -271.2725
   2   2.0000      -9.904426      -269.5131
   3   2.0000      -9.899819      -269.3878
   4   2.0000      -9.893483      -269.2154
   5   2.0000      -9.891382      -269.1582
   6   2.0000      -9.890269      -269.1279
   7   2.0000      -9.888944      -269.0918
   8   2.0000      -9.882027      -268.9036
   9   2.0000      -9.871522      -268.6178
  10   2.0000      -9.863956      -268.4119
  11   2.0000      -0.937878       -25.5210
  12   2.0000      -0.766958       -20.8700
  13   2.0000      -0.726875       -19.7793
  14   2.0000      -0.671979       -18.2855
  15   2.0000      -0.653219       -17.7750
  16   2.0000      -0.620213       -16.8769
  17   2.0000      -0.606731       -16.5100
  18   2.0000      -0.562137       -15.2965
  19   2.0000      -0.517911       -14.0931
  20   2.0000      -0.497932       -13.5494
  21   2.0000      -0.448076       -12.1928
  22   2.0000      -0.440089       -11.9754
  23   2.0000      -0.423219       -11.5164
  24   2.0000      -0.422151       -11.4873
  25   2.0000      -0.402190       -10.9442
  26   2.0000      -0.387832       -10.5534
  27   2.0000      -0.376104       -10.2343
  28   2.0000      -0.369523       -10.0552
  29   2.0000      -0.353721        -9.6252
  30   2.0000      -0.352018        -9.5789
  31   2.0000      -0.342923        -9.3314
  32   2.0000      -0.337720        -9.1898
  33   2.0000      -0.328557        -8.9405
  34   2.0000      -0.320861        -8.7311
  35   2.0000      -0.313241        -8.5237
  36   2.0000      -0.301719        -8.2102
  37   2.0000      -0.290606        -7.9078
  38   2.0000      -0.288395        -7.8476
  39   2.0000      -0.276956        -7.5364
  40   2.0000      -0.269890        -7.3441
  41   2.0000      -0.267982        -7.2921
  42   2.0000      -0.189079        -5.1451
  43   0.0000      -0.049368        -1.3434
  44   0.0000       0.024422         0.6645
  45   0.0000       0.038305         1.0423
  46   0.0000       0.052077         1.4171
  47   0.0000       0.063728         1.7341

MULLIKEN ATOMIC CHARGES
-----------------------
   0 C :   -0.268980
   1 C :   -0.174895
   2 H :    0.075609
   3 C :   -0.103563
   4 C :   -0.155676
   5 C :   -0.133811
   6 H :    0.091496
   7 C :   -0.027652
   8 O :   -0.152334
   9 C :   -0.066128
  10 C :   -0.139109
  11 C :   -0.230063
  12 C :   -0.262174
  13 H :    0.102526
  14 H :    0.108459
  15 H :    0.105480
  16 H :    0.085620
  17 H :    0.087222
  18 H :    0.086959
  19 H :    0.099992
  20 H :    0.107880
  21 H :    0.094878
  22 H :    0.074200
  23 H :    0.091242
  24 H :    0.099973
  25 H :    0.095326
  26 H :    0.097390
  27 H :    0.117848
  28 H :    0.092286
Sum of atomic charges:    0.0000000

LOEWDIN ATOMIC CHARGES
----------------------
   0 C :   -0.333415
   1 C :   -0.152356
   2 H :    0.120255
   3 C :   -0.218145
   4 C :   -0.215457
   5 C :   -0.164002
   6 H :    0.138035
   7 C :    0.050415
   8 O :   -0.118474
   9 C :   -0.239335
  10 C :   -0.145674
  11 C :   -0.328999
  12 C :   -0.335662
  13 H :    0.120209
  14 H :    0.115721
  15 H :    0.121190
  16 H :    0.118533
  17 H :    0.119350
  18 H :    0.119634
  19 H :    0.123785
  20 H :    0.143181
  21 H :    0.135291
  22 H :    0.121419
  23 H :    0.114464
  24 H :    0.119299
  25 H :    0.115341
  26 H :    0.120652
  27 H :    0.123691
  28 H :    0.111057

  Mayer bond orders larger than 0.100000
B(  0-C ,  1-C ) :   1.0957 B(  0-C , 13-H ) :   0.9479 B(  0-C , 14-H ) :   0.9415
B(  0-C , 15-H ) :   0.9464 B(  1-C ,  2-H ) :   0.8991 B(  1-C ,  3-C ) :   1.1311
B(  1-C ,  9-C ) :   1.0389 B(  3-C ,  4-C ) :   1.1723 B(  3-C , 16-H ) :   0.9153
B(  3-C , 17-H ) :   0.8978 B(  4-C ,  5-C ) :   1.0515 B(  4-C , 18-H ) :   0.9008
B(  4-C , 19-H ) :   0.9024 B(  5-C ,  6-H ) :   0.8398 B(  5-C ,  7-C ) :   0.9776
B(  5-C , 10-C ) :   1.0514 B(  7-C ,  8-O ) :   2.1702 B(  7-C ,  9-C ) :   1.0443
B(  9-C , 20-H ) :   0.8817 B(  9-C , 21-H ) :   0.8896 B( 10-C , 11-C ) :   1.1123
B( 10-C , 12-C ) :   1.1130 B( 10-C , 22-H ) :   0.8882 B( 11-C , 23-H ) :   0.9482
B( 11-C , 24-H ) :   0.9510 B( 11-C , 25-H ) :   0.9422 B( 12-C , 26-H ) :   0.9477
B( 12-C , 27-H ) :   0.9423 B( 12-C , 28-H ) :   0.9381

Dispersion correction           -0.030682197
FINAL SINGLE POINT ENERGY      -466.027934504865

DIPOLE MOMENT
-------------

Method             : SCF
Type of density    : Electron Density
Multiplicity       :   1
Irrep              :   0
Energy             :  -466.1242870819479549 Eh
Relativity type    :
Basis              : AO
                                X                 Y                 Z
Electronic contribution:     -1.035233861      -6.242298107       4.745522281
Nuclear contribution   :      0.437249317       6.813822036      -5.310463456
                        -----------------------------------------
Total Dipole Moment    :     -0.597984544       0.571523929      -0.564941175
                        -----------------------------------------
Magnitude (a.u.)       :      1.001690395
Magnitude (Debye)      :      2.546094643

Rotational constants in cm-1:             0.057010             0.026880             0.022557
Rotational constants in MHz :          1709.114998           805.827687           676.248168

                             ****ORCA TERMINATED NORMALLY****
TOTAL RUN TIME: 0 days 0 hours 0 minutes 18 seconds 283 msec
