                         Program Version 6.0.1  -  RELEASE   -
|  1> ! r2scan-3c def2/J RI DEFGRID2 scfconv6 printgap
|  2> %output
|  3>     printlevel normal
|  4> end
|  5> * xyz 0 1
|  6> C -3.3477536813 -0.0030187947 -0.5255607966
|  7> C -2.7112365462 -1.2000928619 -0.2440084027
|  8> C -1.445815714 -1.1981976029 0.31380865
|  9> C -0.8072587258 0.0026800036 0.6009417976
| 10> C -1.4489093144 1.2007061143 0.3086992178
| 11> C -2.71426794 1.1969223539 -0.2491350782
| 12> C 0.5625617094 0.0056741303 1.1862300781
| 13> Br 1.9308913136 -0.0008371427 -0.2431080898
| 14> H -4.3350436912 -0.0050795693 -0.9625680892
| 15> H -3.199801975 -2.1381399539 -0.4614256576
| 16> H -0.9475046302 -2.1333478474 0.5270326453
| 17> H -0.952929628 2.1379920291 0.5179265904
| 18> H -3.2053518424 2.1326981197 -0.4706271888
| 19> H 0.7631206881 -0.8862829337 1.7771959157
| 20> H 0.7625815263 0.9028353563 1.7694620028
| 21> *
| 22>
| 23>                          ****END OF INPUT****

CARTESIAN COORDINATES (ANGSTROEM)
---------------------------------
  C     -3.347754   -0.003019   -0.525561
  C     -2.711237   -1.200093   -0.244008
  C     -1.445816   -1.198198    0.313809
  C     -0.807259    0.002680    0.600942
  C     -1.448909    1.200706    0.308699
  C     -2.714268    1.196922   -0.249135
  C      0.562562    0.005674    1.186230
  Br     1.930891   -0.000837   -0.243108
  H     -4.335044   -0.005080   -0.962568
  H     -3.199802   -2.138140   -0.461426
  H     -0.947505   -2.133348    0.527033
  H     -0.952930    2.137992    0.517927
  H     -3.205352    2.132698   -0.470627
  H      0.763121   -0.886283    1.777196
  H      0.762582    0.902835    1.769462

 Total Charge           Charge          ....    0
 Multiplicity           Mult            ....    1
 Number of Electrons    NEL             ....   84
 Basis Dimension        Dim             ....  204

ORBITAL ENERGIES
----------------

  NO   OCC          E(Eh)            E(eV)
   0   2.0000    -482.213752    -13121.7033
   1   2.0000     -62.285531     -1694.8755
   2   2.0000     -56.066032     -1525.6343
   3   2.0000     -56.063318     -1525.5605
   4   2.0000     -56.063191     -1525.5570
   5   2.0000     -10.097463      -274.7659
   6   2.0000     -10.058321      -273.7008
   7   2.0000     -10.045853      -273.3616
   8   2.0000     -10.045837      -273.3611
   9   2.0000     -10.045110      -273.3413
  10   2.0000     -10.044827      -273.3336
  11   2.0000     -10.044469      -273.3239
  12   2.0000      -8.617372      -234.4906
  13   2.0000      -6.425034      -174.8341
  14   2.0000      -6.411074      -174.4542
  15   2.0000      -6.411021      -174.4527
  16   2.0000      -2.522500       -68.6407
  17   2.0000      -2.519074       -68.5475
  18   2.0000      -2.519032       -68.5463
  19   2.0000      -2.508650       -68.2638
  20   2.0000      -2.508648       -68.2638
  21   2.0000      -0.844282       -22.9741
  22   2.0000      -0.782334       -21.2884
  23   2.0000      -0.727892       -19.8070
  24   2.0000      -0.721399       -19.6303
  25   2.0000      -0.642084       -17.4720
  26   2.0000      -0.588719       -16.0199
  27   2.0000      -0.563870       -15.3437
  28   2.0000      -0.495545       -13.4845
  29   2.0000      -0.452797       -12.3212
  30   2.0000      -0.439049       -11.9471
  31   2.0000      -0.402962       -10.9652
  32   2.0000      -0.402594       -10.9551
  33   2.0000      -0.388818       -10.5803
  34   2.0000      -0.386066       -10.5054
  35   2.0000      -0.343216        -9.3394
  36   2.0000      -0.328950        -8.9512
  37   2.0000      -0.321624        -8.7518
  38   2.0000      -0.257347        -7.0028
  39   2.0000      -0.254114        -6.9148
  40   2.0000      -0.245316        -6.6754
  41   2.0000      -0.236896        -6.4463
  42   0.0000      -0.065950        -1.7946
  43   0.0000      -0.042074        -1.1449
  44   0.0000      -0.002254        -0.0613
  45   0.0000       0.067512         1.8371
  46   0.0000       0.098443         2.6788

MULLIKEN ATOMIC CHARGES
-----------------------
   0 C :   -0.134770
   1 C :   -0.153808
   2 C :   -0.182166
   3 C :    0.171403
   4 C :   -0.182228
   5 C :   -0.153820
   6 C :   -0.291728
   7 Br:   -0.162259
   8 H :    0.148883
   9 H :    0.147825
  10 H :    0.150836
  11 H :    0.150782
  12 H :    0.147821
  13 H :    0.171620
  14 H :    0.171610
Sum of atomic charges:   -0.0000000

LOEWDIN ATOMIC CHARGES
----------------------
   0 C :   -0.158901
   1 C :   -0.157018
   2 C :   -0.148632
   3 C :   -0.134568
   4 C :   -0.148662
   5 C :   -0.157038
   6 C :   -0.355550
   7 Br:    0.073724
   8 H :    0.168719
   9 H :    0.169136
  10 H :    0.172645
  11 H :    0.172611
  12 H :    0.169133
  13 H :    0.167212
  14 H :    0.167190

  Mayer bond orders larger than 0.100000
B(  0-C ,  1-C ) :   1.4233 B(  0-C ,  5-C ) :   1.4234 B(  0-C ,  8-H ) :   0.9468
B(  1-C ,  2-C ) :   1.4582 B(  1-C ,  9-H ) :   0.9479 B(  2-C ,  3-C ) :   1.3931
B(  2-C , 10-H ) :   0.9383 B(  3-C ,  4-C ) :   1.3930 B(  3-C ,  6-C ) :   0.8399
B(  4-C ,  5-C ) :   1.4583 B(  4-C , 11-H ) :   0.9382 B(  5-C , 12-H ) :   0.9479
B(  6-C ,  7-Br) :   1.0140 B(  6-C , 13-H ) :   0.9736 B(  6-C , 14-H ) :   0.9736

Dispersion correction           -0.005294042
FINAL SINGLE POINT ENERGY     -2845.022495121922

DIPOLE MOMENT
-------------

Method             : SCF
Type of density    : Electron Density
Multiplicity       :   1
Irrep              :   0
Energy             : -2845.0215121397250186 Eh
Relativity type    :
Basis              : AO
                                X                 Y                 Z
Electronic contribution:     27.600190661      -0.016004616      -4.338922763
Nuclear contribution   :    -28.356239501       0.017788165       4.787537668
                        -----------------------------------------
Total Dipole Moment    :     -0.756048840       0.001783549       0.448614905
                        -----------------------------------------
Magnitude (a.u.)       :      0.879129321
Magnitude (Debye)      :      2.234569149

Rotational constants in cm-1:             0.129280             0.022323             0.020995
Rotational constants in MHz :          3875.709580           669.218212           629.428105

                             ****ORCA TERMINATED NORMALLY****
TOTAL RUN TIME: 0 days 0 hours 0 minutes 29 seconds 438 msec
