                         Program Version 6.0.1  -  RELEASE   -
|  1> ! pbe def2-sv(p) def2/J RI DEFGRID1 loosescf d4 GCP(DFT/SV(P)) printgap
|  2> %output
|  3>     printlevel normal
|  4> end
|  5> * xyz 0 1
|  6> C -1.836117311 -0.8397812924 0.4617062066
|  7> S -0.8960444009 0.4156584851 -0.4736590524
|  8> S 0.8960313222 0.4156725228 0.4736556405
|  9> C 1.8361417586 -0.839780732 -0.4616933044
| 10> H -2.8402365275 -0.8326766047 0.0523995023
| 11> H -1.8529559594 -0.5648878768 1.511095761
| 12> H -1.3830453576 -1.8167107664 0.3245302663
| 13> H 1.3842443682 -1.8170638285 -0.3229730039
| 14> H 2.8408078241 -0.8312501384 -0.0537253532
| 15> H 1.8513103308 -0.5658785291 -1.5113723999
| 16> *
| 17>
| 18>                          ****END OF INPUT****

CARTESIAN COORDINATES (ANGSTROEM)
---------------------------------
  C     -1.836117   -0.839781    0.461706
  S     -0.896044    0.415658   -0.473659
  S      0.896031    0.415673    0.473656
  C      1.836142   -0.839781   -0.461693
  H     -2.840237   -0.832677    0.052400
  H     -1.852956   -0.564888    1.511096
  H     -1.383045   -1.816711    0.324530
  H      1.384244   -1.817064   -0.322973
  H      2.840808   -0.831250   -0.053725
  H      1.851310   -0.565879   -1.511372

 Total Charge           Charge          ....    0
 Multiplicity           Mult            ....    1
 Number of Electrons    NEL             ....   50
 Basis Dimension        Dim             ....   76

ORBITAL ENERGIES
----------------

  NO   OCC          E(Eh)            E(eV)
   0   2.0000     -88.039708     -2395.6823
   1   2.0000     -88.039691     -2395.6818
   2   2.0000      -9.909436      -269.6495
   3   2.0000      -9.909422      -269.6491
   4   2.0000      -7.683412      -209.0763
   5   2.0000      -7.683398      -209.0759
   6   2.0000      -5.712876      -155.4552
   7   2.0000      -5.712693      -155.4503
   8   2.0000      -5.707888      -155.3195
   9   2.0000      -5.707834      -155.3180
  10   2.0000      -5.699293      -155.0857
  11   2.0000      -5.699292      -155.0856
  12   2.0000      -0.752208       -20.4686
  13   2.0000      -0.680491       -18.5171
  14   2.0000      -0.606134       -16.4938
  15   2.0000      -0.521609       -14.1937
  16   2.0000      -0.406826       -11.0703
  17   2.0000      -0.391798       -10.6614
  18   2.0000      -0.390759       -10.6331
  19   2.0000      -0.378305       -10.2942
  20   2.0000      -0.357246        -9.7212
  21   2.0000      -0.320750        -8.7280
  22   2.0000      -0.283860        -7.7242
  23   2.0000      -0.201329        -5.4785
  24   2.0000      -0.199887        -5.4392
  25   0.0000      -0.029567        -0.8046
  26   0.0000       0.021112         0.5745
  27   0.0000       0.022610         0.6153
  28   0.0000       0.047022         1.2795
  29   0.0000       0.080182         2.1819

MULLIKEN ATOMIC CHARGES
-----------------------
   0 C :   -0.360351
   1 S :   -0.079888
   2 S :   -0.079881
   3 C :   -0.360379
   4 H :    0.144208
   5 H :    0.151550
   6 H :    0.144483
   7 H :    0.144496
   8 H :    0.144218
   9 H :    0.151543
Sum of atomic charges:   -0.0000000

LOEWDIN ATOMIC CHARGES
----------------------
   0 C :   -0.472556
   1 S :    0.093243
   2 S :    0.093232
   3 C :   -0.472555
   4 H :    0.130585
   5 H :    0.126943
   6 H :    0.121792
   7 H :    0.121780
   8 H :    0.130588
   9 H :    0.126948

  Mayer bond orders larger than 0.100000
B(  0-C ,  1-S ) :   0.9887 B(  0-C ,  4-H ) :   0.9374 B(  0-C ,  5-H ) :   0.9471
B(  0-C ,  6-H ) :   0.9468 B(  1-S ,  2-S ) :   1.1401 B(  2-S ,  3-C ) :   0.9887
B(  3-C ,  7-H ) :   0.9468 B(  3-C ,  8-H ) :   0.9374 B(  3-C ,  9-H ) :   0.9471

Dispersion correction           -0.008127231
FINAL SINGLE POINT ENERGY      -875.393702426605

DIPOLE MOMENT
-------------

Method             : SCF
Type of density    : Electron Density
Multiplicity       :   1
Irrep              :   0
Energy             :  -875.4218396986493644 Eh
Relativity type    :
Basis              : AO
                                X                 Y                 Z
Electronic contribution:     -0.000118415       5.312221374       0.000019723
Nuclear contribution   :      0.000117348      -6.055065228      -0.000042332
                        -----------------------------------------
Total Dipole Moment    :     -0.000001067      -0.742843854      -0.000022609
                        -----------------------------------------
Magnitude (a.u.)       :      0.742843854
Magnitude (Debye)      :      1.888159023

Rotational constants in cm-1:             0.276166             0.091699             0.085910
Rotational constants in MHz :          8279.251527          2749.066348          2575.524562

                             ****ORCA TERMINATED NORMALLY****
TOTAL RUN TIME: 0 days 0 hours 0 minutes 15 seconds 167 msec
