                         Program Version 6.0.1  -  RELEASE   -
|  1> ! r2scan-3c def2/J RI DEFGRID2 scfconv6 printgap
|  2> %output
|  3>     printlevel normal
|  4> end
|  5> * xyz 0 1
|  6> C 2.4702664685 0.5303905376 1.0841467721
|  7> C 1.6982910889 -0.0198204875 -0.0903952078
|  8> O 2.2496939351 -0.5285849862 -1.0380618215
|  9> C 0.2144122878 0.0396882885 -0.0076194304
| 10> C -0.4918545837 1.1089701458 0.5378518371
| 11> C -1.8753732257 1.0603930583 0.5493648471
| 12> C -2.5029946238 -0.0552088014 0.0137155191
| 13> N -1.8441682405 -1.0742057883 -0.5119301965
| 14> C -0.5283480344 -1.0243294847 -0.5278404853
| 15> H 3.2786309523 1.1626021258 0.7227869342
| 16> H 2.9260431683 -0.3112120522 1.6047842628
| 17> H 1.846107905 1.0770970797 1.7822619528
| 18> H 0.0240826322 1.9797374875 0.9166743234
| 19> H -2.4546266095 1.8746220105 0.9563490885
| 20> H -3.5817509136 -0.1364775311 -0.0049263275
| 21> H -0.0191030447 -1.8721049607 -0.9665389209
| 22> *
| 23>
| 24>                          ****END OF INPUT****

CARTESIAN COORDINATES (ANGSTROEM)
---------------------------------
  C      2.470266    0.530391    1.084147
  C      1.698291   -0.019820   -0.090395
  O      2.249694   -0.528585   -1.038062
  C      0.214412    0.039688   -0.007619
  C     -0.491855    1.108970    0.537852
  C     -1.875373    1.060393    0.549365
  C     -2.502995   -0.055209    0.013716
  N     -1.844168   -1.074206   -0.511930
  C     -0.528348   -1.024329   -0.527840
  H      3.278631    1.162602    0.722787
  H      2.926043   -0.311212    1.604784
  H      1.846108    1.077097    1.782262
  H      0.024083    1.979737    0.916674
  H     -2.454627    1.874622    0.956349
  H     -3.581751   -0.136478   -0.004926
  H     -0.019103   -1.872105   -0.966539

 Total Charge           Charge          ....    0
 Multiplicity           Mult            ....    1
 Number of Electrons    NEL             ....   64
 Basis Dimension        Dim             ....  216

ORBITAL ENERGIES
----------------

  NO   OCC          E(Eh)            E(eV)
   0   2.0000     -18.946577      -515.5626
   1   2.0000     -14.167413      -385.5149
   2   2.0000     -10.132596      -275.7220
   3   2.0000     -10.082820      -274.3675
   4   2.0000     -10.081197      -274.3233
   5   2.0000     -10.073685      -274.1189
   6   2.0000     -10.063761      -273.8489
   7   2.0000     -10.060343      -273.7558
   8   2.0000     -10.043368      -273.2939
   9   2.0000      -1.018853       -27.7244
  10   2.0000      -0.930889       -25.3308
  11   2.0000      -0.799640       -21.7593
  12   2.0000      -0.756263       -20.5790
  13   2.0000      -0.718842       -19.5607
  14   2.0000      -0.631779       -17.1916
  15   2.0000      -0.614855       -16.7311
  16   2.0000      -0.541090       -14.7238
  17   2.0000      -0.500543       -13.6205
  18   2.0000      -0.475042       -12.9265
  19   2.0000      -0.448475       -12.2036
  20   2.0000      -0.427248       -11.6260
  21   2.0000      -0.423055       -11.5119
  22   2.0000      -0.404889       -11.0176
  23   2.0000      -0.392857       -10.6902
  24   2.0000      -0.387027       -10.5315
  25   2.0000      -0.375820       -10.2266
  26   2.0000      -0.352699        -9.5974
  27   2.0000      -0.340454        -9.2642
  28   2.0000      -0.287493        -7.8231
  29   2.0000      -0.262375        -7.1396
  30   2.0000      -0.242105        -6.5880
  31   2.0000      -0.221639        -6.0311
  32   0.0000      -0.093644        -2.5482
  33   0.0000      -0.065225        -1.7749
  34   0.0000      -0.017084        -0.4649
  35   0.0000       0.063518         1.7284
  36   0.0000       0.092668         2.5216

MULLIKEN ATOMIC CHARGES
-----------------------
   0 C :   -0.520798
   1 C :    0.220747
   2 O :   -0.333292
   3 C :    0.219756
   4 C :   -0.196911
   5 C :   -0.108379
   6 C :   -0.070621
   7 N :   -0.173580
   8 C :   -0.147280
   9 H :    0.180402
  10 H :    0.182878
  11 H :    0.151015
  12 H :    0.149335
  13 H :    0.151762
  14 H :    0.137094
  15 H :    0.157872
Sum of atomic charges:    0.0000000

LOEWDIN ATOMIC CHARGES
----------------------
   0 C :   -0.381738
   1 C :    0.236783
   2 O :   -0.443675
   3 C :   -0.055648
   4 C :   -0.103858
   5 C :   -0.141309
   6 C :    0.095377
   7 N :   -0.600862
   8 C :    0.132122
   9 H :    0.180826
  10 H :    0.186216
  11 H :    0.160419
  12 H :    0.174040
  13 H :    0.172526
  14 H :    0.187231
  15 H :    0.201549

  Mayer bond orders larger than 0.100000
B(  0-C ,  1-C ) :   0.9094 B(  0-C ,  9-H ) :   0.9629 B(  0-C , 10-H ) :   0.9439
B(  0-C , 11-H ) :   0.9702 B(  1-C ,  2-O ) :   1.9530 B(  1-C ,  3-C ) :   0.8805
B(  2-O ,  3-C ) :  -0.1176 B(  3-C ,  4-C ) :   1.3469 B(  3-C ,  8-C ) :   1.2654
B(  4-C ,  5-C ) :   1.4279 B(  4-C , 12-H ) :   0.9332 B(  5-C ,  6-C ) :   1.3563
B(  5-C , 13-H ) :   0.9399 B(  6-C ,  7-N ) :   1.4483 B(  6-C , 14-H ) :   0.9826
B(  7-N ,  8-C ) :   1.4886 B(  8-C , 15-H ) :   0.9902

Dispersion correction           -0.005266727
FINAL SINGLE POINT ENERGY      -400.828207596326

DIPOLE MOMENT
-------------

Method             : SCF
Type of density    : Electron Density
Multiplicity       :   1
Irrep              :   0
Energy             :  -400.8302588218045912 Eh
Relativity type    :
Basis              : AO
                                X                 Y                 Z
Electronic contribution:     -2.171179751      -2.472503274      -3.517777435
Nuclear contribution   :      1.917722767       3.527178446       4.683356435
                        -----------------------------------------
Total Dipole Moment    :     -0.253456984       1.054675172       1.165579001
                        -----------------------------------------
Magnitude (a.u.)       :      1.592216872
Magnitude (Debye)      :      4.047093661

Rotational constants in cm-1:             0.126559             0.040499             0.032261
Rotational constants in MHz :          3794.148388          1214.142023           967.160995

                             ****ORCA TERMINATED NORMALLY****
TOTAL RUN TIME: 0 days 0 hours 0 minutes 28 seconds 998 msec
