                         Program Version 6.0.1  -  RELEASE   -
|  1> ! pbe def2-sv(p) def2/J RI DEFGRID1 loosescf d4 GCP(DFT/SV(P)) printgap
|  2> %output
|  3>     printlevel normal
|  4> end
|  5> * xyz 0 1
|  6> C -2.024189687 -0.5696920119 -0.6843125055
|  7> C -1.2180438582 -0.0860788938 0.5462889963
|  8> H -1.8908121852 -0.0501587603 1.4104193228
|  9> C -0.6418635527 1.3264942732 0.3281220521
| 10> H -1.388521602 1.9436219715 -0.1826170156
| 11> C 0.651162621 1.3007183077 -0.5294466872
| 12> H 1.0816939442 2.3121120729 -0.4793439059
| 13> C 1.6444762995 0.2872043889 0.0655802778
| 14> H 2.4799505964 0.15233542 -0.6382124464
| 15> C 0.9418725858 -1.0753140041 0.2171304731
| 16> H 1.5939615105 -1.7471013204 0.7984782148
| 17> O -0.2218219692 -1.0020412699 0.9737287209
| 18> O 0.7185294898 -1.5942353406 -1.068015782
| 19> O 2.1103833832 0.6649922828 1.3393288476
| 20> O 0.4152154293 1.0290865282 -1.8847414006
| 21> O -0.3910728244 1.9500256018 1.5594554202
| 22> O -2.0090050693 -1.9858475061 -0.729088496
| 23> H -1.6012576949 -0.1594713276 -1.6093816362
| 24> H -3.048536778 -0.1949976151 -0.5795892323
| 25> H -0.0727554234 -2.1592283503 -1.0022183947
| 26> H 2.5868956812 1.5001835561 1.2622316906
| 27> H 0.5032019639 0.0680429549 -2.0099873506
| 28> H 0.2608071513 1.4084038585 2.0322782309
| 29> H -2.6766106453 -2.2852207068 -1.3537697787
| 30> *
| 31>
| 32>                          ****END OF INPUT****

CARTESIAN COORDINATES (ANGSTROEM)
---------------------------------
  C     -2.024190   -0.569692   -0.684313
  C     -1.218044   -0.086079    0.546289
  H     -1.890812   -0.050159    1.410419
  C     -0.641864    1.326494    0.328122
  H     -1.388522    1.943622   -0.182617
  C      0.651163    1.300718   -0.529447
  H      1.081694    2.312112   -0.479344
  C      1.644476    0.287204    0.065580
  H      2.479951    0.152335   -0.638212
  C      0.941873   -1.075314    0.217130
  H      1.593962   -1.747101    0.798478
  O     -0.221822   -1.002041    0.973729
  O      0.718529   -1.594235   -1.068016
  O      2.110383    0.664992    1.339329
  O      0.415215    1.029087   -1.884741
  O     -0.391073    1.950026    1.559455
  O     -2.009005   -1.985848   -0.729088
  H     -1.601258   -0.159471   -1.609382
  H     -3.048537   -0.194998   -0.579589
  H     -0.072755   -2.159228   -1.002218
  H      2.586896    1.500184    1.262232
  H      0.503202    0.068043   -2.009987
  H      0.260807    1.408404    2.032278
  H     -2.676611   -2.285221   -1.353770

 Total Charge           Charge          ....    0
 Multiplicity           Mult            ....    1
 Number of Electrons    NEL             ....   96
 Basis Dimension        Dim             ....  192

ORBITAL ENERGIES
----------------

  NO   OCC          E(Eh)            E(eV)
   0   2.0000     -18.775528      -510.9081
   1   2.0000     -18.775148      -510.8978
   2   2.0000     -18.771317      -510.7935
   3   2.0000     -18.770396      -510.7685
   4   2.0000     -18.743531      -510.0374
   5   2.0000     -18.738340      -509.8961
   6   2.0000      -9.990167      -271.8463
   7   2.0000      -9.950127      -270.7567
   8   2.0000      -9.946062      -270.6461
   9   2.0000      -9.943799      -270.5845
  10   2.0000      -9.941240      -270.5149
  11   2.0000      -9.938011      -270.4270
  12   2.0000      -0.993929       -27.0462
  13   2.0000      -0.951953       -25.9040
  14   2.0000      -0.943977       -25.6869
  15   2.0000      -0.925893       -25.1948
  16   2.0000      -0.924665       -25.1614
  17   2.0000      -0.908564       -24.7233
  18   2.0000      -0.704483       -19.1700
  19   2.0000      -0.691570       -18.8186
  20   2.0000      -0.626870       -17.0580
  21   2.0000      -0.586953       -15.9718
  22   2.0000      -0.576677       -15.6922
  23   2.0000      -0.527601       -14.3568
  24   2.0000      -0.500266       -13.6129
  25   2.0000      -0.494511       -13.4563
  26   2.0000      -0.481614       -13.1054
  27   2.0000      -0.461025       -12.5451
  28   2.0000      -0.443618       -12.0715
  29   2.0000      -0.427844       -11.6422
  30   2.0000      -0.421120       -11.4593
  31   2.0000      -0.401880       -10.9357
  32   2.0000      -0.393445       -10.7062
  33   2.0000      -0.375091       -10.2068
  34   2.0000      -0.369920       -10.0660
  35   2.0000      -0.348946        -9.4953
  36   2.0000      -0.340081        -9.2541
  37   2.0000      -0.333770        -9.0823
  38   2.0000      -0.325712        -8.8631
  39   2.0000      -0.304240        -8.2788
  40   2.0000      -0.282839        -7.6964
  41   2.0000      -0.265652        -7.2288
  42   2.0000      -0.252577        -6.8730
  43   2.0000      -0.250143        -6.8067
  44   2.0000      -0.243336        -6.6215
  45   2.0000      -0.231808        -6.3078
  46   2.0000      -0.218571        -5.9476
  47   2.0000      -0.195299        -5.3144
  48   0.0000       0.007063         0.1922
  49   0.0000       0.012246         0.3332
  50   0.0000       0.046856         1.2750
  51   0.0000       0.055870         1.5203
  52   0.0000       0.072608         1.9758

MULLIKEN ATOMIC CHARGES
-----------------------
   0 C :   -0.036025
   1 C :    0.054864
   2 H :    0.080995
   3 C :    0.075342
   4 H :    0.076814
   5 C :    0.034452
   6 H :    0.066233
   7 C :   -0.024742
   8 H :    0.090571
   9 C :    0.211165
  10 H :    0.075927
  11 O :   -0.298249
  12 O :   -0.435902
  13 O :   -0.409914
  14 O :   -0.416634
  15 O :   -0.433596
  16 O :   -0.433339
  17 H :    0.085901
  18 H :    0.089517
  19 H :    0.314546
  20 H :    0.312034
  21 H :    0.310256
  22 H :    0.296816
  23 H :    0.312970
Sum of atomic charges:   -0.0000000

LOEWDIN ATOMIC CHARGES
----------------------
   0 C :   -0.153667
   1 C :   -0.065066
   2 H :    0.121404
   3 C :   -0.071301
   4 H :    0.118996
   5 C :   -0.078518
   6 H :    0.107160
   7 C :   -0.094454
   8 H :    0.111923
   9 C :    0.007489
  10 H :    0.103896
  11 O :   -0.124579
  12 O :   -0.323731
  13 O :   -0.302309
  14 O :   -0.321248
  15 O :   -0.321568
  16 O :   -0.330068
  17 H :    0.099043
  18 H :    0.111363
  19 H :    0.278802
  20 H :    0.292457
  21 H :    0.270244
  22 H :    0.269596
  23 H :    0.294139

  Mayer bond orders larger than 0.100000
B(  0-C ,  1-C ) :   1.0344 B(  0-C , 16-O ) :   1.0363 B(  0-C , 17-H ) :   0.9023
B(  0-C , 18-H ) :   0.9127 B(  1-C ,  2-H ) :   0.8975 B(  1-C ,  3-C ) :   1.0017
B(  1-C , 11-O ) :   1.0152 B(  3-C ,  4-H ) :   0.8928 B(  3-C ,  5-C ) :   0.9406
B(  3-C , 15-O ) :   1.0417 B(  5-C ,  6-H ) :   0.9040 B(  5-C ,  7-C ) :   0.9921
B(  5-C , 14-O ) :   1.0814 B(  7-C ,  8-H ) :   0.8975 B(  7-C ,  9-C ) :   0.9797
B(  7-C , 13-O ) :   1.0427 B(  9-C , 10-H ) :   0.9041 B(  9-C , 11-O ) :   1.0886
B(  9-C , 12-O ) :   1.0716 B( 12-O , 19-H ) :   0.7769 B( 12-O , 21-H ) :   0.1199
B( 13-O , 20-H ) :   0.8393 B( 14-O , 21-H ) :   0.7834 B( 15-O , 22-H ) :   0.8158
B( 16-O , 19-H ) :   0.1219 B( 16-O , 23-H ) :   0.8440

Dispersion correction           -0.026618381
FINAL SINGLE POINT ENERGY      -685.698914887292

DIPOLE MOMENT
-------------

Method             : SCF
Type of density    : Electron Density
Multiplicity       :   1
Irrep              :   0
Energy             :  -685.8349260380440455 Eh
Relativity type    :
Basis              : AO
                                X                 Y                 Z
Electronic contribution:      1.733543744      -1.099530393       1.733768415
Nuclear contribution   :     -2.028472001       0.725871262      -2.203481568
                        -----------------------------------------
Total Dipole Moment    :     -0.294928257      -0.373659131      -0.469713153
                        -----------------------------------------
Magnitude (a.u.)       :      0.668755762
Magnitude (Debye)      :      1.699842059

Rotational constants in cm-1:             0.043597             0.029231             0.026196
Rotational constants in MHz :          1307.002578           876.317160           785.335313

                             ****ORCA TERMINATED NORMALLY****
TOTAL RUN TIME: 0 days 0 hours 0 minutes 8 seconds 351 msec
