                         Program Version 6.0.1  -  RELEASE   -
|  1> ! pbe def2-sv(p) def2/J RI DEFGRID1 loosescf d4 GCP(DFT/SV(P)) printgap
|  2> %output
|  3>     printlevel normal
|  4> end
|  5> * xyz 0 1
|  6> C -2.6381594168 -1.3346172524 0.382635854
|  7> C -1.9512937147 -0.1624694884 -0.316407459
|  8> C -0.4506722311 -0.1500449497 -0.1613488802
|  9> C 0.26749966 -1.337772355 -0.2289837209
| 10> C 1.6436588601 -1.3596991813 -0.0962482552
| 11> C 2.3305360009 -0.1773075959 0.1060854267
| 12> C 1.6293943574 1.0129214042 0.1604421852
| 13> C 0.2473599739 1.0479682138 0.0250657769
| 14> C -0.4556959176 2.3738647154 0.075864374
| 15> H -2.3166406038 -1.396586609 1.4200608851
| 16> H -2.4172377175 -2.2805969484 -0.1040273422
| 17> H -3.7169705129 -1.1941643465 0.3635325785
| 18> H -2.3657458133 0.7619211503 0.0851398485
| 19> H -2.1932841187 -0.1901263747 -1.3842465971
| 20> H -0.2547221414 -2.2677534535 -0.3931794313
| 21> H 2.1761191461 -2.2979445047 -0.1518651954
| 22> H 3.4052119315 -0.1793362068 0.215184354
| 23> H 2.1666927607 1.9393264352 0.3094704748
| 24> H -1.1276006987 2.4261278164 0.9326408691
| 25> H 0.2674166626 3.1810188684 0.1644801684
| 26> H -1.043002529 2.5367455766 -0.8268520621
| 27> *
| 28>
| 29>                          ****END OF INPUT****

CARTESIAN COORDINATES (ANGSTROEM)
---------------------------------
  C     -2.638159   -1.334617    0.382636
  C     -1.951294   -0.162469   -0.316407
  C     -0.450672   -0.150045   -0.161349
  C      0.267500   -1.337772   -0.228984
  C      1.643659   -1.359699   -0.096248
  C      2.330536   -0.177308    0.106085
  C      1.629394    1.012921    0.160442
  C      0.247360    1.047968    0.025066
  C     -0.455696    2.373865    0.075864
  H     -2.316641   -1.396587    1.420061
  H     -2.417238   -2.280597   -0.104027
  H     -3.716971   -1.194164    0.363533
  H     -2.365746    0.761921    0.085140
  H     -2.193284   -0.190126   -1.384247
  H     -0.254722   -2.267753   -0.393179
  H      2.176119   -2.297945   -0.151865
  H      3.405212   -0.179336    0.215184
  H      2.166693    1.939326    0.309470
  H     -1.127601    2.426128    0.932641
  H      0.267417    3.181019    0.164480
  H     -1.043003    2.536746   -0.826852

 Total Charge           Charge          ....    0
 Multiplicity           Mult            ....    1
 Number of Electrons    NEL             ....   66
 Basis Dimension        Dim             ....  150

ORBITAL ENERGIES
----------------

  NO   OCC          E(Eh)            E(eV)
   0   2.0000      -9.896239      -269.2904
   1   2.0000      -9.894818      -269.2517
   2   2.0000      -9.889778      -269.1146
   3   2.0000      -9.881840      -268.8985
   4   2.0000      -9.881613      -268.8924
   5   2.0000      -9.881435      -268.8875
   6   2.0000      -9.881358      -268.8854
   7   2.0000      -9.880954      -268.8744
   8   2.0000      -9.877598      -268.7831
   9   2.0000      -0.775853       -21.1120
  10   2.0000      -0.707398       -19.2493
  11   2.0000      -0.689407       -18.7597
  12   2.0000      -0.644978       -17.5508
  13   2.0000      -0.608851       -16.5677
  14   2.0000      -0.566987       -15.4285
  15   2.0000      -0.522767       -14.2252
  16   2.0000      -0.503922       -13.7124
  17   2.0000      -0.448461       -12.2032
  18   2.0000      -0.422592       -11.4993
  19   2.0000      -0.403157       -10.9705
  20   2.0000      -0.386207       -10.5092
  21   2.0000      -0.379628       -10.3302
  22   2.0000      -0.372585       -10.1385
  23   2.0000      -0.356480        -9.7003
  24   2.0000      -0.339451        -9.2369
  25   2.0000      -0.334380        -9.0989
  26   2.0000      -0.321886        -8.7590
  27   2.0000      -0.316238        -8.6053
  28   2.0000      -0.304295        -8.2803
  29   2.0000      -0.283524        -7.7151
  30   2.0000      -0.281116        -7.6495
  31   2.0000      -0.217480        -5.9179
  32   2.0000      -0.209776        -5.7083
  33   0.0000      -0.027848        -0.7578
  34   0.0000      -0.024679        -0.6716
  35   0.0000       0.041292         1.1236
  36   0.0000       0.053564         1.4576
  37   0.0000       0.059225         1.6116

MULLIKEN ATOMIC CHARGES
-----------------------
   0 C :   -0.288116
   1 C :   -0.140408
   2 C :    0.026334
   3 C :   -0.140512
   4 C :   -0.041082
   5 C :   -0.040089
   6 C :   -0.134800
   7 C :   -0.012554
   8 C :   -0.231917
   9 H :    0.109892
  10 H :    0.113232
  11 H :    0.101738
  12 H :    0.082568
  13 H :    0.102698
  14 H :    0.033248
  15 H :    0.045564
  16 H :    0.045729
  17 H :    0.032244
  18 H :    0.121091
  19 H :    0.099435
  20 H :    0.115706
Sum of atomic charges:   -0.0000000

LOEWDIN ATOMIC CHARGES
----------------------
   0 C :   -0.336548
   1 C :   -0.221280
   2 C :   -0.040555
   3 C :   -0.123424
   4 C :   -0.128174
   5 C :   -0.128726
   6 C :   -0.125866
   7 C :   -0.048240
   8 C :   -0.324882
   9 H :    0.122253
  10 H :    0.117553
  11 H :    0.120215
  12 H :    0.121282
  13 H :    0.130451
  14 H :    0.120183
  15 H :    0.120862
  16 H :    0.121280
  17 H :    0.118829
  18 H :    0.130845
  19 H :    0.124107
  20 H :    0.129837

  Mayer bond orders larger than 0.100000
B(  0-C ,  1-C ) :   1.1565 B(  0-C ,  9-H ) :   0.9577 B(  0-C , 10-H ) :   0.9436
B(  0-C , 11-H ) :   0.9492 B(  1-C ,  2-C ) :   1.0906 B(  1-C , 12-H ) :   0.8992
B(  1-C , 13-H ) :   0.8981 B(  2-C ,  3-C ) :   1.3824 B(  2-C ,  7-C ) :   1.4139
B(  3-C ,  4-C ) :   1.3709 B(  3-C , 14-H ) :   0.9597 B(  4-C ,  5-C ) :   1.3689
B(  4-C , 15-H ) :   0.9645 B(  5-C ,  6-C ) :   1.3683 B(  5-C , 16-H ) :   0.9644
B(  6-C ,  7-C ) :   1.4001 B(  6-C , 17-H ) :   0.9554 B(  7-C ,  8-C ) :   1.1301
B(  8-C , 18-H ) :   0.9225 B(  8-C , 19-H ) :   0.9356 B(  8-C , 20-H ) :   0.9266

Dispersion correction           -0.021257741
FINAL SINGLE POINT ENERGY      -349.369645981669

DIPOLE MOMENT
-------------

Method             : SCF
Type of density    : Electron Density
Multiplicity       :   1
Irrep              :   0
Energy             :  -349.4290405445013334 Eh
Relativity type    :
Basis              : AO
                                X                 Y                 Z
Electronic contribution:      6.715793917      -0.865887681      -0.616403384
Nuclear contribution   :     -6.960977759       0.974409760       0.591362858
                        -----------------------------------------
Total Dipole Moment    :     -0.245183843       0.108522079      -0.025040526
                        -----------------------------------------
Magnitude (a.u.)       :      0.269293866
Magnitude (Debye)      :      0.684490610

Rotational constants in cm-1:             0.080228             0.049405             0.031779
Rotational constants in MHz :          2405.174141          1481.136551           952.708758

                             ****ORCA TERMINATED NORMALLY****
TOTAL RUN TIME: 0 days 0 hours 0 minutes 16 seconds 218 msec
