                         Program Version 6.0.1  -  RELEASE   -
|  1> ! r2scan-3c def2/J RI DEFGRID2 scfconv6 printgap
|  2> %output
|  3>     printlevel normal
|  4> end
|  5> * xyz 0 1
|  6> C 2.8312110386 0.6647345713 0.3673731309
|  7> C 1.9797723099 -0.4029155817 -0.3109802027
|  8> C 0.4957179205 -0.2228817218 -0.1474279504
|  9> C -0.3537183222 -1.3209526475 -0.2553468555
| 10> C -1.7201211341 -1.1485827093 -0.1244363296
| 11> C -2.1985432477 0.1307902177 0.1148945734
| 12> N -1.4085100793 1.1836679275 0.2204083385
| 13> C -0.1048461107 1.0093965421 0.0919430122
| 14> H 2.7103655127 1.6307247407 -0.1158371391
| 15> H 3.8817360611 0.3891409693 0.3090898202
| 16> H 2.5583659351 0.7626480795 1.4157122882
| 17> H 2.2520771579 -1.3854209105 0.0845373778
| 18> H 2.2075710726 -0.4154191586 -1.3823610976
| 19> H 0.0583087384 -2.304167843 -0.4403701165
| 20> H -2.3965194969 -1.9859348831 -0.2038507436
| 21> H -3.257172883 0.3250050615 0.2274161581
| 22> H 0.4828217073 1.9117391683 0.1884869194
| 23> *
| 24>
| 25>                          ****END OF INPUT****

CARTESIAN COORDINATES (ANGSTROEM)
---------------------------------
  C      2.831211    0.664735    0.367373
  C      1.979772   -0.402916   -0.310980
  C      0.495718   -0.222882   -0.147428
  C     -0.353718   -1.320953   -0.255347
  C     -1.720121   -1.148583   -0.124436
  C     -2.198543    0.130790    0.114895
  N     -1.408510    1.183668    0.220408
  C     -0.104846    1.009397    0.091943
  H      2.710366    1.630725   -0.115837
  H      3.881736    0.389141    0.309090
  H      2.558366    0.762648    1.415712
  H      2.252077   -1.385421    0.084537
  H      2.207571   -0.415419   -1.382361
  H      0.058309   -2.304168   -0.440370
  H     -2.396519   -1.985935   -0.203851
  H     -3.257173    0.325005    0.227416
  H      0.482822    1.911739    0.188487

 Total Charge           Charge          ....    0
 Multiplicity           Mult            ....    1
 Number of Electrons    NEL             ....   58
 Basis Dimension        Dim             ....  202

ORBITAL ENERGIES
----------------

  NO   OCC          E(Eh)            E(eV)
   0   2.0000     -14.150358      -385.0508
   1   2.0000     -10.061254      -273.7806
   2   2.0000     -10.060511      -273.7604
   3   2.0000     -10.050338      -273.4836
   4   2.0000     -10.048935      -273.4454
   5   2.0000     -10.044203      -273.3167
   6   2.0000     -10.042356      -273.2664
   7   2.0000     -10.028101      -272.8785
   8   2.0000      -0.912471       -24.8296
   9   2.0000      -0.791118       -21.5274
  10   2.0000      -0.751864       -20.4593
  11   2.0000      -0.706348       -19.2207
  12   2.0000      -0.623145       -16.9566
  13   2.0000      -0.595141       -16.1946
  14   2.0000      -0.563963       -15.3462
  15   2.0000      -0.490850       -13.3567
  16   2.0000      -0.457564       -12.4509
  17   2.0000      -0.432503       -11.7690
  18   2.0000      -0.421585       -11.4719
  19   2.0000      -0.406634       -11.0651
  20   2.0000      -0.373660       -10.1678
  21   2.0000      -0.369825       -10.0634
  22   2.0000      -0.361835        -9.8460
  23   2.0000      -0.337429        -9.1819
  24   2.0000      -0.331364        -9.0169
  25   2.0000      -0.315521        -8.5858
  26   2.0000      -0.265763        -7.2318
  27   2.0000      -0.237561        -6.4644
  28   2.0000      -0.218272        -5.9395
  29   0.0000      -0.052012        -1.4153
  30   0.0000      -0.035972        -0.9789
  31   0.0000       0.081935         2.2296
  32   0.0000       0.094793         2.5795
  33   0.0000       0.104971         2.8564

MULLIKEN ATOMIC CHARGES
-----------------------
   0 C :   -0.481269
   1 C :   -0.318712
   2 C :    0.214132
   3 C :   -0.200648
   4 C :   -0.106835
   5 C :   -0.101017
   6 N :   -0.172448
   7 C :   -0.169064
   8 H :    0.146147
   9 H :    0.151451
  10 H :    0.164326
  11 H :    0.149132
  12 H :    0.166542
  13 H :    0.148288
  14 H :    0.147473
  15 H :    0.132541
  16 H :    0.129961
Sum of atomic charges:    0.0000000

LOEWDIN ATOMIC CHARGES
----------------------
   0 C :   -0.416071
   1 C :   -0.285650
   2 C :   -0.073433
   3 C :   -0.123522
   4 C :   -0.144383
   5 C :    0.072484
   6 N :   -0.615710
   7 C :    0.080955
   8 H :    0.151697
   9 H :    0.153631
  10 H :    0.156823
  11 H :    0.162587
  12 H :    0.168777
  13 H :    0.170563
  14 H :    0.169484
  15 H :    0.183616
  16 H :    0.188151

  Mayer bond orders larger than 0.100000
B(  0-C ,  1-C ) :   0.8685 B(  0-C ,  8-H ) :   0.9652 B(  0-C ,  9-H ) :   0.9712
B(  0-C , 10-H ) :   0.9897 B(  1-C ,  2-C ) :   0.8359 B(  1-C , 11-H ) :   1.0110
B(  1-C , 12-H ) :   0.9543 B(  2-C ,  3-C ) :   1.3544 B(  2-C ,  7-C ) :   1.3147
B(  3-C ,  4-C ) :   1.4445 B(  3-C , 13-H ) :   0.9504 B(  4-C ,  5-C ) :   1.3486
B(  4-C , 14-H ) :   0.9394 B(  5-C ,  6-N ) :   1.4733 B(  5-C , 15-H ) :   0.9832
B(  6-N ,  7-C ) :   1.4964 B(  7-C , 16-H ) :   0.9957

Dispersion correction           -0.005233440
FINAL SINGLE POINT ENERGY      -326.814356590247

DIPOLE MOMENT
-------------

Method             : SCF
Type of density    : Electron Density
Multiplicity       :   1
Irrep              :   0
Energy             :  -326.8169866829055081 Eh
Relativity type    :
Basis              : AO
                                X                 Y                 Z
Electronic contribution:     -7.401297099       0.219868700      -0.253871530
Nuclear contribution   :      7.964414715      -0.998930882       0.078910869
                        -----------------------------------------
Total Dipole Moment    :      0.563117616      -0.779062182      -0.174960661
                        -----------------------------------------
Magnitude (a.u.)       :      0.977062212
Magnitude (Debye)      :      2.483494777

Rotational constants in cm-1:             0.164137             0.050681             0.039700
Rotational constants in MHz :          4920.695852          1519.380152          1190.186238

                             ****ORCA TERMINATED NORMALLY****
TOTAL RUN TIME: 0 days 0 hours 0 minutes 24 seconds 342 msec
