                         Program Version 6.0.1  -  RELEASE   -
|  1> ! pbe def2-sv(p) def2/J RI DEFGRID1 loosescf d4 GCP(DFT/SV(P)) printgap
|  2> %output
|  3>     printlevel normal
|  4> end
|  5> * xyz 0 1
|  6> C -2.5045145213 -0.7365813882 -0.0078895145
|  7> C -1.1103501075 -0.4831381916 0.5866675113
|  8> H -1.1054354023 -0.8212041391 1.635221517
|  9> C -0.7191383546 1.0131844966 0.590614748
| 10> H -1.5933190449 1.6281692486 0.3262371238
| 11> C 0.3941616126 1.249100149 -0.4549400545
| 12> H 0.7056561509 2.3006923892 -0.4345720341
| 13> C 1.6203769988 0.37805076 -0.0889417066
| 14> H 2.2934459628 0.3437901074 -0.9529400345
| 15> C 1.149720593 -1.0661789972 0.2500185903
| 16> H 1.2296306899 -1.21984761 1.3390850272
| 17> O -0.1908692674 -1.2486058034 -0.1642177771
| 18> O 1.9188498914 -2.0490875062 -0.3343036025
| 19> O 2.361928464 0.9485030722 0.9518546429
| 20> O -0.0762524014 1.0096851268 -1.7516113995
| 21> O -0.2827137452 1.3394144909 1.8948787735
| 22> O -2.6176340959 -0.3923195282 -1.358846584
| 23> H -3.2436786387 -0.2026482596 0.6069841832
| 24> H -2.7094398241 -1.8076000201 0.0371067278
| 25> H 1.7209567035 -2.0826831815 -1.2783752531
| 26> H 1.8036442844 0.9705925988 1.7433264172
| 27> H -0.3224405507 0.0720178707 -1.8165399206
| 28> H -0.1448291619 2.2924374291 1.9540057584
| 29> H -2.3671815595 0.5316275215 -1.4932114177
| 30> *
| 31>
| 32>                          ****END OF INPUT****

CARTESIAN COORDINATES (ANGSTROEM)
---------------------------------
  C     -2.504515   -0.736581   -0.007890
  C     -1.110350   -0.483138    0.586668
  H     -1.105435   -0.821204    1.635222
  C     -0.719138    1.013184    0.590615
  H     -1.593319    1.628169    0.326237
  C      0.394162    1.249100   -0.454940
  H      0.705656    2.300692   -0.434572
  C      1.620377    0.378051   -0.088942
  H      2.293446    0.343790   -0.952940
  C      1.149721   -1.066179    0.250019
  H      1.229631   -1.219848    1.339085
  O     -0.190869   -1.248606   -0.164218
  O      1.918850   -2.049088   -0.334304
  O      2.361928    0.948503    0.951855
  O     -0.076252    1.009685   -1.751611
  O     -0.282714    1.339414    1.894879
  O     -2.617634   -0.392320   -1.358847
  H     -3.243679   -0.202648    0.606984
  H     -2.709440   -1.807600    0.037107
  H      1.720957   -2.082683   -1.278375
  H      1.803644    0.970593    1.743326
  H     -0.322441    0.072018   -1.816540
  H     -0.144829    2.292437    1.954006
  H     -2.367182    0.531628   -1.493211

 Total Charge           Charge          ....    0
 Multiplicity           Mult            ....    1
 Number of Electrons    NEL             ....   96
 Basis Dimension        Dim             ....  192

ORBITAL ENERGIES
----------------

  NO   OCC          E(Eh)            E(eV)
   0   2.0000     -18.789579      -511.2904
   1   2.0000     -18.785795      -511.1875
   2   2.0000     -18.762936      -510.5655
   3   2.0000     -18.762216      -510.5459
   4   2.0000     -18.760036      -510.4865
   5   2.0000     -18.748129      -510.1625
   6   2.0000      -9.992077      -271.8982
   7   2.0000      -9.964070      -271.1361
   8   2.0000      -9.960315      -271.0339
   9   2.0000      -9.950239      -270.7598
  10   2.0000      -9.945992      -270.6442
  11   2.0000      -9.940983      -270.5079
  12   2.0000      -0.998173       -27.1617
  13   2.0000      -0.965086       -26.2613
  14   2.0000      -0.945331       -25.7238
  15   2.0000      -0.937167       -25.5016
  16   2.0000      -0.927683       -25.2435
  17   2.0000      -0.921395       -25.0724
  18   2.0000      -0.713305       -19.4100
  19   2.0000      -0.689348       -18.7581
  20   2.0000      -0.627865       -17.0851
  21   2.0000      -0.605381       -16.4733
  22   2.0000      -0.576955       -15.6997
  23   2.0000      -0.540487       -14.7074
  24   2.0000      -0.512088       -13.9346
  25   2.0000      -0.505548       -13.7567
  26   2.0000      -0.497610       -13.5407
  27   2.0000      -0.465613       -12.6700
  28   2.0000      -0.458673       -12.4811
  29   2.0000      -0.438582       -11.9344
  30   2.0000      -0.420233       -11.4351
  31   2.0000      -0.405255       -11.0275
  32   2.0000      -0.399328       -10.8663
  33   2.0000      -0.384681       -10.4677
  34   2.0000      -0.360840        -9.8189
  35   2.0000      -0.357489        -9.7278
  36   2.0000      -0.347188        -9.4475
  37   2.0000      -0.329032        -8.9534
  38   2.0000      -0.319239        -8.6869
  39   2.0000      -0.313214        -8.5230
  40   2.0000      -0.283608        -7.7174
  41   2.0000      -0.283220        -7.7068
  42   2.0000      -0.270302        -7.3553
  43   2.0000      -0.262617        -7.1462
  44   2.0000      -0.249513        -6.7896
  45   2.0000      -0.233742        -6.3604
  46   2.0000      -0.223522        -6.0823
  47   2.0000      -0.200582        -5.4581
  48   0.0000      -0.003304        -0.0899
  49   0.0000       0.013200         0.3592
  50   0.0000       0.032948         0.8966
  51   0.0000       0.044186         1.2024
  52   0.0000       0.058368         1.5883

MULLIKEN ATOMIC CHARGES
-----------------------
   0 C :    0.076104
   1 C :    0.007653
   2 H :    0.082616
   3 C :   -0.032515
   4 H :    0.075234
   5 C :    0.032812
   6 H :    0.070490
   7 C :    0.072913
   8 H :    0.069001
   9 C :    0.191234
  10 H :    0.055201
  11 O :   -0.303946
  12 O :   -0.375243
  13 O :   -0.426104
  14 O :   -0.425163
  15 O :   -0.413713
  16 O :   -0.434458
  17 H :    0.084485
  18 H :    0.099409
  19 H :    0.301476
  20 H :    0.289145
  21 H :    0.300800
  22 H :    0.311073
  23 H :    0.291496
Sum of atomic charges:   -0.0000000

LOEWDIN ATOMIC CHARGES
----------------------
   0 C :   -0.121116
   1 C :   -0.074815
   2 H :    0.118804
   3 C :   -0.084671
   4 H :    0.101825
   5 C :   -0.088771
   6 H :    0.112960
   7 C :   -0.092663
   8 H :    0.119340
   9 C :    0.000985
  10 H :    0.100423
  11 O :   -0.152763
  12 O :   -0.284513
  13 O :   -0.313894
  14 O :   -0.309800
  15 O :   -0.308492
  16 O :   -0.325940
  17 H :    0.101966
  18 H :    0.122972
  19 H :    0.286478
  20 H :    0.265457
  21 H :    0.265575
  22 H :    0.291912
  23 H :    0.268742

  Mayer bond orders larger than 0.100000
B(  0-C ,  1-C ) :   1.0314 B(  0-C , 16-O ) :   1.0943 B(  0-C , 17-H ) :   0.9177
B(  0-C , 18-H ) :   0.9153 B(  1-C ,  2-H ) :   0.8738 B(  1-C ,  3-C ) :   0.9581
B(  1-C , 11-O ) :   0.9999 B(  3-C ,  4-H ) :   0.9030 B(  3-C ,  5-C ) :   0.9829
B(  3-C , 15-O ) :   1.0325 B(  5-C ,  6-H ) :   0.8916 B(  5-C ,  7-C ) :   0.9516
B(  5-C , 14-O ) :   1.0442 B(  7-C ,  8-H ) :   0.8909 B(  7-C ,  9-C ) :   0.9681
B(  7-C , 13-O ) :   1.0469 B(  9-C , 10-H ) :   0.8773 B(  9-C , 11-O ) :   1.0064
B(  9-C , 12-O ) :   1.1439 B( 12-O , 19-H ) :   0.8442 B( 13-O , 20-H ) :   0.8196
B( 14-O , 21-H ) :   0.7980 B( 15-O , 22-H ) :   0.8370 B( 16-O , 23-H ) :   0.8155

Dispersion correction           -0.025618232
FINAL SINGLE POINT ENERGY      -685.691188083888

DIPOLE MOMENT
-------------

Method             : SCF
Type of density    : Electron Density
Multiplicity       :   1
Irrep              :   0
Energy             :  -685.8253957808775567 Eh
Relativity type    :
Basis              : AO
                                X                 Y                 Z
Electronic contribution:      2.790454870      -1.119215300      -1.016508303
Nuclear contribution   :     -3.485686931       1.875540418       1.552006939
                        -----------------------------------------
Total Dipole Moment    :     -0.695232061       0.756325119       0.535498636
                        -----------------------------------------
Magnitude (a.u.)       :      1.158505112
Magnitude (Debye)      :      2.944685976

Rotational constants in cm-1:             0.041788             0.027663             0.023471
Rotational constants in MHz :          1252.777233           829.314467           703.657297

                             ****ORCA TERMINATED NORMALLY****
TOTAL RUN TIME: 0 days 0 hours 0 minutes 8 seconds 281 msec
