                         Program Version 6.0.0  -   RELEASE  -
|  1> ! r2SCAN-3c DEF2-TZVP FREQ
|  2> * xyzfile 0 1 censo.xyz
|  3>
|  4>                          ****END OF INPUT****

CARTESIAN COORDINATES (ANGSTROEM)
---------------------------------
  C      1.889871   -0.002306   -0.283765
  C      1.178951   -1.259390    0.219872
  C     -0.301249   -1.258029   -0.171089
  C     -1.014252   -0.003887    0.327608
  C     -0.294659    1.248797   -0.181370
  C      1.183822    1.258658    0.216344
  N     -2.441393   -0.056519   -0.052117
  H      1.890435   -0.003305   -1.382629
  H      2.937828   -0.005207    0.038020
  H      1.668267   -2.158182   -0.172663
  H      1.261139   -1.303951    1.314729
  H     -0.388898   -1.296212   -1.267477
  H     -0.801546   -2.149781    0.224589
  H     -0.969036   -0.000327    1.426586
  H     -0.378972    1.272410   -1.278292
  H     -0.801755    2.143305    0.202597
  H      1.675304    2.155714   -0.177838
  H      1.263034    1.306388    1.311351
  H     -2.483735   -0.038239   -1.069523
  H     -2.873926    0.817836    0.236623

 Total Charge           Charge          ....    0
 Multiplicity           Mult            ....    1
 Number of Electrons    NEL             ....   56
 Basis Dimension        Dim             ....  295

ORBITAL ENERGIES
----------------

  NO   OCC          E(Eh)            E(eV)
   0   2.0000     -14.135320      -384.6416
   1   2.0000     -10.053567      -273.5715
   2   2.0000     -10.026562      -272.8366
   3   2.0000     -10.025245      -272.8008
   4   2.0000     -10.025000      -272.7941
   5   2.0000     -10.024137      -272.7706
   6   2.0000     -10.021678      -272.7037
   7   2.0000      -0.851396       -23.1677
   8   2.0000      -0.780660       -21.2428
   9   2.0000      -0.707145       -19.2424
  10   2.0000      -0.684019       -18.6131
  11   2.0000      -0.576717       -15.6933
  12   2.0000      -0.562714       -15.3122
  13   2.0000      -0.524238       -14.2652
  14   2.0000      -0.451783       -12.2936
  15   2.0000      -0.441291       -12.0081
  16   2.0000      -0.413150       -11.2424
  17   2.0000      -0.405269       -11.0279
  18   2.0000      -0.387806       -10.5527
  19   2.0000      -0.366951        -9.9852
  20   2.0000      -0.346905        -9.4398
  21   2.0000      -0.342954        -9.3322
  22   2.0000      -0.312186        -8.4950
  23   2.0000      -0.308902        -8.4057
  24   2.0000      -0.290705        -7.9105
  25   2.0000      -0.284120        -7.7313
  26   2.0000      -0.271721        -7.3939
  27   2.0000      -0.208475        -5.6729
  28   0.0000       0.038725         1.0538
  29   0.0000       0.048148         1.3102
  30   0.0000       0.054739         1.4895
  31   0.0000       0.076914         2.0929
  32   0.0000       0.098219         2.6727

MULLIKEN ATOMIC CHARGES
-----------------------
   0 C :   -0.157067
   1 C :   -0.155198
   2 C :   -0.161036
   3 C :    0.040179
   4 C :   -0.182650
   5 C :   -0.158541
   6 N :   -0.471294
   7 H :    0.072215
   8 H :    0.087698
   9 H :    0.088655
  10 H :    0.076406
  11 H :    0.065358
  12 H :    0.101256
  13 H :    0.054491
  14 H :    0.067003
  15 H :    0.079561
  16 H :    0.087349
  17 H :    0.075715
  18 H :    0.194565
  19 H :    0.195336
Sum of atomic charges:    0.0000000

LOEWDIN ATOMIC CHARGES
----------------------
   0 C :   -0.264431
   1 C :   -0.260136
   2 C :   -0.242890
   3 C :   -0.336658
   4 C :   -0.257203
   5 C :   -0.261611
   6 N :   -0.147251
   7 H :    0.133778
   8 H :    0.132199
   9 H :    0.132770
  10 H :    0.134999
  11 H :    0.134040
  12 H :    0.138336
  13 H :    0.143170
  14 H :    0.132672
  15 H :    0.129921
  16 H :    0.132016
  17 H :    0.134758
  18 H :    0.146670
  19 H :    0.144851

  Mayer bond orders larger than 0.100000
B(  0-C ,  1-C ) :   0.9886 B(  0-C ,  5-C ) :   0.9969 B(  0-C ,  7-H ) :   0.9635
B(  0-C ,  8-H ) :   0.9627 B(  1-C ,  2-C ) :   0.9854 B(  1-C ,  9-H ) :   0.9632
B(  1-C , 10-H ) :   0.9643 B(  2-C ,  3-C ) :   1.0057 B(  2-C , 11-H ) :   0.9520
B(  2-C , 12-H ) :   0.9622 B(  3-C ,  4-C ) :   1.0013 B(  3-C ,  6-N ) :   0.9856
B(  3-C , 13-H ) :   0.9454 B(  4-C ,  5-C ) :   0.9758 B(  4-C , 14-H ) :   0.9509
B(  4-C , 15-H ) :   0.9598 B(  5-C , 16-H ) :   0.9594 B(  5-C , 17-H ) :   0.9634
B(  6-N , 18-H ) :   0.9405 B(  6-N , 19-H ) :   0.9491

Dispersion correction           -0.005738415
FINAL SINGLE POINT ENERGY      -291.154221294431

DIPOLE MOMENT
-------------

Method             : SCF
Type of density    : Electron Density
Multiplicity       :   1
Irrep              :   0
Energy             :  -291.1595923960135224 Eh
Relativity type    :
Basis              : AO
                                X                 Y                 Z
Electronic contribution:     -1.606930151      -0.300064405       0.395803756
Nuclear contribution   :      1.915739360       0.723808644      -0.582583130
                        -----------------------------------------
Total Dipole Moment    :      0.308809210       0.423744238      -0.186779375
                        -----------------------------------------
Magnitude (a.u.)       :      0.556604745
Magnitude (Debye)      :      1.414776829

VIBRATIONAL FREQUENCIES
-----------------------

Scaling factor for frequencies =  1.000000000  (already applied!)

     0:       0.00 cm**-1
     1:       0.00 cm**-1
     2:       0.00 cm**-1
     3:       0.00 cm**-1
     4:       0.00 cm**-1
     5:       0.00 cm**-1
     6:     166.37 cm**-1
     7:     234.01 cm**-1
     8:     270.63 cm**-1
     9:     343.19 cm**-1
    10:     352.43 cm**-1
    11:     412.03 cm**-1
    12:     454.90 cm**-1
    13:     468.89 cm**-1
    14:     555.81 cm**-1
    15:     789.06 cm**-1
    16:     794.47 cm**-1
    17:     852.87 cm**-1
    18:     880.55 cm**-1
    19:     892.78 cm**-1
    20:     920.82 cm**-1
    21:     942.32 cm**-1
    22:     989.13 cm**-1
    23:    1038.45 cm**-1
    24:    1042.84 cm**-1
    25:    1074.11 cm**-1
    26:    1091.72 cm**-1
    27:    1115.18 cm**-1
    28:    1116.38 cm**-1
    29:    1197.25 cm**-1
    30:    1226.59 cm**-1
    31:    1280.69 cm**-1
    32:    1286.41 cm**-1
    33:    1303.05 cm**-1
    34:    1328.59 cm**-1
    35:    1356.24 cm**-1
    36:    1357.21 cm**-1
    37:    1367.08 cm**-1
    38:    1369.04 cm**-1
    39:    1370.74 cm**-1
    40:    1412.06 cm**-1
    41:    1465.49 cm**-1
    42:    1473.74 cm**-1
    43:    1475.36 cm**-1
    44:    1481.73 cm**-1
    45:    1494.05 cm**-1
    46:    1651.74 cm**-1
    47:    2974.43 cm**-1
    48:    2975.71 cm**-1
    49:    2988.34 cm**-1
    50:    2991.47 cm**-1
    51:    2992.71 cm**-1
    52:    2995.73 cm**-1
    53:    3034.27 cm**-1
    54:    3044.13 cm**-1
    55:    3046.18 cm**-1
    56:    3048.95 cm**-1
    57:    3054.68 cm**-1
    58:    3435.02 cm**-1
    59:    3514.66 cm**-1

IR SPECTRUM
-----------

 Mode   freq       eps      Int      T**2         TX        TY        TZ
       cm**-1   L/(mol*cm) km/mol    a.u.
----------------------------------------------------------------------------
  6:    166.37   0.000084    0.42  0.000157  ( 0.010257 -0.001504  0.007016)
  7:    234.01   0.000752    3.80  0.001003  (-0.007163  0.016682  0.025947)
  8:    270.63   0.006549   33.09  0.007551  ( 0.023779 -0.045959 -0.069812)
  9:    343.19   0.000278    1.41  0.000253  (-0.013151 -0.002607 -0.008564)
 10:    352.43   0.002740   13.85  0.002426  (-0.039902  0.019529  0.021268)
 11:    412.03   0.000038    0.19  0.000028  ( 0.005202 -0.000618 -0.001011)
 12:    454.90   0.000375    1.89  0.000257  (-0.015626 -0.000869  0.003486)
 13:    468.89   0.000232    1.17  0.000155  ( 0.004939  0.006500  0.009379)
 14:    555.81   0.000267    1.35  0.000150  ( 0.004120 -0.002239 -0.011315)
 15:    789.06   0.000629    3.18  0.000249  ( 0.014300  0.003543  0.005630)
 16:    794.47   0.000028    0.14  0.000011  ( 0.001259 -0.002960  0.000698)
 17:    852.87   0.001101    5.56  0.000403  ( 0.019892  0.002652  0.000127)
 18:    880.55   0.004196   21.20  0.001487  ( 0.036455  0.012242  0.002842)
 19:    892.78   0.002552   12.90  0.000892  (-0.028598  0.007803  0.003644)
 20:    920.82   0.009621   48.62  0.003261  (-0.049398 -0.028532  0.002536)
 21:    942.32   0.013736   69.41  0.004549  (-0.060968 -0.028760  0.002121)
 22:    989.13   0.002456   12.41  0.000775  (-0.022051 -0.013750  0.009985)
 23:   1038.45   0.000200    1.01  0.000060  ( 0.006932 -0.000503  0.003452)
 24:   1042.84   0.000801    4.05  0.000240  ( 0.014171  0.006228  0.000009)
 25:   1074.11   0.000055    0.28  0.000016  (-0.001118 -0.003147  0.002193)
 26:   1091.72   0.000008    0.04  0.000002  (-0.000377 -0.001457 -0.000140)
 27:   1115.18   0.001142    5.77  0.000320  ( 0.002922  0.017405 -0.002870)
 28:   1116.38   0.000882    4.46  0.000247  ( 0.014923  0.000516 -0.004855)
 29:   1197.25   0.000447    2.26  0.000116  ( 0.004946  0.009101 -0.003023)
 30:   1226.59   0.000874    4.42  0.000222  (-0.014287 -0.004074  0.001259)
 31:   1280.69   0.000157    0.79  0.000038  ( 0.004991  0.002322  0.002815)
 32:   1286.41   0.000551    2.78  0.000134  (-0.001933 -0.011361 -0.000915)
 33:   1303.05   0.000204    1.03  0.000049  (-0.005594 -0.002629 -0.003281)
 34:   1328.59   0.000198    1.00  0.000046  ( 0.006804  0.000320 -0.000228)
 35:   1356.24   0.000189    0.95  0.000043  (-0.004555 -0.003322 -0.003406)
 36:   1357.21   0.000405    2.05  0.000093  (-0.007206 -0.006370 -0.000805)
 37:   1367.08   0.000018    0.09  0.000004  ( 0.000302  0.000498  0.001934)
 38:   1369.04   0.000610    3.08  0.000139  (-0.009939 -0.003124  0.005531)
 39:   1370.74   0.000234    1.18  0.000053  ( 0.001226 -0.006982  0.001742)
 40:   1412.06   0.000707    3.57  0.000156  (-0.009779  0.002620 -0.007326)
 41:   1465.49   0.000239    1.21  0.000051  (-0.001013  0.006985 -0.001053)
 42:   1473.74   0.000299    1.51  0.000063  ( 0.007686 -0.002040 -0.000289)
 43:   1475.36   0.001100    5.56  0.000233  (-0.003389 -0.014861  0.000533)
 44:   1481.73   0.002852   14.41  0.000601  ( 0.005869  0.001302  0.023758)
 45:   1494.05   0.000385    1.95  0.000080  (-0.008058  0.001014  0.003800)
 46:   1651.74   0.005853   29.58  0.001106  (-0.016588  0.018019 -0.022494)
 47:   2974.43   0.004640   23.45  0.000487  ( 0.010441 -0.018618  0.005585)
 48:   2975.71   0.002495   12.61  0.000262  ( 0.010469  0.008720  0.008722)
 49:   2988.34   0.002916   14.74  0.000305  ( 0.016244  0.000921 -0.006310)
 50:   2991.47   0.004217   21.31  0.000440  ( 0.009199  0.015149  0.011216)
 51:   2992.71   0.001892    9.56  0.000197  (-0.012341  0.005944  0.003109)
 52:   2995.73   0.016359   82.67  0.001704  ( 0.014257 -0.007781  0.037951)
 53:   3034.27   0.012836   64.87  0.001320  ( 0.008435 -0.030912 -0.017129)
 54:   3044.13   0.012197   61.64  0.001250  ( 0.031381  0.015301 -0.005609)
 55:   3046.18   0.007423   37.51  0.000760  ( 0.013589 -0.023529  0.004704)
 56:   3048.95   0.002728   13.79  0.000279  ( 0.002979  0.016283  0.002292)
 57:   3054.68   0.020982  106.03  0.002143  ( 0.001884  0.003347 -0.046138)
 58:   3435.02   0.000546    2.76  0.000050  (-0.003661  0.004288 -0.004224)
 59:   3514.66   0.000106    0.54  0.000009  (-0.002371  0.001531  0.001220)

--------------------------
THERMOCHEMISTRY AT 298.15K
--------------------------

Temperature         ...   298.15 K
Pressure            ...     1.00 atm
Total Mass          ...    99.18 AMU
Quasi RRHO          ...     True
Cut-Off Frequency   ...     1.00 cm^-1

Throughout the following assumptions are being made:
  (1) The electronic state is orbitally nondegenerate
  (2) There are no thermally accessible electronically excited states
  (3) Hindered rotations indicated by low frequency modes are not
      treated as such but are treated as vibrations and this may
      cause some error
  (4) All equations used are the standard statistical mechanics
      equations for an ideal gas
  (5) All vibrations are strictly harmonic

freq.     166.37  E(vib)   ...       0.39
freq.     234.01  E(vib)   ...       0.32
freq.     270.63  E(vib)   ...       0.29
freq.     343.19  E(vib)   ...       0.23
freq.     352.43  E(vib)   ...       0.23
freq.     412.03  E(vib)   ...       0.19
freq.     454.90  E(vib)   ...       0.16
freq.     468.89  E(vib)   ...       0.16
freq.     555.81  E(vib)   ...       0.12
freq.     789.06  E(vib)   ...       0.05
freq.     794.47  E(vib)   ...       0.05
freq.     852.87  E(vib)   ...       0.04
freq.     880.55  E(vib)   ...       0.04
freq.     892.78  E(vib)   ...       0.03
freq.     920.82  E(vib)   ...       0.03
freq.     942.32  E(vib)   ...       0.03
freq.     989.13  E(vib)   ...       0.02
freq.    1038.45  E(vib)   ...       0.02
freq.    1042.84  E(vib)   ...       0.02
freq.    1074.11  E(vib)   ...       0.02
freq.    1091.72  E(vib)   ...       0.02
freq.    1115.18  E(vib)   ...       0.01
freq.    1116.38  E(vib)   ...       0.01
freq.    1197.25  E(vib)   ...       0.01
freq.    1226.59  E(vib)   ...       0.01
freq.    1280.69  E(vib)   ...       0.01
freq.    1286.41  E(vib)   ...       0.01
freq.    1303.05  E(vib)   ...       0.01
freq.    1328.59  E(vib)   ...       0.01
freq.    1356.24  E(vib)   ...       0.01
freq.    1357.21  E(vib)   ...       0.01
freq.    1367.08  E(vib)   ...       0.01
freq.    1369.04  E(vib)   ...       0.01
freq.    1370.74  E(vib)   ...       0.01
freq.    1412.06  E(vib)   ...       0.00
freq.    1465.49  E(vib)   ...       0.00
freq.    1473.74  E(vib)   ...       0.00
freq.    1475.36  E(vib)   ...       0.00
freq.    1481.73  E(vib)   ...       0.00
freq.    1494.05  E(vib)   ...       0.00
freq.    1651.74  E(vib)   ...       0.00
freq.    2974.43  E(vib)   ...       0.00
freq.    2975.71  E(vib)   ...       0.00
freq.    2988.34  E(vib)   ...       0.00
freq.    2991.47  E(vib)   ...       0.00
freq.    2992.71  E(vib)   ...       0.00
freq.    2995.73  E(vib)   ...       0.00
freq.    3034.27  E(vib)   ...       0.00
freq.    3044.13  E(vib)   ...       0.00
freq.    3046.18  E(vib)   ...       0.00
freq.    3048.95  E(vib)   ...       0.00
freq.    3054.68  E(vib)   ...       0.00
freq.    3435.02  E(vib)   ...       0.00
freq.    3514.66  E(vib)   ...       0.00

------------
INNER ENERGY
------------

The inner energy is: U= E(el) + E(ZPE) + E(vib) + E(rot) + E(trans)
    E(el)   - is the total energy from the electronic structure calculation
              = E(kin-el) + E(nuc-el) + E(el-el) + E(nuc-nuc)
    E(ZPE)  - the the zero temperature vibrational energy from the frequency calculation
    E(vib)  - the the finite temperature correction to E(ZPE) due to population
              of excited vibrational states
    E(rot)  - is the rotational thermal energy
    E(trans)- is the translational thermal energy

Summary of contributions to the inner energy U:
Electronic energy                ...   -291.15422129 Eh
Zero point energy                ...      0.18633652 Eh     116.93 kcal/mol
Thermal vibrational correction   ...      0.00409613 Eh       2.57 kcal/mol
Thermal rotational correction    ...      0.00141627 Eh       0.89 kcal/mol
Thermal translational correction ...      0.00141627 Eh       0.89 kcal/mol
-----------------------------------------------------------------------
Total thermal energy                   -290.96095610 Eh

Summary of corrections to the electronic energy:
(perhaps to be used in another calculation)
Total thermal correction                  0.00692867 Eh       4.35 kcal/mol
Non-thermal (ZPE) correction              0.18633652 Eh     116.93 kcal/mol
-----------------------------------------------------------------------
Total correction                          0.19326519 Eh     121.28 kcal/mol

--------
ENTHALPY
--------

The enthalpy is H = U + kB*T
                kB is Boltzmann's constant
Total thermal energy              ...   -290.96095610 Eh
Thermal Enthalpy correction       ...      0.00094421 Eh       0.59 kcal/mol
-----------------------------------------------------------------------
Total Enthalpy                    ...   -290.96001189 Eh

Note: Only C1 symmetry has been detected, increase convergence thresholds
      if your molecule has a higher symmetry. Symmetry factor of 1.0 is
      used for the rotational entropy correction.

Note: Rotational entropy computed according to Herzberg
Infrared and Raman Spectra, Chapter V,1, Van Nostrand Reinhold, 1945
Point Group:  C1, Symmetry Number:   1
Rotational constants in cm-1:     0.142577     0.073646     0.053585

Vibrational entropy computed according to the QRRHO of S. Grimme
Chem.Eur.J. 2012 18 9955 using a reference frequency of 100.0 cm-1

-------
ENTROPY
-------

The entropy contributions are T*S = T*(S(el)+S(vib)+S(rot)+S(trans))
     S(el)   - electronic entropy
     S(vib)  - vibrational entropy
     S(rot)  - rotational entropy
     S(trans)- translational entropy
The entropies will be listed as multiplied by the temperature to get
units of energy

Electronic entropy                ...      0.00000000 Eh      0.00 kcal/mol
Vibrational entropy               ...      0.00630798 Eh      3.96 kcal/mol
Rotational entropy                ...      0.01304339 Eh      8.18 kcal/mol
Translational entropy             ...      0.01885954 Eh     11.83 kcal/mol
-----------------------------------------------------------------------
Final entropy term                ...      0.03821090 Eh     23.98 kcal/mol

In case the symmetry of your molecule has not been determined correctly
or in case you have a reason to use a different symmetry number we print
out the resulting rotational entropy values for sn=1,12:

 non-linear molecules -----------------------------------
|  sn= 1 | S(rot)=       0.01304339 Eh      8.18 kcal/mol|
|  sn= 2 | S(rot)=       0.01238893 Eh      7.77 kcal/mol|
|  sn= 3 | S(rot)=       0.01200610 Eh      7.53 kcal/mol|
|  sn= 4 | S(rot)=       0.01173448 Eh      7.36 kcal/mol|
|  sn= 5 | S(rot)=       0.01152379 Eh      7.23 kcal/mol|
|  sn= 6 | S(rot)=       0.01135164 Eh      7.12 kcal/mol|

                             ****ORCA TERMINATED NORMALLY****
TOTAL RUN TIME: 0 days 0 hours 9 minutes 41 seconds 250 msec
