                         Program Version 6.0.0  -   RELEASE  -
|  1> ! r2SCAN-3c DEF2-TZVP FREQ
|  2> * xyzfile 0 1 vacuum_censo.xyz
|  3>
|  4>                          ****END OF INPUT****

CARTESIAN COORDINATES (ANGSTROEM)
---------------------------------
  C      1.896233    0.031200   -0.288005
  C      1.218950   -1.266159    0.159685
  C     -0.255506   -1.285393   -0.249737
  C     -1.004203   -0.071157    0.300267
  C     -0.325664    1.219378   -0.159995
  C      1.148323    1.253208    0.250383
  N     -2.392978   -0.093461   -0.184215
  H      1.906814    0.070882   -1.386141
  H      2.941598    0.048571    0.041434
  H      1.737129   -2.133550   -0.264622
  H      1.296760   -1.355918    1.252307
  H     -0.343135   -1.273335   -1.344647
  H     -0.735862   -2.209045    0.099774
  H     -0.938073   -0.108791    1.406157
  H     -0.414231    1.281053   -1.253171
  H     -0.856507    2.087277    0.253394
  H      1.616787    2.176389   -0.109264
  H      1.223073    1.268047    1.346827
  H     -2.908561    0.683988    0.216441
  H     -2.855603   -0.936476    0.141674

 Total Charge           Charge          ....    0
 Multiplicity           Mult            ....    1
 Number of Electrons    NEL             ....   56
 Basis Dimension        Dim             ....  295

ORBITAL ENERGIES
----------------

  NO   OCC          E(Eh)            E(eV)
   0   2.0000     -14.134696      -384.6246
   1   2.0000     -10.053561      -273.5713
   2   2.0000     -10.024062      -272.7686
   3   2.0000     -10.024005      -272.7670
   4   2.0000     -10.022810      -272.7345
   5   2.0000     -10.020548      -272.6730
   6   2.0000     -10.020372      -272.6682
   7   2.0000      -0.850122       -23.1330
   8   2.0000      -0.778828       -21.1930
   9   2.0000      -0.705051       -19.1854
  10   2.0000      -0.683208       -18.5910
  11   2.0000      -0.575811       -15.6686
  12   2.0000      -0.559820       -15.2335
  13   2.0000      -0.515523       -14.0281
  14   2.0000      -0.444127       -12.0853
  15   2.0000      -0.439266       -11.9530
  16   2.0000      -0.427124       -11.6226
  17   2.0000      -0.406295       -11.0559
  18   2.0000      -0.398521       -10.8443
  19   2.0000      -0.352944        -9.6041
  20   2.0000      -0.345729        -9.4078
  21   2.0000      -0.329813        -8.9747
  22   2.0000      -0.319188        -8.6855
  23   2.0000      -0.308276        -8.3886
  24   2.0000      -0.288632        -7.8541
  25   2.0000      -0.277051        -7.5389
  26   2.0000      -0.266401        -7.2491
  27   2.0000      -0.208312        -5.6685
  28   0.0000       0.037099         1.0095
  29   0.0000       0.052290         1.4229
  30   0.0000       0.064922         1.7666
  31   0.0000       0.073534         2.0010
  32   0.0000       0.099470         2.7067

MULLIKEN ATOMIC CHARGES
-----------------------
   0 C :   -0.153924
   1 C :   -0.160981
   2 C :   -0.179247
   3 C :    0.096007
   4 C :   -0.177881
   5 C :   -0.161085
   6 N :   -0.518679
   7 H :    0.074051
   8 H :    0.086908
   9 H :    0.088040
  10 H :    0.073429
  11 H :    0.086759
  12 H :    0.076494
  13 H :    0.041961
  14 H :    0.086425
  15 H :    0.076525
  16 H :    0.088108
  17 H :    0.073298
  18 H :    0.201835
  19 H :    0.201957
Sum of atomic charges:   -0.0000000

LOEWDIN ATOMIC CHARGES
----------------------
   0 C :   -0.262725
   1 C :   -0.261360
   2 C :   -0.243674
   3 C :   -0.338772
   4 C :   -0.243583
   5 C :   -0.261359
   6 N :   -0.148459
   7 H :    0.134777
   8 H :    0.131547
   9 H :    0.132456
  10 H :    0.133515
  11 H :    0.139490
  12 H :    0.131148
  13 H :    0.128444
  14 H :    0.139445
  15 H :    0.131167
  16 H :    0.132463
  17 H :    0.133489
  18 H :    0.145962
  19 H :    0.146030

  Mayer bond orders larger than 0.100000
B(  0-C ,  1-C ) :   0.9969 B(  0-C ,  5-C ) :   0.9968 B(  0-C ,  7-H ) :   0.9630
B(  0-C ,  8-H ) :   0.9629 B(  1-C ,  2-C ) :   0.9986 B(  1-C ,  9-H ) :   0.9638
B(  1-C , 10-H ) :   0.9622 B(  2-C ,  3-C ) :   0.9651 B(  2-C , 11-H ) :   0.9651
B(  2-C , 12-H ) :   0.9574 B(  3-C ,  4-C ) :   0.9651 B(  3-C ,  6-N ) :   0.9527
B(  3-C , 13-H ) :   0.9725 B(  4-C ,  5-C ) :   0.9981 B(  4-C , 14-H ) :   0.9649
B(  4-C , 15-H ) :   0.9575 B(  5-C , 16-H ) :   0.9638 B(  5-C , 17-H ) :   0.9622
B(  6-N , 18-H ) :   0.9346 B(  6-N , 19-H ) :   0.9344

Dispersion correction           -0.005719105
FINAL SINGLE POINT ENERGY      -291.154784115201

DIPOLE MOMENT
-------------

Method             : SCF
Type of density    : Electron Density
Multiplicity       :   1
Irrep              :   0
Energy             :  -291.1600857487875373 Eh
Relativity type    :
Basis              : AO
                                X                 Y                 Z
Electronic contribution:     -1.508624610      -0.032508328      -0.142927464
Nuclear contribution   :      1.512887884       0.009876830       0.623622513
                        -----------------------------------------
Total Dipole Moment    :      0.004263274      -0.022631498       0.480695049
                        -----------------------------------------
Magnitude (a.u.)       :      0.481246392
Magnitude (Debye)      :      1.223231117

VIBRATIONAL FREQUENCIES
-----------------------

Scaling factor for frequencies =  1.000000000  (already applied!)

     0:       0.00 cm**-1
     1:       0.00 cm**-1
     2:       0.00 cm**-1
     3:       0.00 cm**-1
     4:       0.00 cm**-1
     5:       0.00 cm**-1
     6:     168.20 cm**-1
     7:     238.70 cm**-1
     8:     262.68 cm**-1
     9:     343.58 cm**-1
    10:     344.20 cm**-1
    11:     409.63 cm**-1
    12:     461.79 cm**-1
    13:     470.39 cm**-1
    14:     557.19 cm**-1
    15:     789.33 cm**-1
    16:     795.21 cm**-1
    17:     849.95 cm**-1
    18:     857.66 cm**-1
    19:     892.90 cm**-1
    20:     911.07 cm**-1
    21:     929.75 cm**-1
    22:     989.48 cm**-1
    23:    1027.12 cm**-1
    24:    1041.49 cm**-1
    25:    1074.31 cm**-1
    26:    1092.79 cm**-1
    27:    1094.72 cm**-1
    28:    1149.06 cm**-1
    29:    1168.84 cm**-1
    30:    1265.41 cm**-1
    31:    1274.75 cm**-1
    32:    1284.72 cm**-1
    33:    1285.08 cm**-1
    34:    1334.50 cm**-1
    35:    1335.71 cm**-1
    36:    1357.17 cm**-1
    37:    1368.55 cm**-1
    38:    1370.34 cm**-1
    39:    1393.04 cm**-1
    40:    1406.64 cm**-1
    41:    1471.28 cm**-1
    42:    1475.03 cm**-1
    43:    1476.42 cm**-1
    44:    1483.12 cm**-1
    45:    1495.92 cm**-1
    46:    1649.99 cm**-1
    47:    2882.63 cm**-1
    48:    2987.75 cm**-1
    49:    2989.91 cm**-1
    50:    2990.28 cm**-1
    51:    2993.41 cm**-1
    52:    2994.73 cm**-1
    53:    3035.87 cm**-1
    54:    3039.37 cm**-1
    55:    3045.45 cm**-1
    56:    3047.84 cm**-1
    57:    3054.63 cm**-1
    58:    3464.40 cm**-1
    59:    3549.28 cm**-1

IR SPECTRUM
-----------

 Mode   freq       eps      Int      T**2         TX        TY        TZ
       cm**-1   L/(mol*cm) km/mol    a.u.
----------------------------------------------------------------------------
  6:    168.20   0.000207    1.05  0.000384  ( 0.019104  0.000760  0.004312)
  7:    238.70   0.000294    1.48  0.000384  ( 0.000502 -0.019564 -0.000915)
  8:    262.68   0.006015   30.40  0.007145  (-0.002981  0.084393  0.003792)
  9:    343.58   0.000157    0.80  0.000143  (-0.010652  0.000874 -0.005368)
 10:    344.20   0.001430    7.23  0.001297  ( 0.000594 -0.035963 -0.001778)
 11:    409.63   0.000049    0.25  0.000038  ( 0.002271  0.000067  0.005704)
 12:    461.79   0.000209    1.06  0.000141  (-0.000788  0.011858  0.000225)
 13:    470.39   0.001324    6.69  0.000878  ( 0.023902  0.000237  0.017517)
 14:    557.19   0.000971    4.90  0.000544  (-0.021649 -0.000356 -0.008647)
 15:    789.33   0.000752    3.80  0.000297  (-0.013066  0.000082 -0.011246)
 16:    795.21   0.000056    0.28  0.000022  (-0.000026 -0.004658 -0.000346)
 17:    849.95   0.009534   48.18  0.003500  ( 0.042847 -0.000473  0.040794)
 18:    857.66   0.008878   44.87  0.003230  ( 0.033363 -0.001116  0.046001)
 19:    892.90   0.001005    5.08  0.000351  ( 0.000107 -0.018690 -0.001337)
 20:    911.07   0.007155   36.16  0.002451  (-0.022818  0.001469 -0.043907)
 21:    929.75   0.000009    0.04  0.000003  ( 0.000054  0.001651  0.000473)
 22:    989.48   0.000096    0.48  0.000030  (-0.000183 -0.000352  0.005486)
 23:   1027.12   0.000001    0.01  0.000000  ( 0.000163 -0.000582 -0.000198)
 24:   1041.49   0.000139    0.70  0.000042  (-0.006407 -0.000255  0.000622)
 25:   1074.31   0.000007    0.03  0.000002  (-0.000029 -0.001395 -0.000016)
 26:   1092.79   0.000019    0.10  0.000005  (-0.001415  0.001837  0.000280)
 27:   1094.72   0.002954   14.93  0.000842  ( 0.028882  0.001097 -0.002576)
 28:   1149.06   0.000063    0.32  0.000017  (-0.000025  0.004124 -0.000058)
 29:   1168.84   0.000591    2.99  0.000158  ( 0.000278 -0.000480  0.012549)
 30:   1265.41   0.000414    2.09  0.000102  (-0.009680 -0.000310  0.002891)
 31:   1274.75   0.000060    0.30  0.000015  (-0.000226 -0.003817  0.000023)
 32:   1284.72   0.000063    0.32  0.000015  ( 0.003208  0.002146  0.000690)
 33:   1285.08   0.000231    1.17  0.000056  (-0.001146  0.007398  0.000028)
 34:   1334.50   0.000055    0.28  0.000013  ( 0.000863 -0.003490  0.000033)
 35:   1335.71   0.000484    2.44  0.000113  ( 0.010204  0.000547  0.002925)
 36:   1357.17   0.000004    0.02  0.000001  ( 0.000048 -0.000962 -0.000065)
 37:   1368.55   0.000001    0.01  0.000000  (-0.000091 -0.000561 -0.000012)
 38:   1370.34   0.000859    4.34  0.000196  (-0.013810 -0.000512  0.002143)
 39:   1393.04   0.002053   10.38  0.000460  (-0.021420 -0.000772  0.000701)
 40:   1406.64   0.000234    1.18  0.000052  (-0.000417  0.007188  0.000218)
 41:   1471.28   0.000243    1.23  0.000052  ( 0.000179 -0.007175 -0.000293)
 42:   1475.03   0.000293    1.48  0.000062  ( 0.007324  0.000326 -0.002875)
 43:   1476.42   0.001064    5.38  0.000225  (-0.000481  0.014978  0.000603)
 44:   1483.12   0.002857   14.44  0.000601  (-0.008302  0.000622 -0.023060)
 45:   1495.92   0.000435    2.20  0.000091  ( 0.006785  0.000483 -0.006663)
 46:   1649.99   0.007189   36.33  0.001360  (-0.032169 -0.001863  0.017925)
 47:   2882.63   0.013039   65.89  0.001412  ( 0.011766 -0.000915  0.035668)
 48:   2987.75   0.007149   36.13  0.000747  ( 0.025548  0.001357  0.009597)
 49:   2989.91   0.006856   34.65  0.000716  ( 0.000487 -0.026713 -0.001315)
 50:   2990.28   0.004960   25.07  0.000518  (-0.000983  0.022699  0.001193)
 51:   2993.41   0.007102   35.89  0.000740  ( 0.014059 -0.001395  0.023254)
 52:   2994.73   0.004777   24.14  0.000498  ( 0.013677  0.001154 -0.017589)
 53:   3035.87   0.012752   64.45  0.001311  (-0.001172  0.036161  0.001359)
 54:   3039.37   0.004810   24.31  0.000494  (-0.011360 -0.001224  0.019061)
 55:   3045.45   0.010661   53.88  0.001092  (-0.032850 -0.002040 -0.003026)
 56:   3047.84   0.005314   26.85  0.000544  ( 0.002525 -0.023180  0.000616)
 57:   3054.63   0.020432  103.25  0.002087  (-0.004066 -0.001007  0.045495)
 58:   3464.40   0.000624    3.15  0.000056  ( 0.007294  0.000287 -0.001713)
 59:   3549.28   0.000004    0.02  0.000000  (-0.000015  0.000613 -0.000035)

--------------------------
THERMOCHEMISTRY AT 298.15K
--------------------------

Temperature         ...   298.15 K
Pressure            ...     1.00 atm
Total Mass          ...    99.18 AMU
Quasi RRHO          ...     True
Cut-Off Frequency   ...     1.00 cm^-1

Throughout the following assumptions are being made:
  (1) The electronic state is orbitally nondegenerate
  (2) There are no thermally accessible electronically excited states
  (3) Hindered rotations indicated by low frequency modes are not
      treated as such but are treated as vibrations and this may
      cause some error
  (4) All equations used are the standard statistical mechanics
      equations for an ideal gas
  (5) All vibrations are strictly harmonic

freq.     168.20  E(vib)   ...       0.38
freq.     238.70  E(vib)   ...       0.32
freq.     262.68  E(vib)   ...       0.29
freq.     343.58  E(vib)   ...       0.23
freq.     344.20  E(vib)   ...       0.23
freq.     409.63  E(vib)   ...       0.19
freq.     461.79  E(vib)   ...       0.16
freq.     470.39  E(vib)   ...       0.15
freq.     557.19  E(vib)   ...       0.12
freq.     789.33  E(vib)   ...       0.05
freq.     795.21  E(vib)   ...       0.05
freq.     849.95  E(vib)   ...       0.04
freq.     857.66  E(vib)   ...       0.04
freq.     892.90  E(vib)   ...       0.03
freq.     911.07  E(vib)   ...       0.03
freq.     929.75  E(vib)   ...       0.03
freq.     989.48  E(vib)   ...       0.02
freq.    1027.12  E(vib)   ...       0.02
freq.    1041.49  E(vib)   ...       0.02
freq.    1074.31  E(vib)   ...       0.02
freq.    1092.79  E(vib)   ...       0.02
freq.    1094.72  E(vib)   ...       0.02
freq.    1149.06  E(vib)   ...       0.01
freq.    1168.84  E(vib)   ...       0.01
freq.    1265.41  E(vib)   ...       0.01
freq.    1274.75  E(vib)   ...       0.01
freq.    1284.72  E(vib)   ...       0.01
freq.    1285.08  E(vib)   ...       0.01
freq.    1334.50  E(vib)   ...       0.01
freq.    1335.71  E(vib)   ...       0.01
freq.    1357.17  E(vib)   ...       0.01
freq.    1368.55  E(vib)   ...       0.01
freq.    1370.34  E(vib)   ...       0.01
freq.    1393.04  E(vib)   ...       0.00
freq.    1406.64  E(vib)   ...       0.00
freq.    1471.28  E(vib)   ...       0.00
freq.    1475.03  E(vib)   ...       0.00
freq.    1476.42  E(vib)   ...       0.00
freq.    1483.12  E(vib)   ...       0.00
freq.    1495.92  E(vib)   ...       0.00
freq.    1649.99  E(vib)   ...       0.00
freq.    2882.63  E(vib)   ...       0.00
freq.    2987.75  E(vib)   ...       0.00
freq.    2989.91  E(vib)   ...       0.00
freq.    2990.28  E(vib)   ...       0.00
freq.    2993.41  E(vib)   ...       0.00
freq.    2994.73  E(vib)   ...       0.00
freq.    3035.87  E(vib)   ...       0.00
freq.    3039.37  E(vib)   ...       0.00
freq.    3045.45  E(vib)   ...       0.00
freq.    3047.84  E(vib)   ...       0.00
freq.    3054.63  E(vib)   ...       0.00
freq.    3464.40  E(vib)   ...       0.00
freq.    3549.28  E(vib)   ...       0.00

------------
INNER ENERGY
------------

The inner energy is: U= E(el) + E(ZPE) + E(vib) + E(rot) + E(trans)
    E(el)   - is the total energy from the electronic structure calculation
              = E(kin-el) + E(nuc-el) + E(el-el) + E(nuc-nuc)
    E(ZPE)  - the the zero temperature vibrational energy from the frequency calculation
    E(vib)  - the the finite temperature correction to E(ZPE) due to population
              of excited vibrational states
    E(rot)  - is the rotational thermal energy
    E(trans)- is the translational thermal energy

Summary of contributions to the inner energy U:
Electronic energy                ...   -291.15478412 Eh
Zero point energy                ...      0.18617920 Eh     116.83 kcal/mol
Thermal vibrational correction   ...      0.00411118 Eh       2.58 kcal/mol
Thermal rotational correction    ...      0.00141627 Eh       0.89 kcal/mol
Thermal translational correction ...      0.00141627 Eh       0.89 kcal/mol
-----------------------------------------------------------------------
Total thermal energy                   -290.96166120 Eh

Summary of corrections to the electronic energy:
(perhaps to be used in another calculation)
Total thermal correction                  0.00694372 Eh       4.36 kcal/mol
Non-thermal (ZPE) correction              0.18617920 Eh     116.83 kcal/mol
-----------------------------------------------------------------------
Total correction                          0.19312292 Eh     121.19 kcal/mol

--------
ENTHALPY
--------

The enthalpy is H = U + kB*T
                kB is Boltzmann's constant
Total thermal energy              ...   -290.96166120 Eh
Thermal Enthalpy correction       ...      0.00094421 Eh       0.59 kcal/mol
-----------------------------------------------------------------------
Total Enthalpy                    ...   -290.96071699 Eh

Note: Only C1 symmetry has been detected, increase convergence thresholds
      if your molecule has a higher symmetry. Symmetry factor of 1.0 is
      used for the rotational entropy correction.

Note: Rotational entropy computed according to Herzberg
Infrared and Raman Spectra, Chapter V,1, Van Nostrand Reinhold, 1945
Point Group:  C1, Symmetry Number:   1
Rotational constants in cm-1:     0.142584     0.074164     0.053587

Vibrational entropy computed according to the QRRHO of S. Grimme
Chem.Eur.J. 2012 18 9955 using a reference frequency of 100.0 cm-1

-------
ENTROPY
-------

The entropy contributions are T*S = T*(S(el)+S(vib)+S(rot)+S(trans))
     S(el)   - electronic entropy
     S(vib)  - vibrational entropy
     S(rot)  - rotational entropy
     S(trans)- translational entropy
The entropies will be listed as multiplied by the temperature to get
units of energy

Electronic entropy                ...      0.00000000 Eh      0.00 kcal/mol
Vibrational entropy               ...      0.00632910 Eh      3.97 kcal/mol
Rotational entropy                ...      0.01304004 Eh      8.18 kcal/mol
Translational entropy             ...      0.01885954 Eh     11.83 kcal/mol
-----------------------------------------------------------------------
Final entropy term                ...      0.03822867 Eh     23.99 kcal/mol

In case the symmetry of your molecule has not been determined correctly
or in case you have a reason to use a different symmetry number we print
out the resulting rotational entropy values for sn=1,12:

 non-linear molecules -----------------------------------
|  sn= 1 | S(rot)=       0.01304004 Eh      8.18 kcal/mol|
|  sn= 2 | S(rot)=       0.01238558 Eh      7.77 kcal/mol|
|  sn= 3 | S(rot)=       0.01200275 Eh      7.53 kcal/mol|
|  sn= 4 | S(rot)=       0.01173113 Eh      7.36 kcal/mol|
|  sn= 5 | S(rot)=       0.01152044 Eh      7.23 kcal/mol|
|  sn= 6 | S(rot)=       0.01134829 Eh      7.12 kcal/mol|

                             ****ORCA TERMINATED NORMALLY****
TOTAL RUN TIME: 0 days 0 hours 9 minutes 23 seconds 919 msec
