                         Program Version 6.0.1  -  RELEASE   -
|  1> ! r2scan-3c def2/J RI DEFGRID2 scfconv6 printgap
|  2> %output
|  3>     printlevel normal
|  4> end
|  5> * xyz 0 1
|  6> C -2.5623697394 0.9717857883 0.0082721466
|  7> C -1.2376414365 0.2761096272 -0.008412615
|  8> C -1.1509070214 -1.1119481568 -0.0055318877
|  9> C 0.103374701 -1.6976150366 0.001148962
| 10> N 1.2314032165 -1.0119642867 0.0044792962
| 11> C 1.1665125446 0.3146155172 0.0018420492
| 12> C -0.0474214513 0.99240109 -0.0043798275
| 13> C 2.4741068583 1.0435720814 -0.0014692839
| 14> H -3.3153439437 0.3829244217 -0.5106104848
| 15> H -2.8926408146 1.1084915142 1.0386124902
| 16> H -2.4922778911 1.9524656545 -0.4565797172
| 17> H -2.0426254092 -1.7204372978 -0.0093602537
| 18> H 0.2153795258 -2.7746099176 0.0030761523
| 19> H -0.0645998956 2.0728326634 -0.0072182569
| 20> H 2.3272316073 2.1148021228 0.1053880902
| 21> H 3.0998682959 0.6791616444 0.8100831246
| 22> H 3.000159736 0.8460926961 -0.9339833129
| 23> *
| 24>
| 25>                          ****END OF INPUT****

CARTESIAN COORDINATES (ANGSTROEM)
---------------------------------
  C     -2.562370    0.971786    0.008272
  C     -1.237641    0.276110   -0.008413
  C     -1.150907   -1.111948   -0.005532
  C      0.103375   -1.697615    0.001149
  N      1.231403   -1.011964    0.004479
  C      1.166513    0.314616    0.001842
  C     -0.047421    0.992401   -0.004380
  C      2.474107    1.043572   -0.001469
  H     -3.315344    0.382924   -0.510610
  H     -2.892641    1.108492    1.038612
  H     -2.492278    1.952466   -0.456580
  H     -2.042625   -1.720437   -0.009360
  H      0.215380   -2.774610    0.003076
  H     -0.064600    2.072833   -0.007218
  H      2.327232    2.114802    0.105388
  H      3.099868    0.679162    0.810083
  H      3.000160    0.846093   -0.933983

 Total Charge           Charge          ....    0
 Multiplicity           Mult            ....    1
 Number of Electrons    NEL             ....   58
 Basis Dimension        Dim             ....  202

ORBITAL ENERGIES
----------------

  NO   OCC          E(Eh)            E(eV)
   0   2.0000     -14.142880      -384.8473
   1   2.0000     -10.069980      -274.0181
   2   2.0000     -10.060533      -273.7610
   3   2.0000     -10.057950      -273.6907
   4   2.0000     -10.037014      -273.1210
   5   2.0000     -10.034101      -273.0418
   6   2.0000     -10.033858      -273.0351
   7   2.0000     -10.022566      -272.7279
   8   2.0000      -0.910448       -24.7746
   9   2.0000      -0.789017       -21.4703
  10   2.0000      -0.748502       -20.3678
  11   2.0000      -0.682723       -18.5778
  12   2.0000      -0.664621       -18.0853
  13   2.0000      -0.592151       -16.1133
  14   2.0000      -0.550132       -14.9699
  15   2.0000      -0.469203       -12.7677
  16   2.0000      -0.464430       -12.6378
  17   2.0000      -0.425501       -11.5785
  18   2.0000      -0.409272       -11.1369
  19   2.0000      -0.392195       -10.6722
  20   2.0000      -0.383995       -10.4490
  21   2.0000      -0.374988       -10.2040
  22   2.0000      -0.362243        -9.8571
  23   2.0000      -0.343846        -9.3565
  24   2.0000      -0.342077        -9.3084
  25   2.0000      -0.319132        -8.6840
  26   2.0000      -0.253189        -6.8896
  27   2.0000      -0.234334        -6.3765
  28   2.0000      -0.217352        -5.9145
  29   0.0000      -0.045286        -1.2323
  30   0.0000      -0.033152        -0.9021
  31   0.0000       0.072882         1.9832
  32   0.0000       0.102837         2.7983
  33   0.0000       0.105860         2.8806

MULLIKEN ATOMIC CHARGES
-----------------------
   0 C :   -0.538869
   1 C :    0.174863
   2 C :   -0.160730
   3 C :   -0.109402
   4 N :   -0.171901
   5 C :    0.267638
   6 C :   -0.272499
   7 C :   -0.589270
   8 H :    0.154803
   9 H :    0.174526
  10 H :    0.153968
  11 H :    0.148792
  12 H :    0.131822
  13 H :    0.152557
  14 H :    0.145738
  15 H :    0.169104
  16 H :    0.168860
Sum of atomic charges:   -0.0000000

LOEWDIN ATOMIC CHARGES
----------------------
   0 C :   -0.387515
   1 C :   -0.059831
   2 C :   -0.160041
   3 C :    0.087959
   4 N :   -0.622150
   5 C :    0.130310
   6 C :   -0.149066
   7 C :   -0.360749
   8 H :    0.163605
   9 H :    0.170745
  10 H :    0.162752
  11 H :    0.170345
  12 H :    0.183261
  13 H :    0.170364
  14 H :    0.154272
  15 H :    0.173290
  16 H :    0.172448

  Mayer bond orders larger than 0.100000
B(  0-C ,  1-C ) :   0.8078 B(  0-C ,  8-H ) :   0.9866 B(  0-C ,  9-H ) :   0.9660
B(  0-C , 10-H ) :   0.9878 B(  1-C ,  2-C ) :   1.3543 B(  1-C ,  4-N ) :   0.1036
B(  1-C ,  6-C ) :   1.4180 B(  2-C ,  3-C ) :   1.3726 B(  2-C , 11-H ) :   0.9352
B(  3-C ,  4-N ) :   1.4742 B(  3-C , 12-H ) :   0.9868 B(  4-N ,  5-C ) :   1.3275
B(  5-C ,  6-C ) :   1.4638 B(  5-C ,  7-C ) :   0.8563 B(  6-C , 13-H ) :   0.8935
B(  7-C , 14-H ) :   1.0004 B(  7-C , 15-H ) :   0.9672 B(  7-C , 16-H ) :   0.9576

Dispersion correction           -0.005200954
FINAL SINGLE POINT ENERGY      -326.824912187354

DIPOLE MOMENT
-------------

Method             : SCF
Type of density    : Electron Density
Multiplicity       :   1
Irrep              :   0
Energy             :  -326.8274583109349010 Eh
Relativity type    :
Basis              : AO
                                X                 Y                 Z
Electronic contribution:      1.307270576      -3.832637860      -0.020472537
Nuclear contribution   :     -2.024241227       4.367933693       0.036995748
                        -----------------------------------------
Total Dipole Moment    :     -0.716970651       0.535295832       0.016523211
                        -----------------------------------------
Magnitude (a.u.)       :      0.894908687
Magnitude (Debye)      :      2.274677111

Rotational constants in cm-1:             0.128411             0.059822             0.041435
Rotational constants in MHz :          3849.659964          1793.429728          1242.194339

                             ****ORCA TERMINATED NORMALLY****
TOTAL RUN TIME: 0 days 0 hours 0 minutes 16 seconds 656 msec
