                         Program Version 6.0.1  -  RELEASE   -
|  1> ! pbe def2-sv(p) def2/J RI DEFGRID1 loosescf d4 GCP(DFT/SV(P)) printgap
|  2> %output
|  3>     printlevel normal
|  4> end
|  5> * xyz 0 1
|  6> C -2.8744521665 -0.4025818568 -0.0082827784
|  7> N -1.8117123687 0.5642538603 -0.0065761273
|  8> C -0.4796141683 0.2537247104 -0.0020466059
|  9> C -0.021945499 -1.0665521847 0.0035261181
| 10> C 1.3335238219 -1.3347436026 0.0083519104
| 11> C 2.2614003407 -0.3078714838 0.0077578134
| 12> C 1.8160370031 1.004739793 0.0022366962
| 13> C 0.4663051852 1.2851920637 -0.0026182106
| 14> H -3.8293730772 0.1176988804 -0.0130746539
| 15> H -2.8327277365 -1.0400355098 0.88151369
| 16> H -2.8261978408 -1.0445048453 -0.8945621838
| 17> H -2.0550979978 1.538664764 -0.0118290987
| 18> H -0.7258158295 -1.8838564685 0.0040990734
| 19> H 1.6678510037 -2.3626024975 0.0125665063
| 20> H 3.3185567374 -0.5257185859 0.0115188165
| 21> H 2.5285476016 1.8173110771 0.0017119036
| 22> H 0.1243768215 2.3115333154 -0.006913447
| 23> *
| 24>
| 25>                          ****END OF INPUT****

CARTESIAN COORDINATES (ANGSTROEM)
---------------------------------
  C     -2.874452   -0.402582   -0.008283
  N     -1.811712    0.564254   -0.006576
  C     -0.479614    0.253725   -0.002047
  C     -0.021945   -1.066552    0.003526
  C      1.333524   -1.334744    0.008352
  C      2.261400   -0.307871    0.007758
  C      1.816037    1.004740    0.002237
  C      0.466305    1.285192   -0.002618
  H     -3.829373    0.117699   -0.013075
  H     -2.832728   -1.040036    0.881514
  H     -2.826198   -1.044505   -0.894562
  H     -2.055098    1.538665   -0.011829
  H     -0.725816   -1.883856    0.004099
  H      1.667851   -2.362602    0.012567
  H      3.318557   -0.525719    0.011519
  H      2.528548    1.817311    0.001712
  H      0.124377    2.311533   -0.006913

 Total Charge           Charge          ....    0
 Multiplicity           Mult            ....    1
 Number of Electrons    NEL             ....   58
 Basis Dimension        Dim             ....  130

ORBITAL ENERGIES
----------------

  NO   OCC          E(Eh)            E(eV)
   0   2.0000     -13.998726      -380.9247
   1   2.0000      -9.922867      -270.0149
   2   2.0000      -9.919728      -269.9295
   3   2.0000      -9.879994      -268.8483
   4   2.0000      -9.879776      -268.8424
   5   2.0000      -9.875988      -268.7393
   6   2.0000      -9.874707      -268.7044
   7   2.0000      -9.869636      -268.5665
   8   2.0000      -0.847969       -23.0744
   9   2.0000      -0.753073       -20.4922
  10   2.0000      -0.666262       -18.1299
  11   2.0000      -0.657209       -17.8836
  12   2.0000      -0.608538       -16.5592
  13   2.0000      -0.543121       -14.7791
  14   2.0000      -0.519330       -14.1317
  15   2.0000      -0.478339       -13.0163
  16   2.0000      -0.443645       -12.0722
  17   2.0000      -0.414698       -11.2845
  18   2.0000      -0.396228       -10.7819
  19   2.0000      -0.384201       -10.4546
  20   2.0000      -0.372911       -10.1474
  21   2.0000      -0.363536        -9.8923
  22   2.0000      -0.347799        -9.4641
  23   2.0000      -0.326260        -8.8780
  24   2.0000      -0.303963        -8.2712
  25   2.0000      -0.287842        -7.8326
  26   2.0000      -0.256299        -6.9743
  27   2.0000      -0.216413        -5.8889
  28   2.0000      -0.160656        -4.3717
  29   0.0000      -0.021051        -0.5728
  30   0.0000      -0.001483        -0.0403
  31   0.0000       0.031368         0.8536
  32   0.0000       0.053073         1.4442
  33   0.0000       0.059337         1.6146

MULLIKEN ATOMIC CHARGES
-----------------------
   0 C :   -0.169579
   1 N :   -0.286237
   2 C :    0.223929
   3 C :   -0.170192
   4 C :   -0.055915
   5 C :   -0.056329
   6 C :   -0.062490
   7 C :   -0.142187
   8 H :    0.109046
   9 H :    0.111812
  10 H :    0.111743
  11 H :    0.213554
  12 H :    0.025187
  13 H :    0.044855
  14 H :    0.040082
  15 H :    0.045091
  16 H :    0.017632
Sum of atomic charges:   -0.0000000

LOEWDIN ATOMIC CHARGES
----------------------
   0 C :   -0.258380
   1 N :   -0.178447
   2 C :    0.003002
   3 C :   -0.175127
   4 C :   -0.115626
   5 C :   -0.164971
   6 C :   -0.118882
   7 C :   -0.163746
   8 H :    0.122847
   9 H :    0.112828
  10 H :    0.112765
  11 H :    0.228940
  12 H :    0.120625
  13 H :    0.120373
  14 H :    0.118244
  15 H :    0.120538
  16 H :    0.115017

  Mayer bond orders larger than 0.100000
B(  0-C ,  1-N ) :   1.0599 B(  0-C ,  8-H ) :   0.9584 B(  0-C ,  9-H ) :   0.9434
B(  0-C , 10-H ) :   0.9434 B(  1-N ,  2-C ) :   1.2093 B(  1-N , 11-H ) :   0.8714
B(  2-C ,  3-C ) :   1.3169 B(  2-C ,  7-C ) :   1.3021 B(  3-C ,  4-C ) :   1.3747
B(  3-C , 12-H ) :   0.9587 B(  4-C ,  5-C ) :   1.3797 B(  4-C , 13-H ) :   0.9607
B(  5-C ,  6-C ) :   1.3531 B(  5-C , 14-H ) :   0.9671 B(  6-C ,  7-C ) :   1.4127
B(  6-C , 15-H ) :   0.9606 B(  7-C , 16-H ) :   0.9586

Dispersion correction           -0.016396999
FINAL SINGLE POINT ENERGY      -326.173012501262

DIPOLE MOMENT
-------------

Method             : SCF
Type of density    : Electron Density
Multiplicity       :   1
Irrep              :   0
Energy             :  -326.2249080438411966 Eh
Relativity type    :
Basis              : AO
                                X                 Y                 Z
Electronic contribution:      3.468389650       1.266812902       0.009377577
Nuclear contribution   :     -4.353541635      -1.002163038      -0.014079871
                        -----------------------------------------
Total Dipole Moment    :     -0.885151985       0.264649864      -0.004702294
                        -----------------------------------------
Magnitude (a.u.)       :      0.923880782
Magnitude (Debye)      :      2.348318324

Rotational constants in cm-1:             0.169050             0.050982             0.039461
Rotational constants in MHz :          5067.999715          1528.395226          1183.004022

                             ****ORCA TERMINATED NORMALLY****
TOTAL RUN TIME: 0 days 0 hours 0 minutes 5 seconds 649 msec
