                         Program Version 6.0.0  -   RELEASE  -
|  1> ! r2SCAN-3c DEF2-TZVP FREQ
|  2> * xyzfile 0 1 censo.xyz
|  3>
|  4>                          ****END OF INPUT****

CARTESIAN COORDINATES (ANGSTROEM)
---------------------------------
  C     -3.209494    0.005111    0.844065
  C     -2.487124   -0.006774   -0.508046
  C     -0.989238   -0.004909   -0.346181
  C     -0.277291    1.194347   -0.239397
  C      1.098062    1.208100   -0.032584
  C      1.787293    0.001497    0.073682
  C      1.102804   -1.208370   -0.028961
  C     -0.274052   -1.200592   -0.236282
  O      3.151606    0.060637    0.276065
  H     -2.938035    0.895384    1.421476
  H     -2.938973   -0.875746    1.436155
  H     -4.296050    0.004651    0.708905
  H     -2.793123    0.870202   -1.089418
  H     -2.792759   -0.893930   -1.073859
  H     -0.808389    2.139253   -0.322096
  H      1.642238    2.144324    0.043034
  H      1.646082   -2.146453    0.048241
  H     -0.800956   -2.148085   -0.316228
  H      3.498748   -0.840572    0.329497

 Total Charge           Charge          ....    0
 Multiplicity           Mult            ....    1
 Number of Electrons    NEL             ....   66
 Basis Dimension        Dim             ....  339

ORBITAL ENERGIES
----------------

  NO   OCC          E(Eh)            E(eV)
   0   2.0000     -18.983937      -516.5792
   1   2.0000     -10.093789      -274.6660
   2   2.0000     -10.037224      -273.1267
   3   2.0000     -10.036552      -273.1085
   4   2.0000     -10.036273      -273.1009
   5   2.0000     -10.035128      -273.0697
   6   2.0000     -10.034046      -273.0403
   7   2.0000     -10.030753      -272.9507
   8   2.0000     -10.022716      -272.7320
   9   2.0000      -1.020441       -27.7676
  10   2.0000      -0.821113       -22.3436
  11   2.0000      -0.749974       -20.4078
  12   2.0000      -0.715511       -19.4701
  13   2.0000      -0.684456       -18.6250
  14   2.0000      -0.601849       -16.3771
  15   2.0000      -0.585666       -15.9368
  16   2.0000      -0.548827       -14.9343
  17   2.0000      -0.511082       -13.9072
  18   2.0000      -0.455640       -12.3986
  19   2.0000      -0.438462       -11.9311
  20   2.0000      -0.410494       -11.1701
  21   2.0000      -0.397942       -10.8286
  22   2.0000      -0.390393       -10.6231
  23   2.0000      -0.383448       -10.4342
  24   2.0000      -0.372970       -10.1490
  25   2.0000      -0.354021        -9.6334
  26   2.0000      -0.344330        -9.3697
  27   2.0000      -0.316731        -8.6187
  28   2.0000      -0.306945        -8.3524
  29   2.0000      -0.301598        -8.2069
  30   2.0000      -0.299048        -8.1375
  31   2.0000      -0.236918        -6.4469
  32   2.0000      -0.199953        -5.4410
  33   0.0000      -0.035988        -0.9793
  34   0.0000      -0.016810        -0.4574
  35   0.0000       0.037079         1.0090
  36   0.0000       0.049616         1.3501
  37   0.0000       0.072273         1.9666

MULLIKEN ATOMIC CHARGES
-----------------------
   0 C :   -0.320470
   1 C :   -0.191824
   2 C :    0.215437
   3 C :   -0.185165
   4 C :   -0.200864
   5 C :    0.291275
   6 C :   -0.196429
   7 C :   -0.220930
   8 O :   -0.403497
   9 H :    0.106525
  10 H :    0.105012
  11 H :    0.102482
  12 H :    0.090063
  13 H :    0.089034
  14 H :    0.102091
  15 H :    0.108757
  16 H :    0.093587
  17 H :    0.103135
  18 H :    0.311781
Sum of atomic charges:    0.0000000

LOEWDIN ATOMIC CHARGES
----------------------
   0 C :   -0.298638
   1 C :   -0.246742
   2 C :   -0.160938
   3 C :   -0.110550
   4 C :   -0.120895
   5 C :   -0.267013
   6 C :   -0.147418
   7 C :   -0.114191
   8 O :    0.066554
   9 H :    0.119468
  10 H :    0.119069
  11 H :    0.115887
  12 H :    0.139158
  13 H :    0.138728
  14 H :    0.146656
  15 H :    0.148646
  16 H :    0.140253
  17 H :    0.146076
  18 H :    0.185887

  Mayer bond orders larger than 0.100000
B(  0-C ,  1-C ) :   0.9735 B(  0-C ,  9-H ) :   0.9754 B(  0-C , 10-H ) :   0.9753
B(  0-C , 11-H ) :   0.9698 B(  1-C ,  2-C ) :   0.8777 B(  1-C , 12-H ) :   0.9756
B(  1-C , 13-H ) :   0.9760 B(  2-C ,  3-C ) :   1.3337 B(  2-C ,  7-C ) :   1.3533
B(  3-C ,  4-C ) :   1.4178 B(  3-C , 14-H ) :   0.9818 B(  4-C ,  5-C ) :   1.3696
B(  4-C , 15-H ) :   0.9814 B(  5-C ,  6-C ) :   1.3256 B(  5-C ,  8-O ) :   1.1009
B(  6-C ,  7-C ) :   1.3992 B(  6-C , 16-H ) :   0.9637 B(  7-C , 17-H ) :   0.9661
B(  8-O , 18-H ) :   0.8873

Dispersion correction           -0.006061661
FINAL SINGLE POINT ENERGY      -386.029843274914

DIPOLE MOMENT
-------------

Method             : SCF
Type of density    : Electron Density
Multiplicity       :   1
Irrep              :   0
Energy             :  -386.0303921538552459 Eh
Relativity type    :
Basis              : AO
                                X                 Y                 Z
Electronic contribution:      9.812412481       0.284489697      -1.116893381
Nuclear contribution   :     -9.936776408      -0.795398935       1.122461538
                        -----------------------------------------
Total Dipole Moment    :     -0.124363927      -0.510909238       0.005568157
                        -----------------------------------------
Magnitude (a.u.)       :      0.525857053
Magnitude (Debye)      :      1.336622405

VIBRATIONAL FREQUENCIES
-----------------------

Scaling factor for frequencies =  1.000000000  (already applied!)

     0:       0.00 cm**-1
     1:       0.00 cm**-1
     2:       0.00 cm**-1
     3:       0.00 cm**-1
     4:       0.00 cm**-1
     5:       0.00 cm**-1
     6:      53.42 cm**-1
     7:     107.33 cm**-1
     8:     232.89 cm**-1
     9:     235.29 cm**-1
    10:     334.75 cm**-1
    11:     399.27 cm**-1
    12:     408.40 cm**-1
    13:     422.41 cm**-1
    14:     438.49 cm**-1
    15:     478.87 cm**-1
    16:     547.41 cm**-1
    17:     659.08 cm**-1
    18:     724.61 cm**-1
    19:     742.69 cm**-1
    20:     794.93 cm**-1
    21:     804.57 cm**-1
    22:     837.15 cm**-1
    23:     842.99 cm**-1
    24:     912.92 cm**-1
    25:     944.17 cm**-1
    26:     972.27 cm**-1
    27:    1033.50 cm**-1
    28:    1061.82 cm**-1
    29:    1078.57 cm**-1
    30:    1130.61 cm**-1
    31:    1188.82 cm**-1
    32:    1197.01 cm**-1
    33:    1225.93 cm**-1
    34:    1254.68 cm**-1
    35:    1269.49 cm**-1
    36:    1339.57 cm**-1
    37:    1348.50 cm**-1
    38:    1367.44 cm**-1
    39:    1396.77 cm**-1
    40:    1466.22 cm**-1
    41:    1477.66 cm**-1
    42:    1487.52 cm**-1
    43:    1497.35 cm**-1
    44:    1533.30 cm**-1
    45:    1627.71 cm**-1
    46:    1641.46 cm**-1
    47:    3000.66 cm**-1
    48:    3013.12 cm**-1
    49:    3055.18 cm**-1
    50:    3080.80 cm**-1
    51:    3086.67 cm**-1
    52:    3142.42 cm**-1
    53:    3148.28 cm**-1
    54:    3158.77 cm**-1
    55:    3177.14 cm**-1
    56:    3761.01 cm**-1

IR SPECTRUM
-----------

 Mode   freq       eps      Int      T**2         TX        TY        TZ
       cm**-1   L/(mol*cm) km/mol    a.u.
----------------------------------------------------------------------------
  6:     53.42   0.000027    0.14  0.000158  (-0.007443 -0.004167  0.009217)
  7:    107.33   0.000095    0.48  0.000275  (-0.001571  0.000108  0.016512)
  8:    232.89   0.000004    0.02  0.000005  ( 0.000082  0.000670  0.002118)
  9:    235.29   0.000038    0.19  0.000050  (-0.006473 -0.002760 -0.000690)
 10:    334.75   0.000335    1.70  0.000313  (-0.017251 -0.003265 -0.002122)
 11:    399.27   0.000020    0.10  0.000016  ( 0.003741  0.000977 -0.000908)
 12:    408.40   0.015777   79.73  0.012055  (-0.017601  0.000400  0.108375)
 13:    422.41   0.003273   16.54  0.002418  ( 0.002695 -0.000219 -0.049100)
 14:    438.49   0.001593    8.05  0.001134  (-0.033511  0.003186 -0.000795)
 15:    478.87   0.001177    5.95  0.000767  ( 0.020070  0.002358 -0.018939)
 16:    547.41   0.005225   26.40  0.002978  ( 0.001092  0.000889  0.054557)
 17:    659.08   0.000084    0.42  0.000040  ( 0.005520  0.002987  0.000575)
 18:    724.61   0.002164   10.94  0.000932  (-0.030473 -0.001862  0.000317)
 19:    742.69   0.000917    4.63  0.000385  ( 0.018845  0.000925 -0.005399)
 20:    794.93   0.000305    1.54  0.000120  (-0.000817 -0.006327 -0.008885)
 21:    804.57   0.002960   14.96  0.001148  ( 0.004305  0.002740 -0.033499)
 22:    837.15   0.006623   33.47  0.002469  ( 0.000204 -0.000227 -0.049686)
 23:    842.99   0.002386   12.06  0.000883  (-0.028757  0.001595  0.007319)
 24:    912.92   0.000040    0.20  0.000014  ( 0.000009 -0.000683 -0.003625)
 25:    944.17   0.000034    0.17  0.000011  ( 0.001144 -0.000950 -0.002994)
 26:    972.27   0.000201    1.01  0.000064  (-0.007985  0.000765  0.000208)
 27:   1033.50   0.000014    0.07  0.000004  (-0.002053  0.000180 -0.000029)
 28:   1061.82   0.000567    2.87  0.000167  (-0.009240  0.008903 -0.001406)
 29:   1078.57   0.001672    8.45  0.000484  ( 0.021879 -0.000556  0.002162)
 30:   1130.61   0.002335   11.80  0.000644  (-0.008217  0.023981 -0.001346)
 31:   1188.82   0.009799   49.52  0.002572  ( 0.050357 -0.002728  0.005381)
 32:   1197.01   0.031994  161.69  0.008341  ( 0.090223  0.005444  0.013084)
 33:   1225.93   0.000961    4.86  0.000245  (-0.015538  0.001524  0.000984)
 34:   1254.68   0.012164   61.47  0.003025  ( 0.054456 -0.003506  0.006901)
 35:   1269.49   0.000083    0.42  0.000020  ( 0.000346  0.004490 -0.000028)
 36:   1339.57   0.000658    3.33  0.000153  (-0.012243 -0.001165  0.001441)
 37:   1348.50   0.001557    7.87  0.000360  ( 0.015132  0.011222  0.002334)
 38:   1367.44   0.004538   22.93  0.001036  (-0.030867  0.008054 -0.004234)
 39:   1396.77   0.000554    2.80  0.000124  (-0.001842 -0.000165 -0.010970)
 40:   1466.22   0.004377   22.12  0.000931  ( 0.029620 -0.006235  0.003907)
 41:   1477.66   0.000233    1.18  0.000049  (-0.000639  0.000560  0.006959)
 42:   1487.52   0.001976    9.99  0.000415  ( 0.000468  0.020356  0.000034)
 43:   1497.35   0.000590    2.98  0.000123  ( 0.003658 -0.000202  0.010465)
 44:   1533.30   0.017802   89.97  0.003623  ( 0.059837  0.002417  0.006071)
 45:   1627.71   0.003584   18.11  0.000687  ( 0.023861  0.010081  0.004021)
 46:   1641.46   0.005058   25.56  0.000962  ( 0.030050 -0.005192  0.005619)
 47:   3000.66   0.007032   35.54  0.000731  ( 0.020926 -0.000121 -0.017129)
 48:   3013.12   0.006559   33.15  0.000679  ( 0.012844  0.000136  0.022678)
 49:   3055.18   0.000570    2.88  0.000058  (-0.000159 -0.007629 -0.000159)
 50:   3080.80   0.010154   51.31  0.001029  ( 0.030034 -0.000461  0.011239)
 51:   3086.67   0.007294   36.86  0.000737  (-0.000462 -0.027151  0.000082)
 52:   3142.42   0.002969   15.01  0.000295  ( 0.016843  0.002495  0.002229)
 53:   3148.28   0.002889   14.60  0.000286  ( 0.011625 -0.012172  0.001738)
 54:   3158.77   0.002832   14.31  0.000280  ( 0.003438 -0.016370 -0.000090)
 55:   3177.14   0.001119    5.65  0.000110  (-0.005490 -0.008927 -0.000186)
 56:   3761.01   0.010642   53.78  0.000883  ( 0.024069 -0.017148  0.003102)

--------------------------
THERMOCHEMISTRY AT 298.15K
--------------------------

Temperature         ...   298.15 K
Pressure            ...     1.00 atm
Total Mass          ...   122.17 AMU
Quasi RRHO          ...     True
Cut-Off Frequency   ...     1.00 cm^-1

Throughout the following assumptions are being made:
  (1) The electronic state is orbitally nondegenerate
  (2) There are no thermally accessible electronically excited states
  (3) Hindered rotations indicated by low frequency modes are not
      treated as such but are treated as vibrations and this may
      cause some error
  (4) All equations used are the standard statistical mechanics
      equations for an ideal gas
  (5) All vibrations are strictly harmonic

freq.      53.42  E(vib)   ...       0.52
freq.     107.33  E(vib)   ...       0.45
freq.     232.89  E(vib)   ...       0.32
freq.     235.29  E(vib)   ...       0.32
freq.     334.75  E(vib)   ...       0.24
freq.     399.27  E(vib)   ...       0.19
freq.     408.40  E(vib)   ...       0.19
freq.     422.41  E(vib)   ...       0.18
freq.     438.49  E(vib)   ...       0.17
freq.     478.87  E(vib)   ...       0.15
freq.     547.41  E(vib)   ...       0.12
freq.     659.08  E(vib)   ...       0.08
freq.     724.61  E(vib)   ...       0.06
freq.     742.69  E(vib)   ...       0.06
freq.     794.93  E(vib)   ...       0.05
freq.     804.57  E(vib)   ...       0.05
freq.     837.15  E(vib)   ...       0.04
freq.     842.99  E(vib)   ...       0.04
freq.     912.92  E(vib)   ...       0.03
freq.     944.17  E(vib)   ...       0.03
freq.     972.27  E(vib)   ...       0.03
freq.    1033.50  E(vib)   ...       0.02
freq.    1061.82  E(vib)   ...       0.02
freq.    1078.57  E(vib)   ...       0.02
freq.    1130.61  E(vib)   ...       0.01
freq.    1188.82  E(vib)   ...       0.01
freq.    1197.01  E(vib)   ...       0.01
freq.    1225.93  E(vib)   ...       0.01
freq.    1254.68  E(vib)   ...       0.01
freq.    1269.49  E(vib)   ...       0.01
freq.    1339.57  E(vib)   ...       0.01
freq.    1348.50  E(vib)   ...       0.01
freq.    1367.44  E(vib)   ...       0.01
freq.    1396.77  E(vib)   ...       0.00
freq.    1466.22  E(vib)   ...       0.00
freq.    1477.66  E(vib)   ...       0.00
freq.    1487.52  E(vib)   ...       0.00
freq.    1497.35  E(vib)   ...       0.00
freq.    1533.30  E(vib)   ...       0.00
freq.    1627.71  E(vib)   ...       0.00
freq.    1641.46  E(vib)   ...       0.00
freq.    3000.66  E(vib)   ...       0.00
freq.    3013.12  E(vib)   ...       0.00
freq.    3055.18  E(vib)   ...       0.00
freq.    3080.80  E(vib)   ...       0.00
freq.    3086.67  E(vib)   ...       0.00
freq.    3142.42  E(vib)   ...       0.00
freq.    3148.28  E(vib)   ...       0.00
freq.    3158.77  E(vib)   ...       0.00
freq.    3177.14  E(vib)   ...       0.00
freq.    3761.01  E(vib)   ...       0.00

------------
INNER ENERGY
------------

The inner energy is: U= E(el) + E(ZPE) + E(vib) + E(rot) + E(trans)
    E(el)   - is the total energy from the electronic structure calculation
              = E(kin-el) + E(nuc-el) + E(el-el) + E(nuc-nuc)
    E(ZPE)  - the the zero temperature vibrational energy from the frequency calculation
    E(vib)  - the the finite temperature correction to E(ZPE) due to population
              of excited vibrational states
    E(rot)  - is the rotational thermal energy
    E(trans)- is the translational thermal energy

Summary of contributions to the inner energy U:
Electronic energy                ...   -386.02984327 Eh
Zero point energy                ...      0.15979497 Eh     100.27 kcal/mol
Thermal vibrational correction   ...      0.00556283 Eh       3.49 kcal/mol
Thermal rotational correction    ...      0.00141627 Eh       0.89 kcal/mol
Thermal translational correction ...      0.00141627 Eh       0.89 kcal/mol
-----------------------------------------------------------------------
Total thermal energy                   -385.86165294 Eh

Summary of corrections to the electronic energy:
(perhaps to be used in another calculation)
Total thermal correction                  0.00839537 Eh       5.27 kcal/mol
Non-thermal (ZPE) correction              0.15979497 Eh     100.27 kcal/mol
-----------------------------------------------------------------------
Total correction                          0.16819034 Eh     105.54 kcal/mol

--------
ENTHALPY
--------

The enthalpy is H = U + kB*T
                kB is Boltzmann's constant
Total thermal energy              ...   -385.86165294 Eh
Thermal Enthalpy correction       ...      0.00094421 Eh       0.59 kcal/mol
-----------------------------------------------------------------------
Total Enthalpy                    ...   -385.86070873 Eh

Note: Only C1 symmetry has been detected, increase convergence thresholds
      if your molecule has a higher symmetry. Symmetry factor of 1.0 is
      used for the rotational entropy correction.

Note: Rotational entropy computed according to Herzberg
Infrared and Raman Spectra, Chapter V,1, Van Nostrand Reinhold, 1945
Point Group:  C1, Symmetry Number:   1
Rotational constants in cm-1:     0.146535     0.031696     0.028060

Vibrational entropy computed according to the QRRHO of S. Grimme
Chem.Eur.J. 2012 18 9955 using a reference frequency of 100.0 cm-1

-------
ENTROPY
-------

The entropy contributions are T*S = T*(S(el)+S(vib)+S(rot)+S(trans))
     S(el)   - electronic entropy
     S(vib)  - vibrational entropy
     S(rot)  - rotational entropy
     S(trans)- translational entropy
The entropies will be listed as multiplied by the temperature to get
units of energy

Electronic entropy                ...      0.00000000 Eh      0.00 kcal/mol
Vibrational entropy               ...      0.00908963 Eh      5.70 kcal/mol
Rotational entropy                ...      0.01373389 Eh      8.62 kcal/mol
Translational entropy             ...      0.01915481 Eh     12.02 kcal/mol
-----------------------------------------------------------------------
Final entropy term                ...      0.04197833 Eh     26.34 kcal/mol

In case the symmetry of your molecule has not been determined correctly
or in case you have a reason to use a different symmetry number we print
out the resulting rotational entropy values for sn=1,12:

 non-linear molecules -----------------------------------
|  sn= 1 | S(rot)=       0.01373389 Eh      8.62 kcal/mol|
|  sn= 2 | S(rot)=       0.01307944 Eh      8.21 kcal/mol|
|  sn= 3 | S(rot)=       0.01269660 Eh      7.97 kcal/mol|
|  sn= 4 | S(rot)=       0.01242498 Eh      7.80 kcal/mol|
|  sn= 5 | S(rot)=       0.01221429 Eh      7.66 kcal/mol|
|  sn= 6 | S(rot)=       0.01204215 Eh      7.56 kcal/mol|
|  sn= 7 | S(rot)=       0.01189660 Eh      7.47 kcal/mol|
|  sn= 8 | S(rot)=       0.01177052 Eh      7.39 kcal/mol|
|  sn= 9 | S(rot)=       0.01165931 Eh      7.32 kcal/mol|

                             ****ORCA TERMINATED NORMALLY****
TOTAL RUN TIME: 0 days 0 hours 16 minutes 47 seconds 595 msec
