                         Program Version 6.0.0  -   RELEASE  -
|  1> ! r2SCAN-3c DEF2-TZVP FREQ
|  2> * xyzfile 0 1 vacuum_censo.xyz
|  3>
|  4>                          ****END OF INPUT****

CARTESIAN COORDINATES (ANGSTROEM)
---------------------------------
  C     -3.211832   -0.009905    0.846505
  C     -2.486628    0.011524   -0.505375
  C     -0.988337    0.009199   -0.344766
  C     -0.275905   -1.189012   -0.240713
  C      1.097078   -1.205300   -0.034977
  C      1.790127   -0.001558    0.073841
  C      1.103365    1.206649   -0.028993
  C     -0.272561    1.201909   -0.235730
  O      3.143781   -0.069439    0.276076
  H     -2.936098   -0.901395    1.418672
  H     -4.298493   -0.009312    0.713969
  H     -2.938078    0.864851    1.444888
  H     -2.793891    0.899715   -1.069585
  H     -2.792947   -0.859139   -1.096868
  H     -0.807621   -2.133372   -0.325965
  H      1.645110   -2.138134    0.039366
  H      1.640332    2.149241    0.047234
  H     -0.797809    2.150218   -0.316255
  H      3.496582    0.825432    0.331840

 Total Charge           Charge          ....    0
 Multiplicity           Mult            ....    1
 Number of Electrons    NEL             ....   66
 Basis Dimension        Dim             ....  339

ORBITAL ENERGIES
----------------

  NO   OCC          E(Eh)            E(eV)
   0   2.0000     -18.984863      -516.6044
   1   2.0000     -10.093174      -274.6492
   2   2.0000     -10.036345      -273.1028
   3   2.0000     -10.035719      -273.0858
   4   2.0000     -10.035373      -273.0764
   5   2.0000     -10.034259      -273.0461
   6   2.0000     -10.033830      -273.0344
   7   2.0000     -10.029523      -272.9172
   8   2.0000     -10.022402      -272.7234
   9   2.0000      -1.025363       -27.9015
  10   2.0000      -0.821195       -22.3458
  11   2.0000      -0.749513       -20.3953
  12   2.0000      -0.715359       -19.4659
  13   2.0000      -0.684509       -18.6264
  14   2.0000      -0.602687       -16.3999
  15   2.0000      -0.585617       -15.9354
  16   2.0000      -0.549370       -14.9491
  17   2.0000      -0.512597       -13.9485
  18   2.0000      -0.455529       -12.3956
  19   2.0000      -0.438639       -11.9360
  20   2.0000      -0.410013       -11.1570
  21   2.0000      -0.397640       -10.8203
  22   2.0000      -0.389729       -10.6051
  23   2.0000      -0.384008       -10.4494
  24   2.0000      -0.374276       -10.1846
  25   2.0000      -0.354680        -9.6513
  26   2.0000      -0.344677        -9.3792
  27   2.0000      -0.315931        -8.5969
  28   2.0000      -0.306905        -8.3513
  29   2.0000      -0.300919        -8.1884
  30   2.0000      -0.299783        -8.1575
  31   2.0000      -0.236621        -6.4388
  32   2.0000      -0.199519        -5.4292
  33   0.0000      -0.035189        -0.9575
  34   0.0000      -0.015995        -0.4353
  35   0.0000       0.037719         1.0264
  36   0.0000       0.050157         1.3648
  37   0.0000       0.072763         1.9800

MULLIKEN ATOMIC CHARGES
-----------------------
   0 C :   -0.320171
   1 C :   -0.193484
   2 C :    0.215789
   3 C :   -0.186865
   4 C :   -0.196784
   5 C :    0.290436
   6 C :   -0.197485
   7 C :   -0.221160
   8 O :   -0.401177
   9 H :    0.106456
  10 H :    0.102778
  11 H :    0.104938
  12 H :    0.089022
  13 H :    0.090072
  14 H :    0.101407
  15 H :    0.107944
  16 H :    0.093441
  17 H :    0.102983
  18 H :    0.311859
Sum of atomic charges:   -0.0000000

LOEWDIN ATOMIC CHARGES
----------------------
   0 C :   -0.298498
   1 C :   -0.246429
   2 C :   -0.161842
   3 C :   -0.110883
   4 C :   -0.121106
   5 C :   -0.275117
   6 C :   -0.147854
   7 C :   -0.114971
   8 O :    0.078302
   9 H :    0.119315
  10 H :    0.115736
  11 H :    0.118948
  12 H :    0.138508
  13 H :    0.138973
  14 H :    0.146831
  15 H :    0.148402
  16 H :    0.140405
  17 H :    0.146217
  18 H :    0.185063

  Mayer bond orders larger than 0.100000
B(  0-C ,  1-C ) :   0.9736 B(  0-C ,  9-H ) :   0.9756 B(  0-C , 10-H ) :   0.9696
B(  0-C , 11-H ) :   0.9755 B(  1-C ,  2-C ) :   0.8778 B(  1-C , 12-H ) :   0.9762
B(  1-C , 13-H ) :   0.9755 B(  2-C ,  3-C ) :   1.3310 B(  2-C ,  7-C ) :   1.3567
B(  3-C ,  4-C ) :   1.4217 B(  3-C , 14-H ) :   0.9825 B(  4-C ,  5-C ) :   1.3659
B(  4-C , 15-H ) :   0.9818 B(  5-C ,  6-C ) :   1.3244 B(  5-C ,  8-O ) :   1.1081
B(  6-C ,  7-C ) :   1.3993 B(  6-C , 16-H ) :   0.9629 B(  7-C , 17-H ) :   0.9659
B(  8-O , 18-H ) :   0.8873

Dispersion correction           -0.006063909
FINAL SINGLE POINT ENERGY      -386.030054940764

DIPOLE MOMENT
-------------

Method             : SCF
Type of density    : Electron Density
Multiplicity       :   1
Irrep              :   0
Energy             :  -386.0306017005660806 Eh
Relativity type    :
Basis              : AO
                                X                 Y                 Z
Electronic contribution:      9.840447313      -0.281930127      -1.111023677
Nuclear contribution   :     -9.932738734       0.792624928       1.120586969
                        -----------------------------------------
Total Dipole Moment    :     -0.092291421       0.510694801       0.009563292
                        -----------------------------------------
Magnitude (a.u.)       :      0.519055241
Magnitude (Debye)      :      1.319333572

VIBRATIONAL FREQUENCIES
-----------------------

Scaling factor for frequencies =  1.000000000  (already applied!)

     0:       0.00 cm**-1
     1:       0.00 cm**-1
     2:       0.00 cm**-1
     3:       0.00 cm**-1
     4:       0.00 cm**-1
     5:       0.00 cm**-1
     6:      47.81 cm**-1
     7:     104.47 cm**-1
     8:     226.29 cm**-1
     9:     229.34 cm**-1
    10:     331.55 cm**-1
    11:     351.74 cm**-1
    12:     397.45 cm**-1
    13:     418.11 cm**-1
    14:     433.86 cm**-1
    15:     479.08 cm**-1
    16:     545.26 cm**-1
    17:     660.01 cm**-1
    18:     726.49 cm**-1
    19:     743.17 cm**-1
    20:     792.28 cm**-1
    21:     805.73 cm**-1
    22:     836.14 cm**-1
    23:     848.59 cm**-1
    24:     914.30 cm**-1
    25:     943.78 cm**-1
    26:     969.68 cm**-1
    27:    1034.51 cm**-1
    28:    1061.05 cm**-1
    29:    1077.99 cm**-1
    30:    1131.67 cm**-1
    31:    1190.19 cm**-1
    32:    1192.49 cm**-1
    33:    1226.83 cm**-1
    34:    1268.80 cm**-1
    35:    1276.06 cm**-1
    36:    1340.87 cm**-1
    37:    1349.84 cm**-1
    38:    1371.35 cm**-1
    39:    1395.12 cm**-1
    40:    1468.68 cm**-1
    41:    1479.15 cm**-1
    42:    1485.97 cm**-1
    43:    1498.02 cm**-1
    44:    1539.73 cm**-1
    45:    1630.26 cm**-1
    46:    1648.92 cm**-1
    47:    3005.17 cm**-1
    48:    3010.38 cm**-1
    49:    3051.07 cm**-1
    50:    3085.37 cm**-1
    51:    3089.78 cm**-1
    52:    3138.51 cm**-1
    53:    3148.02 cm**-1
    54:    3156.07 cm**-1
    55:    3185.83 cm**-1
    56:    3809.33 cm**-1

IR SPECTRUM
-----------

 Mode   freq       eps      Int      T**2         TX        TY        TZ
       cm**-1   L/(mol*cm) km/mol    a.u.
----------------------------------------------------------------------------
  6:     47.81   0.000052    0.26  0.000339  (-0.009279  0.004710  0.015202)
  7:    104.47   0.000132    0.66  0.000393  (-0.001819 -0.000247  0.019739)
  8:    226.29   0.000039    0.20  0.000054  ( 0.006701 -0.002933  0.000742)
  9:    229.34   0.000003    0.02  0.000004  (-0.000952  0.000044 -0.001831)
 10:    331.55   0.000397    2.01  0.000374  ( 0.018913 -0.003709  0.001462)
 11:    351.74   0.019374   97.91  0.017189  (-0.019882 -0.000825  0.129586)
 12:    397.45   0.000109    0.55  0.000086  ( 0.004090 -0.000904 -0.008247)
 13:    418.11   0.000156    0.79  0.000117  ( 0.003795 -0.000006  0.010115)
 14:    433.86   0.001610    8.14  0.001158  ( 0.033745  0.002833  0.003353)
 15:    479.08   0.001066    5.39  0.000694  ( 0.018888 -0.002259 -0.018229)
 16:    545.26   0.004732   23.92  0.002708  ( 0.001055 -0.000976  0.052022)
 17:    660.01   0.000084    0.43  0.000040  ( 0.005517 -0.002989  0.000644)
 18:    726.49   0.001576    7.97  0.000677  (-0.025954  0.001789 -0.000477)
 19:    743.17   0.001128    5.70  0.000474  ( 0.020847 -0.001222 -0.006130)
 20:    792.28   0.000212    1.07  0.000083  (-0.001207  0.006924 -0.005834)
 21:    805.73   0.002769   13.99  0.001072  ( 0.004135 -0.002322 -0.032403)
 22:    836.14   0.007158   36.17  0.002671  (-0.004411 -0.000557  0.051494)
 23:    848.59   0.001928    9.74  0.000709  ( 0.026581  0.001210 -0.000993)
 24:    914.30   0.000031    0.15  0.000010  (-0.000126  0.000580 -0.003175)
 25:    943.78   0.000021    0.10  0.000007  ( 0.001024  0.000828 -0.002265)
 26:    969.68   0.000202    1.02  0.000065  (-0.008029 -0.000728  0.000127)
 27:   1034.51   0.000012    0.06  0.000004  (-0.001832 -0.000377  0.000065)
 28:   1061.05   0.000573    2.89  0.000168  (-0.009578 -0.008633 -0.001483)
 29:   1077.99   0.001679    8.49  0.000486  (-0.021920 -0.000636 -0.002292)
 30:   1131.67   0.002534   12.81  0.000699  (-0.011651 -0.023652 -0.001896)
 31:   1190.19   0.033789  170.76  0.008859  ( 0.093245 -0.003818  0.012252)
 32:   1192.49   0.002777   14.03  0.000727  ( 0.025697 -0.006336  0.005117)
 33:   1226.83   0.000519    2.62  0.000132  (-0.011228 -0.001842  0.001611)
 34:   1268.80   0.000243    1.23  0.000060  (-0.006056 -0.004714 -0.000878)
 35:   1276.06   0.017740   89.65  0.004338  ( 0.065297  0.001856  0.008448)
 36:   1340.87   0.000741    3.75  0.000173  (-0.012949  0.001534  0.001587)
 37:   1349.84   0.001684    8.51  0.000389  ( 0.016621 -0.010290  0.002685)
 38:   1371.35   0.004223   21.34  0.000961  (-0.029093 -0.009942 -0.003965)
 39:   1395.12   0.000563    2.84  0.000126  (-0.002089  0.000216 -0.011022)
 40:   1468.68   0.003935   19.88  0.000836  (-0.028153 -0.005416 -0.003753)
 41:   1479.15   0.000205    1.04  0.000043  (-0.001325 -0.000558  0.006414)
 42:   1485.97   0.002007   10.14  0.000422  ( 0.000450 -0.020527 -0.000068)
 43:   1498.02   0.000631    3.19  0.000131  ( 0.004037  0.000050  0.010732)
 44:   1539.73   0.019089   96.47  0.003869  ( 0.061830 -0.002447  0.006318)
 45:   1630.26   0.003334   16.85  0.000638  ( 0.022525 -0.010824  0.003699)
 46:   1648.92   0.006651   33.61  0.001259  ( 0.034650  0.004305  0.006286)
 47:   3005.17   0.007081   35.78  0.000735  ( 0.022344  0.000201 -0.015362)
 48:   3010.38   0.006942   35.08  0.000720  ( 0.011923 -0.000222  0.024029)
 49:   3051.07   0.001222    6.17  0.000125  (-0.000213  0.011175 -0.000122)
 50:   3085.37   0.009659   48.81  0.000977  ( 0.029057  0.001107  0.011464)
 51:   3089.78   0.006782   34.27  0.000685  (-0.001224  0.026143 -0.000065)
 52:   3138.51   0.003380   17.08  0.000336  ( 0.018092  0.001871  0.002284)
 53:   3148.02   0.003046   15.39  0.000302  ( 0.010537  0.013723  0.001624)
 54:   3156.07   0.002542   12.84  0.000251  (-0.000279  0.015839 -0.000599)
 55:   3185.83   0.001189    6.01  0.000116  (-0.006227  0.008809 -0.000300)
 56:   3809.33   0.010898   55.07  0.000893  (-0.024246 -0.017171 -0.003174)

--------------------------
THERMOCHEMISTRY AT 298.15K
--------------------------

Temperature         ...   298.15 K
Pressure            ...     1.00 atm
Total Mass          ...   122.17 AMU
Quasi RRHO          ...     True
Cut-Off Frequency   ...     1.00 cm^-1

Throughout the following assumptions are being made:
  (1) The electronic state is orbitally nondegenerate
  (2) There are no thermally accessible electronically excited states
  (3) Hindered rotations indicated by low frequency modes are not
      treated as such but are treated as vibrations and this may
      cause some error
  (4) All equations used are the standard statistical mechanics
      equations for an ideal gas
  (5) All vibrations are strictly harmonic

freq.      47.81  E(vib)   ...       0.53
freq.     104.47  E(vib)   ...       0.46
freq.     226.29  E(vib)   ...       0.33
freq.     229.34  E(vib)   ...       0.32
freq.     331.55  E(vib)   ...       0.24
freq.     351.74  E(vib)   ...       0.23
freq.     397.45  E(vib)   ...       0.20
freq.     418.11  E(vib)   ...       0.18
freq.     433.86  E(vib)   ...       0.17
freq.     479.08  E(vib)   ...       0.15
freq.     545.26  E(vib)   ...       0.12
freq.     660.01  E(vib)   ...       0.08
freq.     726.49  E(vib)   ...       0.06
freq.     743.17  E(vib)   ...       0.06
freq.     792.28  E(vib)   ...       0.05
freq.     805.73  E(vib)   ...       0.05
freq.     836.14  E(vib)   ...       0.04
freq.     848.59  E(vib)   ...       0.04
freq.     914.30  E(vib)   ...       0.03
freq.     943.78  E(vib)   ...       0.03
freq.     969.68  E(vib)   ...       0.03
freq.    1034.51  E(vib)   ...       0.02
freq.    1061.05  E(vib)   ...       0.02
freq.    1077.99  E(vib)   ...       0.02
freq.    1131.67  E(vib)   ...       0.01
freq.    1190.19  E(vib)   ...       0.01
freq.    1192.49  E(vib)   ...       0.01
freq.    1226.83  E(vib)   ...       0.01
freq.    1268.80  E(vib)   ...       0.01
freq.    1276.06  E(vib)   ...       0.01
freq.    1340.87  E(vib)   ...       0.01
freq.    1349.84  E(vib)   ...       0.01
freq.    1371.35  E(vib)   ...       0.01
freq.    1395.12  E(vib)   ...       0.00
freq.    1468.68  E(vib)   ...       0.00
freq.    1479.15  E(vib)   ...       0.00
freq.    1485.97  E(vib)   ...       0.00
freq.    1498.02  E(vib)   ...       0.00
freq.    1539.73  E(vib)   ...       0.00
freq.    1630.26  E(vib)   ...       0.00
freq.    1648.92  E(vib)   ...       0.00
freq.    3005.17  E(vib)   ...       0.00
freq.    3010.38  E(vib)   ...       0.00
freq.    3051.07  E(vib)   ...       0.00
freq.    3085.37  E(vib)   ...       0.00
freq.    3089.78  E(vib)   ...       0.00
freq.    3138.51  E(vib)   ...       0.00
freq.    3148.02  E(vib)   ...       0.00
freq.    3156.07  E(vib)   ...       0.00
freq.    3185.83  E(vib)   ...       0.00
freq.    3809.33  E(vib)   ...       0.00

------------
INNER ENERGY
------------

The inner energy is: U= E(el) + E(ZPE) + E(vib) + E(rot) + E(trans)
    E(el)   - is the total energy from the electronic structure calculation
              = E(kin-el) + E(nuc-el) + E(el-el) + E(nuc-nuc)
    E(ZPE)  - the the zero temperature vibrational energy from the frequency calculation
    E(vib)  - the the finite temperature correction to E(ZPE) due to population
              of excited vibrational states
    E(rot)  - is the rotational thermal energy
    E(trans)- is the translational thermal energy

Summary of contributions to the inner energy U:
Electronic energy                ...   -386.03005494 Eh
Zero point energy                ...      0.15981832 Eh     100.29 kcal/mol
Thermal vibrational correction   ...      0.00566800 Eh       3.56 kcal/mol
Thermal rotational correction    ...      0.00141627 Eh       0.89 kcal/mol
Thermal translational correction ...      0.00141627 Eh       0.89 kcal/mol
-----------------------------------------------------------------------
Total thermal energy                   -385.86173608 Eh

Summary of corrections to the electronic energy:
(perhaps to be used in another calculation)
Total thermal correction                  0.00850054 Eh       5.33 kcal/mol
Non-thermal (ZPE) correction              0.15981832 Eh     100.29 kcal/mol
-----------------------------------------------------------------------
Total correction                          0.16831886 Eh     105.62 kcal/mol

--------
ENTHALPY
--------

The enthalpy is H = U + kB*T
                kB is Boltzmann's constant
Total thermal energy              ...   -385.86173608 Eh
Thermal Enthalpy correction       ...      0.00094421 Eh       0.59 kcal/mol
-----------------------------------------------------------------------
Total Enthalpy                    ...   -385.86079187 Eh

Note: Only C1 symmetry has been detected, increase convergence thresholds
      if your molecule has a higher symmetry. Symmetry factor of 1.0 is
      used for the rotational entropy correction.

Note: Rotational entropy computed according to Herzberg
Infrared and Raman Spectra, Chapter V,1, Van Nostrand Reinhold, 1945
Point Group:  C1, Symmetry Number:   1
Rotational constants in cm-1:     0.146856     0.031728     0.028101

Vibrational entropy computed according to the QRRHO of S. Grimme
Chem.Eur.J. 2012 18 9955 using a reference frequency of 100.0 cm-1

-------
ENTROPY
-------

The entropy contributions are T*S = T*(S(el)+S(vib)+S(rot)+S(trans))
     S(el)   - electronic entropy
     S(vib)  - vibrational entropy
     S(rot)  - rotational entropy
     S(trans)- translational entropy
The entropies will be listed as multiplied by the temperature to get
units of energy

Electronic entropy                ...      0.00000000 Eh      0.00 kcal/mol
Vibrational entropy               ...      0.00931884 Eh      5.85 kcal/mol
Rotational entropy                ...      0.01373168 Eh      8.62 kcal/mol
Translational entropy             ...      0.01915481 Eh     12.02 kcal/mol
-----------------------------------------------------------------------
Final entropy term                ...      0.04220533 Eh     26.48 kcal/mol

In case the symmetry of your molecule has not been determined correctly
or in case you have a reason to use a different symmetry number we print
out the resulting rotational entropy values for sn=1,12:

 non-linear molecules -----------------------------------
|  sn= 1 | S(rot)=       0.01373168 Eh      8.62 kcal/mol|
|  sn= 2 | S(rot)=       0.01307723 Eh      8.21 kcal/mol|
|  sn= 3 | S(rot)=       0.01269439 Eh      7.97 kcal/mol|
|  sn= 4 | S(rot)=       0.01242277 Eh      7.80 kcal/mol|
|  sn= 5 | S(rot)=       0.01221208 Eh      7.66 kcal/mol|
|  sn= 6 | S(rot)=       0.01203994 Eh      7.56 kcal/mol|
|  sn= 7 | S(rot)=       0.01189439 Eh      7.46 kcal/mol|
|  sn= 8 | S(rot)=       0.01176831 Eh      7.38 kcal/mol|
|  sn= 9 | S(rot)=       0.01165710 Eh      7.31 kcal/mol|

                             ****ORCA TERMINATED NORMALLY****
TOTAL RUN TIME: 0 days 0 hours 16 minutes 43 seconds 890 msec
