                         Program Version 6.0.1  -  RELEASE   -
|  1> ! pbe def2-sv(p) def2/J RI DEFGRID1 loosescf d4 GCP(DFT/SV(P)) printgap
|  2> %output
|  3>     printlevel normal
|  4> end
|  5> * xyz 0 1
|  6> C 3.1052935126 0.0207792695 -0.2332979953
|  7> C 1.9538400563 -0.1471626771 0.7614961663
|  8> H 2.4140973579 -0.2653142015 1.750624228
|  9> C 1.1316244921 -1.405900426 0.4687603061
| 10> C 0.2152301371 -1.2226374483 -0.7370630988
| 11> C -0.7806168937 -0.072184409 -0.543252221
| 12> H -1.3155062005 0.0675354521 -1.4910375935
| 13> C 0.0096934926 1.2298195234 -0.2845430896
| 14> H -0.6862536537 2.0255717042 0.0002755082
| 15> C 1.0314591788 1.0766947738 0.8515227862
| 16> O 0.5916443909 1.7260116502 -1.4704910502
| 17> C -1.8435058559 -0.3322085069 0.5455887792
| 18> C -2.9860304508 0.6801626492 0.4406189368
| 19> C -2.442294138 -1.7368788214 0.4474335104
| 20> H 3.8682278321 -0.7318405543 -0.0413233676
| 21> H 2.7864847749 -0.0993762369 -1.2658491524
| 22> H 3.563090525 1.0017310138 -0.1276109781
| 23> H 1.8067896686 -2.2464864138 0.2909564076
| 24> H 0.5278389741 -1.6479331825 1.3449402272
| 25> H 0.8168605562 -1.0166899923 -1.626214766
| 26> H -0.3180469148 -2.1510603306 -0.9394695031
| 27> H 1.6340276543 1.9872772651 0.887026906
| 28> H 0.4757109221 1.0179927978 1.7893558297
| 29> H 1.2755414981 1.1104424464 -1.7529842614
| 30> H -1.3806201576 -0.2259036562 1.5313326988
| 31> H -2.6351578048 1.7020324595 0.5502898911
| 32> H -3.7222818031 0.4948403262 1.2199247783
| 33> H -3.4801296356 0.5903948934 -0.5245121609
| 34> H -1.7200341028 -2.5049261306 0.7091159145
| 35> H -2.8069274514 -1.9256861482 -0.5601444109
| 36> H -3.2821218703 -1.825872915 1.1334818369
| 37> *
| 38>
| 39>                          ****END OF INPUT****

CARTESIAN COORDINATES (ANGSTROEM)
---------------------------------
  C      3.105294    0.020779   -0.233298
  C      1.953840   -0.147163    0.761496
  H      2.414097   -0.265314    1.750624
  C      1.131624   -1.405900    0.468760
  C      0.215230   -1.222637   -0.737063
  C     -0.780617   -0.072184   -0.543252
  H     -1.315506    0.067535   -1.491038
  C      0.009693    1.229820   -0.284543
  H     -0.686254    2.025572    0.000276
  C      1.031459    1.076695    0.851523
  O      0.591644    1.726012   -1.470491
  C     -1.843506   -0.332209    0.545589
  C     -2.986030    0.680163    0.440619
  C     -2.442294   -1.736879    0.447434
  H      3.868228   -0.731841   -0.041323
  H      2.786485   -0.099376   -1.265849
  H      3.563091    1.001731   -0.127611
  H      1.806790   -2.246486    0.290956
  H      0.527839   -1.647933    1.344940
  H      0.816861   -1.016690   -1.626215
  H     -0.318047   -2.151060   -0.939470
  H      1.634028    1.987277    0.887027
  H      0.475711    1.017993    1.789356
  H      1.275541    1.110442   -1.752984
  H     -1.380620   -0.225904    1.531333
  H     -2.635158    1.702032    0.550290
  H     -3.722282    0.494840    1.219925
  H     -3.480130    0.590395   -0.524512
  H     -1.720034   -2.504926    0.709116
  H     -2.806927   -1.925686   -0.560144
  H     -3.282122   -1.825873    1.133482

 Total Charge           Charge          ....    0
 Multiplicity           Mult            ....    1
 Number of Electrons    NEL             ....   88
 Basis Dimension        Dim             ....  194

ORBITAL ENERGIES
----------------

  NO   OCC          E(Eh)            E(eV)
   0   2.0000     -18.734700      -509.7971
   1   2.0000      -9.928372      -270.1647
   2   2.0000      -9.897149      -269.3151
   3   2.0000      -9.894785      -269.2508
   4   2.0000      -9.886630      -269.0289
   5   2.0000      -9.883862      -268.9536
   6   2.0000      -9.883677      -268.9485
   7   2.0000      -9.880886      -268.8726
   8   2.0000      -9.879336      -268.8304
   9   2.0000      -9.872999      -268.6580
  10   2.0000      -9.871151      -268.6077
  11   2.0000      -0.916312       -24.9341
  12   2.0000      -0.758457       -20.6387
  13   2.0000      -0.722232       -19.6529
  14   2.0000      -0.670126       -18.2351
  15   2.0000      -0.658787       -17.9265
  16   2.0000      -0.611882       -16.6502
  17   2.0000      -0.607235       -16.5237
  18   2.0000      -0.550810       -14.9883
  19   2.0000      -0.544720       -14.8226
  20   2.0000      -0.508604       -13.8398
  21   2.0000      -0.469329       -12.7711
  22   2.0000      -0.455042       -12.3823
  23   2.0000      -0.422757       -11.5038
  24   2.0000      -0.418573       -11.3899
  25   2.0000      -0.401014       -10.9122
  26   2.0000      -0.387405       -10.5418
  27   2.0000      -0.382011       -10.3950
  28   2.0000      -0.376057       -10.2330
  29   2.0000      -0.354324        -9.6417
  30   2.0000      -0.351038        -9.5522
  31   2.0000      -0.343624        -9.3505
  32   2.0000      -0.337737        -9.1903
  33   2.0000      -0.333051        -9.0628
  34   2.0000      -0.319560        -8.6957
  35   2.0000      -0.313220        -8.5231
  36   2.0000      -0.298802        -8.1308
  37   2.0000      -0.296676        -8.0730
  38   2.0000      -0.288798        -7.8586
  39   2.0000      -0.277649        -7.5552
  40   2.0000      -0.271468        -7.3870
  41   2.0000      -0.260878        -7.0989
  42   2.0000      -0.243607        -6.6289
  43   2.0000      -0.204659        -5.5691
  44   0.0000       0.016732         0.4553
  45   0.0000       0.029658         0.8070
  46   0.0000       0.049186         1.3384
  47   0.0000       0.064627         1.7586
  48   0.0000       0.069472         1.8904

MULLIKEN ATOMIC CHARGES
-----------------------
   0 C :   -0.275927
   1 C :   -0.159391
   2 H :    0.068868
   3 C :   -0.113151
   4 C :   -0.141743
   5 C :   -0.092427
   6 H :    0.058047
   7 C :    0.067631
   8 H :    0.059940
   9 C :   -0.126379
  10 O :   -0.421930
  11 C :   -0.188092
  12 C :   -0.245456
  13 C :   -0.242946
  14 H :    0.101943
  15 H :    0.094867
  16 H :    0.107852
  17 H :    0.079037
  18 H :    0.083830
  19 H :    0.060535
  20 H :    0.088298
  21 H :    0.085409
  22 H :    0.081992
  23 H :    0.291239
  24 H :    0.076222
  25 H :    0.109497
  26 H :    0.096939
  27 H :    0.094015
  28 H :    0.109182
  29 H :    0.095923
  30 H :    0.096176
Sum of atomic charges:   -0.0000000

LOEWDIN ATOMIC CHARGES
----------------------
   0 C :   -0.335600
   1 C :   -0.152663
   2 H :    0.118347
   3 C :   -0.216750
   4 C :   -0.223331
   5 C :   -0.146441
   6 H :    0.117068
   7 C :   -0.045916
   8 H :    0.110054
   9 C :   -0.230394
  10 O :   -0.319850
  11 C :   -0.152129
  12 C :   -0.327397
  13 C :   -0.329298
  14 H :    0.121997
  15 H :    0.107074
  16 H :    0.121740
  17 H :    0.115616
  18 H :    0.116056
  19 H :    0.106037
  20 H :    0.120016
  21 H :    0.119624
  22 H :    0.119894
  23 H :    0.270383
  24 H :    0.111667
  25 H :    0.116184
  26 H :    0.117221
  27 H :    0.118108
  28 H :    0.116289
  29 H :    0.118297
  30 H :    0.118097

  Mayer bond orders larger than 0.100000
B(  0-C ,  1-C ) :   1.1083 B(  0-C , 14-H ) :   0.9437 B(  0-C , 15-H ) :   0.9325
B(  0-C , 16-H ) :   0.9471 B(  1-C ,  2-H ) :   0.8957 B(  1-C ,  3-C ) :   1.0807
B(  1-C ,  9-C ) :   1.0882 B(  3-C ,  4-C ) :   1.1282 B(  3-C , 17-H ) :   0.9171
B(  3-C , 18-H ) :   0.9037 B(  4-C ,  5-C ) :   1.0742 B(  4-C , 19-H ) :   0.9045
B(  4-C , 20-H ) :   0.8979 B(  5-C ,  6-H ) :   0.8731 B(  5-C ,  7-C ) :   1.0197
B(  5-C , 11-C ) :   1.0177 B(  7-C ,  8-H ) :   0.8912 B(  7-C ,  9-C ) :   1.0716
B(  7-C , 10-O ) :   1.0484 B(  9-C , 21-H ) :   0.9057 B(  9-C , 22-H ) :   0.8970
B( 10-O , 23-H ) :   0.8437 B( 11-C , 12-C ) :   1.1151 B( 11-C , 13-C ) :   1.1211
B( 11-C , 24-H ) :   0.8874 B( 12-C , 25-H ) :   0.9409 B( 12-C , 26-H ) :   0.9468
B( 12-C , 27-H ) :   0.9474 B( 13-C , 28-H ) :   0.9349 B( 13-C , 29-H ) :   0.9458
B( 13-C , 30-H ) :   0.9464

Dispersion correction           -0.033166946
FINAL SINGLE POINT ENERGY      -467.191296376402

DIPOLE MOMENT
-------------

Method             : SCF
Type of density    : Electron Density
Multiplicity       :   1
Irrep              :   0
Energy             :  -467.3031755861895817 Eh
Relativity type    :
Basis              : AO
                                X                 Y                 Z
Electronic contribution:      2.232935551       3.776665639      -2.324021010
Nuclear contribution   :     -2.034928108      -4.330542464       2.678385954
                        -----------------------------------------
Total Dipole Moment    :      0.198007443      -0.553876826       0.354364944
                        -----------------------------------------
Magnitude (a.u.)       :      0.686702992
Magnitude (Debye)      :      1.745460292

Rotational constants in cm-1:             0.056779             0.026870             0.022370
Rotational constants in MHz :          1702.184699           805.551787           670.624821

                             ****ORCA TERMINATED NORMALLY****
TOTAL RUN TIME: 0 days 0 hours 0 minutes 11 seconds 908 msec
