                         Program Version 6.0.1  -  RELEASE   -
|  1> ! pbe def2-sv(p) def2/J RI DEFGRID1 loosescf d4 GCP(DFT/SV(P)) printgap
|  2> %output
|  3>     printlevel normal
|  4> end
|  5> * xyz 0 1
|  6> C -2.1181480511 -0.923497333 -0.275246371
|  7> C -1.1596801284 -0.3432440376 0.7844586072
|  8> H -1.7009325835 -0.3513811801 1.7387609325
|  9> C -0.7588743149 1.1206155644 0.5310192928
| 10> H -1.6348906063 1.6452992877 0.1189950008
| 11> C 0.4160803319 1.2891321986 -0.4554054689
| 12> H 0.8469045189 2.2904956536 -0.298151169
| 13> C 1.5449887114 0.2971845325 -0.0871139191
| 14> H 2.2668953307 0.2568847164 -0.9079872236
| 15> C 1.0530119548 -1.135171606 0.1878623165
| 16> H 1.8499030176 -1.6447943286 0.7500016368
| 17> O -0.051281598 -1.1968453963 1.0438039635
| 18> O 0.8228811169 -1.8141246985 -1.0270220098
| 19> O 2.2312185567 0.7606282124 1.0469089812
| 20> O 0.0282082422 1.2663296357 -1.7921681937
| 21> O -0.4192407619 1.6532590307 1.7990338353
| 22> O -1.6511655 -0.8822149 -1.598207232
| 23> H -3.0458465291 -0.3470994357 -0.2608319071
| 24> H -2.3436444628 -1.9579644817 0.0175873166
| 25> H 0.7541347508 -2.7601341443 -0.8496181514
| 26> H 1.5866440363 0.8428589652 1.7676181656
| 27> H -0.6160788094 0.5469964062 -1.9391918721
| 28> H -0.2236902055 2.5930196607 1.7047750675
| 29> H -0.8018428777 -1.3683977688 -1.6359263568
| 30> *
| 31>
| 32>                          ****END OF INPUT****

CARTESIAN COORDINATES (ANGSTROEM)
---------------------------------
  C     -2.118148   -0.923497   -0.275246
  C     -1.159680   -0.343244    0.784459
  H     -1.700933   -0.351381    1.738761
  C     -0.758874    1.120616    0.531019
  H     -1.634891    1.645299    0.118995
  C      0.416080    1.289132   -0.455405
  H      0.846905    2.290496   -0.298151
  C      1.544989    0.297185   -0.087114
  H      2.266895    0.256885   -0.907987
  C      1.053012   -1.135172    0.187862
  H      1.849903   -1.644794    0.750002
  O     -0.051282   -1.196845    1.043804
  O      0.822881   -1.814125   -1.027022
  O      2.231219    0.760628    1.046909
  O      0.028208    1.266330   -1.792168
  O     -0.419241    1.653259    1.799034
  O     -1.651165   -0.882215   -1.598207
  H     -3.045847   -0.347099   -0.260832
  H     -2.343644   -1.957964    0.017587
  H      0.754135   -2.760134   -0.849618
  H      1.586644    0.842859    1.767618
  H     -0.616079    0.546996   -1.939192
  H     -0.223690    2.593020    1.704775
  H     -0.801843   -1.368398   -1.635926

 Total Charge           Charge          ....    0
 Multiplicity           Mult            ....    1
 Number of Electrons    NEL             ....   96
 Basis Dimension        Dim             ....  192

ORBITAL ENERGIES
----------------

  NO   OCC          E(Eh)            E(eV)
   0   2.0000     -18.796504      -511.4789
   1   2.0000     -18.779418      -511.0139
   2   2.0000     -18.773638      -510.8567
   3   2.0000     -18.764922      -510.6195
   4   2.0000     -18.744380      -510.0605
   5   2.0000     -18.731606      -509.7129
   6   2.0000      -9.996650      -272.0227
   7   2.0000      -9.955900      -270.9138
   8   2.0000      -9.955130      -270.8929
   9   2.0000      -9.946565      -270.6598
  10   2.0000      -9.940604      -270.4976
  11   2.0000      -9.938870      -270.4504
  12   2.0000      -0.999802       -27.2060
  13   2.0000      -0.954405       -25.9707
  14   2.0000      -0.941699       -25.6249
  15   2.0000      -0.932703       -25.3801
  16   2.0000      -0.925036       -25.1715
  17   2.0000      -0.911084       -24.7918
  18   2.0000      -0.713565       -19.4171
  19   2.0000      -0.685976       -18.6664
  20   2.0000      -0.631091       -17.1728
  21   2.0000      -0.597813       -16.2673
  22   2.0000      -0.586238       -15.9523
  23   2.0000      -0.532198       -14.4819
  24   2.0000      -0.496352       -13.5064
  25   2.0000      -0.495113       -13.4727
  26   2.0000      -0.480315       -13.0700
  27   2.0000      -0.473673       -12.8893
  28   2.0000      -0.455489       -12.3945
  29   2.0000      -0.440316       -11.9816
  30   2.0000      -0.426971       -11.6185
  31   2.0000      -0.406397       -11.0586
  32   2.0000      -0.387338       -10.5400
  33   2.0000      -0.379188       -10.3182
  34   2.0000      -0.365877        -9.9560
  35   2.0000      -0.360636        -9.8134
  36   2.0000      -0.343721        -9.3531
  37   2.0000      -0.329458        -8.9650
  38   2.0000      -0.314252        -8.5512
  39   2.0000      -0.307583        -8.3698
  40   2.0000      -0.285428        -7.7669
  41   2.0000      -0.277793        -7.5591
  42   2.0000      -0.267479        -7.2785
  43   2.0000      -0.255772        -6.9599
  44   2.0000      -0.241886        -6.5821
  45   2.0000      -0.232310        -6.3215
  46   2.0000      -0.225168        -6.1271
  47   2.0000      -0.195307        -5.3146
  48   0.0000       0.001935         0.0527
  49   0.0000       0.012300         0.3347
  50   0.0000       0.040017         1.0889
  51   0.0000       0.054734         1.4894
  52   0.0000       0.065425         1.7803

MULLIKEN ATOMIC CHARGES
-----------------------
   0 C :    0.028719
   1 C :    0.041941
   2 H :    0.087007
   3 C :   -0.004295
   4 H :    0.078795
   5 C :    0.040398
   6 H :    0.062947
   7 C :    0.077358
   8 H :    0.086535
   9 C :    0.149767
  10 H :    0.082562
  11 O :   -0.308344
  12 O :   -0.405568
  13 O :   -0.431065
  14 O :   -0.413856
  15 O :   -0.414371
  16 O :   -0.441838
  17 H :    0.095238
  18 H :    0.086212
  19 H :    0.316839
  20 H :    0.293412
  21 H :    0.282044
  22 H :    0.308558
  23 H :    0.301005
Sum of atomic charges:   -0.0000000

LOEWDIN ATOMIC CHARGES
----------------------
   0 C :   -0.134527
   1 C :   -0.071649
   2 H :    0.130334
   3 C :   -0.076110
   4 H :    0.110091
   5 C :   -0.083859
   6 H :    0.109793
   7 C :   -0.078630
   8 H :    0.125990
   9 C :   -0.013777
  10 H :    0.109786
  11 O :   -0.140829
  12 O :   -0.305197
  13 O :   -0.316859
  14 O :   -0.326437
  15 O :   -0.311042
  16 O :   -0.334641
  17 H :    0.120904
  18 H :    0.105621
  19 H :    0.293976
  20 H :    0.268965
  21 H :    0.263274
  22 H :    0.288905
  23 H :    0.265917

  Mayer bond orders larger than 0.100000
B(  0-C ,  1-C ) :   1.0438 B(  0-C , 16-O ) :   1.0619 B(  0-C , 17-H ) :   0.9179
B(  0-C , 18-H ) :   0.9153 B(  1-C ,  2-H ) :   0.8785 B(  1-C ,  3-C ) :   0.9934
B(  1-C , 11-O ) :   0.9878 B(  3-C ,  4-H ) :   0.8968 B(  3-C ,  5-C ) :   0.9816
B(  3-C , 15-O ) :   1.0233 B(  5-C ,  6-H ) :   0.9005 B(  5-C ,  7-C ) :   0.9498
B(  5-C , 14-O ) :   1.1190 B(  7-C ,  8-H ) :   0.8848 B(  7-C ,  9-C ) :   0.9987
B(  7-C , 13-O ) :   1.0353 B(  9-C , 10-H ) :   0.9018 B(  9-C , 11-O ) :   1.0732
B(  9-C , 12-O ) :   1.0326 B( 12-O , 19-H ) :   0.8311 B( 12-O , 23-H ) :   0.1521
B( 13-O , 20-H ) :   0.8171 B( 14-O , 21-H ) :   0.7741 B( 15-O , 22-H ) :   0.8394
B( 16-O , 21-H ) :   0.1691 B( 16-O , 23-H ) :   0.7538

Dispersion correction           -0.026649221
FINAL SINGLE POINT ENERGY      -685.706794013087

DIPOLE MOMENT
-------------

Method             : SCF
Type of density    : Electron Density
Multiplicity       :   1
Irrep              :   0
Energy             :  -685.8432472163883631 Eh
Relativity type    :
Basis              : AO
                                X                 Y                 Z
Electronic contribution:      2.326659056      -0.358277714       0.392331182
Nuclear contribution   :     -2.858862745      -0.241653478       0.185475664
                        -----------------------------------------
Total Dipole Moment    :     -0.532203689      -0.599931192       0.577806847
                        -----------------------------------------
Magnitude (a.u.)       :      0.988442692
Magnitude (Debye)      :      2.512421657

Rotational constants in cm-1:             0.039424             0.031462             0.028002
Rotational constants in MHz :          1181.896032           943.210755           839.492061

                             ****ORCA TERMINATED NORMALLY****
TOTAL RUN TIME: 0 days 0 hours 0 minutes 28 seconds 610 msec
