                         Program Version 6.0.1  -  RELEASE   -
|  1> ! pbe def2-sv(p) def2/J RI DEFGRID1 loosescf d4 GCP(DFT/SV(P)) printgap
|  2> %output
|  3>     printlevel normal
|  4> end
|  5> * xyz 0 1
|  6> C -0.5953811616 0.0632675342 0.4645257764
|  7> C 0.6021661483 -0.112813218 -0.474064217
|  8> O 1.7761724308 0.0465086508 0.2876440562
|  9> O -1.8241572905 -0.0333820142 -0.2085032511
| 10> H -0.4954109116 1.0248799753 0.9849004429
| 11> H -0.5915708035 -0.7338729449 1.2097442824
| 12> H 0.553850916 0.6432597233 -1.2752385397
| 13> H 0.5585294516 -1.1081150149 -0.9366554775
| 14> H 2.5414039418 -0.1237464934 -0.2711487845
| 15> H -1.8859468658 0.6796514055 -0.8542144713
| 16> *
| 17>
| 18>                          ****END OF INPUT****

CARTESIAN COORDINATES (ANGSTROEM)
---------------------------------
  C     -0.595381    0.063268    0.464526
  C      0.602166   -0.112813   -0.474064
  O      1.776172    0.046509    0.287644
  O     -1.824157   -0.033382   -0.208503
  H     -0.495411    1.024880    0.984900
  H     -0.591571   -0.733873    1.209744
  H      0.553851    0.643260   -1.275239
  H      0.558529   -1.108115   -0.936655
  H      2.541404   -0.123746   -0.271149
  H     -1.885947    0.679651   -0.854214

 Total Charge           Charge          ....    0
 Multiplicity           Mult            ....    1
 Number of Electrons    NEL             ....   34
 Basis Dimension        Dim             ....   68

ORBITAL ENERGIES
----------------

  NO   OCC          E(Eh)            E(eV)
   0   2.0000     -18.747693      -510.1507
   1   2.0000     -18.744551      -510.0652
   2   2.0000      -9.931439      -270.2482
   3   2.0000      -9.926396      -270.1110
   4   2.0000      -0.928860       -25.2756
   5   2.0000      -0.917920       -24.9779
   6   2.0000      -0.656642       -17.8681
   7   2.0000      -0.554903       -15.0997
   8   2.0000      -0.476061       -12.9543
   9   2.0000      -0.444460       -12.0944
  10   2.0000      -0.412716       -11.2306
  11   2.0000      -0.376124       -10.2349
  12   2.0000      -0.347695        -9.4613
  13   2.0000      -0.294199        -8.0056
  14   2.0000      -0.271912        -7.3991
  15   2.0000      -0.219248        -5.9660
  16   2.0000      -0.215466        -5.8631
  17   0.0000       0.021998         0.5986
  18   0.0000       0.027983         0.7615
  19   0.0000       0.083488         2.2718
  20   0.0000       0.097315         2.6481
  21   0.0000       0.102491         2.7889

MULLIKEN ATOMIC CHARGES
-----------------------
   0 C :    0.000790
   1 C :   -0.039485
   2 O :   -0.435382
   3 O :   -0.434446
   4 H :    0.081766
   5 H :    0.097001
   6 H :    0.056543
   7 H :    0.079543
   8 H :    0.300618
   9 H :    0.293051
Sum of atomic charges:   -0.0000000

LOEWDIN ATOMIC CHARGES
----------------------
   0 C :   -0.135366
   1 C :   -0.147733
   2 O :   -0.346934
   3 O :   -0.334944
   4 H :    0.097875
   5 H :    0.116842
   6 H :    0.084979
   7 H :    0.097059
   8 H :    0.286999
   9 H :    0.281223

  Mayer bond orders larger than 0.100000
B(  0-C ,  1-C ) :   1.0891 B(  0-C ,  3-O ) :   1.0619 B(  0-C ,  4-H ) :   0.9262
B(  0-C ,  5-H ) :   0.9261 B(  1-C ,  2-O ) :   1.0795 B(  1-C ,  6-H ) :   0.9208
B(  1-C ,  7-H ) :   0.9189 B(  2-O ,  8-H ) :   0.8527 B(  3-O ,  9-H ) :   0.8552

Dispersion correction           -0.004681435
FINAL SINGLE POINT ENERGY      -229.722625151383

DIPOLE MOMENT
-------------

Method             : SCF
Type of density    : Electron Density
Multiplicity       :   1
Irrep              :   0
Energy             :  -229.7732769048903378 Eh
Relativity type    :
Basis              : AO
                                X                 Y                 Z
Electronic contribution:     -0.156764934      -0.072528361       0.334794654
Nuclear contribution   :      0.638045168       0.358627669      -1.070788405
                        -----------------------------------------
Total Dipole Moment    :      0.481280234       0.286099307      -0.735993751
                        -----------------------------------------
Magnitude (a.u.)       :      0.924754172
Magnitude (Debye)      :      2.350538306

Rotational constants in cm-1:             1.005932             0.131899             0.123142
Rotational constants in MHz :         30157.091793          3954.240223          3691.694772

                             ****ORCA TERMINATED NORMALLY****
TOTAL RUN TIME: 0 days 0 hours 0 minutes 5 seconds 796 msec
