                         Program Version 6.0.1  -  RELEASE   -
|  1> ! r2scan-3c def2/J RI DEFGRID2 scfconv6 printgap
|  2> %output
|  3>     printlevel normal
|  4> end
|  5> * xyz 0 1
|  6> C -2.8848625015 -0.0756470924 -0.0072510294
|  7> C -1.390518696 0.0029271357 0.002887161
|  8> C -0.7128476703 1.2168596171 0.0034119596
|  9> C 0.6698859029 1.2260066068 0.0029808929
| 10> C 1.3534607503 0.012811972 0.0013948154
| 11> N 0.7107957525 -1.1473399981 0.0032351994
| 12> C -0.608767208 -1.1477454389 0.0041220768
| 13> C 2.8495956447 -0.0409896714 -0.0063625045
| 14> H -3.2382547522 -0.7271799426 0.7903369692
| 15> H -3.3258223411 0.909933943 0.1221424857
| 16> H -3.2332315975 -0.489374935 -0.953450581
| 17> H -1.2653581225 2.146892969 0.0047030366
| 18> H 1.2165929297 2.1574425879 0.0039721174
| 19> H -1.0716459488 -2.1273262095 0.0064950355
| 20> H 3.2560356411 0.5264275001 0.8290314419
| 21> H 3.1753026437 -1.074224552 0.0661167551
| 22> H 3.2369590468 0.3905083011 -0.9284086224
| 23> *
| 24>
| 25>                          ****END OF INPUT****

CARTESIAN COORDINATES (ANGSTROEM)
---------------------------------
  C     -2.884863   -0.075647   -0.007251
  C     -1.390519    0.002927    0.002887
  C     -0.712848    1.216860    0.003412
  C      0.669886    1.226007    0.002981
  C      1.353461    0.012812    0.001395
  N      0.710796   -1.147340    0.003235
  C     -0.608767   -1.147745    0.004122
  C      2.849596   -0.040990   -0.006363
  H     -3.238255   -0.727180    0.790337
  H     -3.325822    0.909934    0.122142
  H     -3.233232   -0.489375   -0.953451
  H     -1.265358    2.146893    0.004703
  H      1.216593    2.157443    0.003972
  H     -1.071646   -2.127326    0.006495
  H      3.256036    0.526428    0.829031
  H      3.175303   -1.074225    0.066117
  H      3.236959    0.390508   -0.928409

 Total Charge           Charge          ....    0
 Multiplicity           Mult            ....    1
 Number of Electrons    NEL             ....   58
 Basis Dimension        Dim             ....  202

ORBITAL ENERGIES
----------------

  NO   OCC          E(Eh)            E(eV)
   0   2.0000     -14.145409      -384.9161
   1   2.0000     -10.067687      -273.9557
   2   2.0000     -10.057506      -273.6786
   3   2.0000     -10.046445      -273.3777
   4   2.0000     -10.045677      -273.3568
   5   2.0000     -10.036746      -273.1137
   6   2.0000     -10.034059      -273.0406
   7   2.0000     -10.020943      -272.6837
   8   2.0000      -0.911006       -24.7897
   9   2.0000      -0.782827       -21.3018
  10   2.0000      -0.753007       -20.4904
  11   2.0000      -0.697746       -18.9866
  12   2.0000      -0.636458       -17.3189
  13   2.0000      -0.597264       -16.2524
  14   2.0000      -0.560874       -15.2621
  15   2.0000      -0.470966       -12.8156
  16   2.0000      -0.460579       -12.5330
  17   2.0000      -0.420604       -11.4452
  18   2.0000      -0.407814       -11.0972
  19   2.0000      -0.391522       -10.6539
  20   2.0000      -0.380606       -10.3568
  21   2.0000      -0.372559       -10.1378
  22   2.0000      -0.361205        -9.8289
  23   2.0000      -0.342943        -9.3320
  24   2.0000      -0.340996        -9.2790
  25   2.0000      -0.321472        -8.7477
  26   2.0000      -0.264290        -7.1917
  27   2.0000      -0.224921        -6.1204
  28   2.0000      -0.216717        -5.8972
  29   0.0000      -0.046718        -1.2713
  30   0.0000      -0.032599        -0.8871
  31   0.0000       0.075799         2.0626
  32   0.0000       0.098707         2.6860
  33   0.0000       0.101657         2.7662

MULLIKEN ATOMIC CHARGES
-----------------------
   0 C :   -0.543002
   1 C :    0.248825
   2 C :   -0.233120
   3 C :   -0.190884
   4 C :    0.280292
   5 N :   -0.183879
   6 C :   -0.187039
   7 C :   -0.586597
   8 H :    0.160626
   9 H :    0.150657
  10 H :    0.166298
  11 H :    0.146998
  12 H :    0.150319
  13 H :    0.134061
  14 H :    0.151178
  15 H :    0.179586
  16 H :    0.155680
Sum of atomic charges:   -0.0000000

LOEWDIN ATOMIC CHARGES
----------------------
   0 C :   -0.389178
   1 C :   -0.090134
   2 C :   -0.125107
   3 C :   -0.139708
   4 C :    0.120049
   5 N :   -0.620487
   6 C :    0.086287
   7 C :   -0.363599
   8 H :    0.165796
   9 H :    0.159677
  10 H :    0.166694
  11 H :    0.169139
  12 H :    0.170324
  13 H :    0.185247
  14 H :    0.163820
  15 H :    0.175480
  16 H :    0.165701

  Mayer bond orders larger than 0.100000
B(  0-C ,  1-C ) :   0.7860 B(  0-C ,  8-H ) :   0.9789 B(  0-C ,  9-H ) :   0.9925
B(  0-C , 10-H ) :   0.9728 B(  1-C ,  2-C ) :   1.3732 B(  1-C ,  6-C ) :   1.3024
B(  2-C ,  3-C ) :   1.4793 B(  2-C , 11-H ) :   0.9471 B(  3-C ,  4-C ) :   1.3897
B(  3-C , 12-H ) :   0.9184 B(  4-C ,  5-N ) :   1.3293 B(  4-C ,  7-C ) :   0.8235
B(  5-N ,  6-C ) :   1.5111 B(  6-C , 13-H ) :   0.9954 B(  7-C , 14-H ) :   0.9729
B(  7-C , 15-H ) :   1.0011 B(  7-C , 16-H ) :   0.9654

Dispersion correction           -0.005184079
FINAL SINGLE POINT ENERGY      -326.822767925875

DIPOLE MOMENT
-------------

Method             : SCF
Type of density    : Electron Density
Multiplicity       :   1
Irrep              :   0
Energy             :  -326.8253321816102357 Eh
Relativity type    :
Basis              : AO
                                X                 Y                 Z
Electronic contribution:      0.755516510      -0.943079679       0.041783767
Nuclear contribution   :     -1.168271581       1.600885330      -0.055391773
                        -----------------------------------------
Total Dipole Moment    :     -0.412755071       0.657805651      -0.013608006
                        -----------------------------------------
Magnitude (a.u.)       :      0.776698269
Magnitude (Debye)      :      1.974210106

Rotational constants in cm-1:             0.186429             0.050052             0.040045
Rotational constants in MHz :          5589.014663          1500.523964          1200.518145

                             ****ORCA TERMINATED NORMALLY****
TOTAL RUN TIME: 0 days 0 hours 0 minutes 24 seconds 50 msec
