                         Program Version 6.0.1  -  RELEASE   -
|  1> ! pbe def2-sv(p) def2/J RI DEFGRID1 loosescf d4 GCP(DFT/SV(P)) printgap
|  2> %output
|  3>     printlevel normal
|  4> end
|  5> * xyz 0 1
|  6> C -1.9181900093 -0.5778701925 -0.7670198231
|  7> C -1.2247026392 -0.07866427 0.5181164334
|  8> H -1.9506452238 -0.0545674143 1.3415459882
|  9> C -0.6484293613 1.3407900376 0.3549985629
| 10> H -1.4067878692 1.9611665964 -0.1401315373
| 11> C 0.6406409557 1.3331684891 -0.4942102436
| 12> H 1.1468477919 2.2967622441 -0.3210385071
| 13> C 1.608855431 0.2476066271 0.0016708824
| 14> H 2.3751793366 0.0999954503 -0.7708612754
| 15> C 0.9204310655 -1.114722032 0.2310837927
| 16> H 1.5798645231 -1.720695611 0.8864540065
| 17> O -0.2515315127 -1.0034696931 0.9836712078
| 18> O 0.7590570461 -1.7693660526 -0.98389595
| 19> O 2.1648941498 0.7323732375 1.2060806298
| 20> O 0.4001492597 1.1375569352 -1.8636262781
| 21> O -0.411211709 1.9388173575 1.5996174978
| 22> O -2.0752990545 -1.9787067625 -0.7544129306
| 23> H -1.3071930602 -0.3547606089 -1.6437410653
| 24> H -2.8900115774 -0.0750881248 -0.8640918611
| 25> H -0.1158543759 -2.1928091584 -0.998081373
| 26> H 2.7987877669 0.0891829913 1.5427324867
| 27> H -0.0478053601 1.9136488356 -2.2176788489
| 28> H 0.3870124043 1.5360512077 1.9736653876
| 29> H -2.4674092413 -2.2410268355 0.0873049227
| 30> *
| 31>
| 32>                          ****END OF INPUT****

CARTESIAN COORDINATES (ANGSTROEM)
---------------------------------
  C     -1.918190   -0.577870   -0.767020
  C     -1.224703   -0.078664    0.518116
  H     -1.950645   -0.054567    1.341546
  C     -0.648429    1.340790    0.354999
  H     -1.406788    1.961167   -0.140132
  C      0.640641    1.333168   -0.494210
  H      1.146848    2.296762   -0.321039
  C      1.608855    0.247607    0.001671
  H      2.375179    0.099995   -0.770861
  C      0.920431   -1.114722    0.231084
  H      1.579865   -1.720696    0.886454
  O     -0.251532   -1.003470    0.983671
  O      0.759057   -1.769366   -0.983896
  O      2.164894    0.732373    1.206081
  O      0.400149    1.137557   -1.863626
  O     -0.411212    1.938817    1.599617
  O     -2.075299   -1.978707   -0.754413
  H     -1.307193   -0.354761   -1.643741
  H     -2.890012   -0.075088   -0.864092
  H     -0.115854   -2.192809   -0.998081
  H      2.798788    0.089183    1.542732
  H     -0.047805    1.913649   -2.217679
  H      0.387012    1.536051    1.973665
  H     -2.467409   -2.241027    0.087305

 Total Charge           Charge          ....    0
 Multiplicity           Mult            ....    1
 Number of Electrons    NEL             ....   96
 Basis Dimension        Dim             ....  192

ORBITAL ENERGIES
----------------

  NO   OCC          E(Eh)            E(eV)
   0   2.0000     -18.774261      -510.8736
   1   2.0000     -18.771199      -510.7903
   2   2.0000     -18.766634      -510.6661
   3   2.0000     -18.763614      -510.5839
   4   2.0000     -18.740630      -509.9585
   5   2.0000     -18.739122      -509.9174
   6   2.0000      -9.983774      -271.6723
   7   2.0000      -9.949030      -270.7269
   8   2.0000      -9.946154      -270.6486
   9   2.0000      -9.944233      -270.5963
  10   2.0000      -9.943915      -270.5877
  11   2.0000      -9.933869      -270.3143
  12   2.0000      -0.984469       -26.7888
  13   2.0000      -0.950629       -25.8679
  14   2.0000      -0.940304       -25.5870
  15   2.0000      -0.935901       -25.4672
  16   2.0000      -0.921988       -25.0886
  17   2.0000      -0.900240       -24.4968
  18   2.0000      -0.703653       -19.1474
  19   2.0000      -0.692690       -18.8491
  20   2.0000      -0.617918       -16.8144
  21   2.0000      -0.595590       -16.2068
  22   2.0000      -0.576250       -15.6806
  23   2.0000      -0.527799       -14.3621
  24   2.0000      -0.493997       -13.4423
  25   2.0000      -0.489030       -13.3072
  26   2.0000      -0.482479       -13.1289
  27   2.0000      -0.450011       -12.2454
  28   2.0000      -0.440921       -11.9981
  29   2.0000      -0.428567       -11.6619
  30   2.0000      -0.422594       -11.4994
  31   2.0000      -0.411544       -11.1987
  32   2.0000      -0.392945       -10.6926
  33   2.0000      -0.380249       -10.3471
  34   2.0000      -0.366931        -9.9847
  35   2.0000      -0.346821        -9.4375
  36   2.0000      -0.327919        -8.9231
  37   2.0000      -0.318362        -8.6631
  38   2.0000      -0.314914        -8.5693
  39   2.0000      -0.301901        -8.2151
  40   2.0000      -0.296025        -8.0552
  41   2.0000      -0.260135        -7.0786
  42   2.0000      -0.250208        -6.8085
  43   2.0000      -0.245260        -6.6739
  44   2.0000      -0.237906        -6.4737
  45   2.0000      -0.228957        -6.2302
  46   2.0000      -0.210692        -5.7332
  47   2.0000      -0.200840        -5.4651
  48   0.0000       0.006530         0.1777
  49   0.0000       0.016984         0.4622
  50   0.0000       0.025271         0.6877
  51   0.0000       0.056487         1.5371
  52   0.0000       0.070318         1.9134

MULLIKEN ATOMIC CHARGES
-----------------------
   0 C :   -0.016695
   1 C :    0.007726
   2 H :    0.071507
   3 C :    0.062846
   4 H :    0.055283
   5 C :    0.017933
   6 H :    0.084466
   7 C :    0.043430
   8 H :    0.088344
   9 C :    0.196972
  10 H :    0.039043
  11 O :   -0.310409
  12 O :   -0.411034
  13 O :   -0.424588
  14 O :   -0.387988
  15 O :   -0.423787
  16 O :   -0.428344
  17 H :    0.120214
  18 H :    0.083136
  19 H :    0.308529
  20 H :    0.309278
  21 H :    0.306104
  22 H :    0.302904
  23 H :    0.305132
Sum of atomic charges:    0.0000000

LOEWDIN ATOMIC CHARGES
----------------------
   0 C :   -0.162863
   1 C :   -0.078893
   2 H :    0.114178
   3 C :   -0.074438
   4 H :    0.109113
   5 C :   -0.071503
   6 H :    0.109977
   7 C :   -0.078460
   8 H :    0.117130
   9 C :   -0.002336
  10 H :    0.083877
  11 O :   -0.140019
  12 O :   -0.322708
  13 O :   -0.308934
  14 O :   -0.299501
  15 O :   -0.318488
  16 O :   -0.320343
  17 H :    0.120067
  18 H :    0.104045
  19 H :    0.278203
  20 H :    0.290906
  21 H :    0.289590
  22 H :    0.274242
  23 H :    0.287161

  Mayer bond orders larger than 0.100000
B(  0-C ,  1-C ) :   1.0267 B(  0-C , 16-O ) :   1.0161 B(  0-C , 17-H ) :   0.8933
B(  0-C , 18-H ) :   0.9107 B(  1-C ,  2-H ) :   0.8923 B(  1-C ,  3-C ) :   0.9911
B(  1-C , 11-O ) :   1.0223 B(  3-C ,  4-H ) :   0.8950 B(  3-C ,  5-C ) :   0.9719
B(  3-C , 15-O ) :   1.0659 B(  5-C ,  6-H ) :   0.9022 B(  5-C ,  7-C ) :   0.9989
B(  5-C , 14-O ) :   1.0747 B(  7-C ,  8-H ) :   0.8868 B(  7-C ,  9-C ) :   0.9595
B(  7-C , 13-O ) :   1.0097 B(  9-C , 10-H ) :   0.9019 B(  9-C , 11-O ) :   1.0642
B(  9-C , 12-O ) :   1.1534 B( 12-O , 19-H ) :   0.7836 B( 13-O , 20-H ) :   0.8406
B( 14-O , 21-H ) :   0.8432 B( 15-O , 22-H ) :   0.8166 B( 16-O , 19-H ) :   0.1189
B( 16-O , 23-H ) :   0.8445

Dispersion correction           -0.026291445
FINAL SINGLE POINT ENERGY      -685.693674928153

DIPOLE MOMENT
-------------

Method             : SCF
Type of density    : Electron Density
Multiplicity       :   1
Irrep              :   0
Energy             :  -685.8275630248317611 Eh
Relativity type    :
Basis              : AO
                                X                 Y                 Z
Electronic contribution:      1.606761067      -1.013542157       1.242286373
Nuclear contribution   :     -1.771978695       1.166119236      -1.051652990
                        -----------------------------------------
Total Dipole Moment    :     -0.165217628       0.152577079       0.190633384
                        -----------------------------------------
Magnitude (a.u.)       :      0.294818107
Magnitude (Debye)      :      0.749368075

Rotational constants in cm-1:             0.042096             0.029012             0.025905
Rotational constants in MHz :          1261.997387           869.755550           776.618569

                             ****ORCA TERMINATED NORMALLY****
TOTAL RUN TIME: 0 days 0 hours 0 minutes 10 seconds 34 msec
