                         Program Version 6.0.1  -  RELEASE   -
|  1> ! r2scan-3c def2/J RI DEFGRID2 scfconv6 printgap
|  2> %output
|  3>     printlevel normal
|  4> end
|  5> * xyz 0 1
|  6> C 1.7125274865 -0.9440906384 -0.0010976456
|  7> C 0.7129066937 0.1777099816 0.0002243954
|  8> C 1.134665702 1.4413262985 0.0010717968
|  9> C -0.7129036139 -0.1777232931 0.0001665129
| 10> C -1.1346921732 -1.4413276077 0.001031104
| 11> C -1.7125075293 0.944099174 -0.0010831023
| 12> H 1.5860947591 -1.569967772 0.8808661115
| 13> H 2.725024251 -0.5488572629 -0.0012107023
| 14> H 1.5852894497 -1.5685630627 -0.8839539129
| 15> H 0.4701858901 2.2861222318 0.001598086
| 16> H 2.1860498933 1.6765943354 0.0005702358
| 17> H -2.1860831976 -1.6765620308 0.0009481372
| 18> H -0.4702518758 -2.2861410579 0.0017799231
| 19> H -2.7250127414 0.5488305508 -0.0023665411
| 20> H -1.5867087388 1.5694055342 0.8814948809
| 21> H -1.5845467644 1.5692110487 -0.8834569242
| 22> *
| 23>
| 24>                          ****END OF INPUT****

CARTESIAN COORDINATES (ANGSTROEM)
---------------------------------
  C      1.712527   -0.944091   -0.001098
  C      0.712907    0.177710    0.000224
  C      1.134666    1.441326    0.001072
  C     -0.712904   -0.177723    0.000167
  C     -1.134692   -1.441328    0.001031
  C     -1.712508    0.944099   -0.001083
  H      1.586095   -1.569968    0.880866
  H      2.725024   -0.548857   -0.001211
  H      1.585289   -1.568563   -0.883954
  H      0.470186    2.286122    0.001598
  H      2.186050    1.676594    0.000570
  H     -2.186083   -1.676562    0.000948
  H     -0.470252   -2.286141    0.001780
  H     -2.725013    0.548831   -0.002367
  H     -1.586709    1.569406    0.881495
  H     -1.584547    1.569211   -0.883457

 Total Charge           Charge          ....    0
 Multiplicity           Mult            ....    1
 Number of Electrons    NEL             ....   46
 Basis Dimension        Dim             ....  164

ORBITAL ENERGIES
----------------

  NO   OCC          E(Eh)            E(eV)
   0   2.0000     -10.044561      -273.3264
   1   2.0000     -10.044349      -273.3206
   2   2.0000     -10.023773      -272.7607
   3   2.0000     -10.023755      -272.7602
   4   2.0000     -10.020392      -272.6687
   5   2.0000     -10.020391      -272.6687
   6   2.0000      -0.800601       -21.7855
   7   2.0000      -0.726721       -19.7751
   8   2.0000      -0.669909       -18.2291
   9   2.0000      -0.638032       -17.3617
  10   2.0000      -0.563758       -15.3406
  11   2.0000      -0.470079       -12.7915
  12   2.0000      -0.452184       -12.3045
  13   2.0000      -0.420805       -11.4507
  14   2.0000      -0.398985       -10.8569
  15   2.0000      -0.377971       -10.2851
  16   2.0000      -0.373033       -10.1507
  17   2.0000      -0.358405        -9.7527
  18   2.0000      -0.346393        -9.4258
  19   2.0000      -0.327164        -8.9026
  20   2.0000      -0.299983        -8.1630
  21   2.0000      -0.267623        -7.2824
  22   2.0000      -0.214429        -5.8349
  23   0.0000      -0.053911        -1.4670
  24   0.0000       0.053990         1.4691
  25   0.0000       0.098303         2.6750
  26   0.0000       0.108818         2.9611
  27   0.0000       0.115284         3.1370

MULLIKEN ATOMIC CHARGES
-----------------------
   0 C :   -0.581923
   1 C :    0.141232
   2 C :   -0.323532
   3 C :    0.141229
   4 C :   -0.323525
   5 C :   -0.581930
   6 H :    0.166976
   7 H :    0.146934
   8 H :    0.167137
   9 H :    0.144061
  10 H :    0.139117
  11 H :    0.139115
  12 H :    0.144060
  13 H :    0.146936
  14 H :    0.167036
  15 H :    0.167076
Sum of atomic charges:   -0.0000000

LOEWDIN ATOMIC CHARGES
----------------------
   0 C :   -0.393839
   1 C :   -0.110529
   2 C :   -0.300660
   3 C :   -0.110536
   4 C :   -0.300659
   5 C :   -0.393852
   6 H :    0.163721
   7 H :    0.159031
   8 H :    0.163747
   9 H :    0.160425
  10 H :    0.158104
  11 H :    0.158104
  12 H :    0.160423
  13 H :    0.159033
  14 H :    0.163746
  15 H :    0.163742

  Mayer bond orders larger than 0.100000
B(  0-C ,  1-C ) :   0.8356 B(  0-C ,  6-H ) :   0.9817 B(  0-C ,  7-H ) :   0.9826
B(  0-C ,  8-H ) :   0.9818 B(  1-C ,  2-C ) :   1.7815 B(  1-C ,  3-C ) :   1.0638
B(  2-C ,  4-C ) :   0.1272 B(  2-C ,  9-H ) :   0.9657 B(  2-C , 10-H ) :   0.9642
B(  3-C ,  4-C ) :   1.7815 B(  3-C ,  5-C ) :   0.8356 B(  4-C , 11-H ) :   0.9642
B(  4-C , 12-H ) :   0.9657 B(  5-C , 13-H ) :   0.9826 B(  5-C , 14-H ) :   0.9816
B(  5-C , 15-H ) :   0.9818

Dispersion correction           -0.004214810
FINAL SINGLE POINT ENERGY      -234.542496094528

DIPOLE MOMENT
-------------

Method             : SCF
Type of density    : Electron Density
Multiplicity       :   1
Irrep              :   0
Energy             :  -234.5446114575489958 Eh
Relativity type    :
Basis              : AO
                                X                 Y                 Z
Electronic contribution:     -0.000014285      -0.000101763       0.002934697
Nuclear contribution   :      0.000038395       0.000068031      -0.003500018
                        -----------------------------------------
Total Dipole Moment    :      0.000024109      -0.000033732      -0.000565320
                        -----------------------------------------
Magnitude (a.u.)       :      0.000566839
Magnitude (Debye)      :      0.001440790

Rotational constants in cm-1:             0.165346             0.110968             0.068087
Rotational constants in MHz :          4956.960607          3326.735563          2041.208257

                             ****ORCA TERMINATED NORMALLY****
TOTAL RUN TIME: 0 days 0 hours 0 minutes 15 seconds 812 msec
