                         Program Version 6.0.1  -  RELEASE   -
|  1> ! pbe def2-sv(p) def2/J RI DEFGRID1 loosescf d4 GCP(DFT/SV(P)) printgap
|  2> %output
|  3>     printlevel normal
|  4> end
|  5> * xyz 0 1
|  6> C -2.4804629784 -0.4784751199 -0.2250000421
|  7> C -1.0602640924 -0.1773006637 0.2613498747
|  8> H -0.9982815117 -0.3945665653 1.3387128689
|  9> C -0.6440183187 1.2941174027 0.0231005229
| 10> H -1.2898253076 1.7536920198 -0.7336072259
| 11> C 0.8087809092 1.3172964892 -0.5082075303
| 12> H 1.2048994691 2.3343960459 -0.4090897211
| 13> C 1.6565860903 0.3341749134 0.3297559869
| 14> H 2.6948005527 0.3421666718 -0.0286665668
| 15> C 1.1066310999 -1.1019992119 0.1272144918
| 16> H 1.0818141853 -1.6036924769 1.1069178732
| 17> O -0.1915728053 -1.0656024795 -0.4325767394
| 18> O 1.9069786165 -1.8674982961 -0.6909341588
| 19> O 1.596738003 0.6454744973 1.7061096579
| 20> O 0.8790004727 0.9961826877 -1.8723311087
| 21> O -0.794719248 2.0709945769 1.1758194434
| 22> O -2.8729602359 -1.7818641295 0.0971395244
| 23> H -2.5240334834 -0.3140970206 -1.3120611987
| 24> H -3.1817723662 0.1964231025 0.2685462628
| 25> H 1.9226829628 -1.479360879 -1.5764157445
| 26> H 2.1544857152 1.4121357719 1.8805577592
| 27> H 0.3442896313 0.2001219638 -2.0109454556
| 28> H -0.2299055119 1.6903049398 1.8656873955
| 29> H -2.186610501 -2.3818164264 -0.2212524373
| 30> *
| 31>
| 32>                          ****END OF INPUT****

CARTESIAN COORDINATES (ANGSTROEM)
---------------------------------
  C     -2.480463   -0.478475   -0.225000
  C     -1.060264   -0.177301    0.261350
  H     -0.998282   -0.394567    1.338713
  C     -0.644018    1.294117    0.023101
  H     -1.289825    1.753692   -0.733607
  C      0.808781    1.317296   -0.508208
  H      1.204899    2.334396   -0.409090
  C      1.656586    0.334175    0.329756
  H      2.694801    0.342167   -0.028667
  C      1.106631   -1.101999    0.127214
  H      1.081814   -1.603692    1.106918
  O     -0.191573   -1.065602   -0.432577
  O      1.906979   -1.867498   -0.690934
  O      1.596738    0.645474    1.706110
  O      0.879000    0.996183   -1.872331
  O     -0.794719    2.070995    1.175819
  O     -2.872960   -1.781864    0.097140
  H     -2.524033   -0.314097   -1.312061
  H     -3.181772    0.196423    0.268546
  H      1.922683   -1.479361   -1.576416
  H      2.154486    1.412136    1.880558
  H      0.344290    0.200122   -2.010945
  H     -0.229906    1.690305    1.865687
  H     -2.186611   -2.381816   -0.221252

 Total Charge           Charge          ....    0
 Multiplicity           Mult            ....    1
 Number of Electrons    NEL             ....   96
 Basis Dimension        Dim             ....  192

ORBITAL ENERGIES
----------------

  NO   OCC          E(Eh)            E(eV)
   0   2.0000     -18.794398      -511.4216
   1   2.0000     -18.789510      -511.2886
   2   2.0000     -18.772044      -510.8133
   3   2.0000     -18.763196      -510.5725
   4   2.0000     -18.749910      -510.2110
   5   2.0000     -18.746158      -510.1089
   6   2.0000     -10.001448      -272.1532
   7   2.0000      -9.956242      -270.9231
   8   2.0000      -9.950921      -270.7783
   9   2.0000      -9.949524      -270.7403
  10   2.0000      -9.947048      -270.6729
  11   2.0000      -9.938363      -270.4366
  12   2.0000      -1.004226       -27.3264
  13   2.0000      -0.963070       -26.2065
  14   2.0000      -0.945594       -25.7309
  15   2.0000      -0.937229       -25.5033
  16   2.0000      -0.928566       -25.2676
  17   2.0000      -0.920441       -25.0465
  18   2.0000      -0.703975       -19.1561
  19   2.0000      -0.698681       -19.0121
  20   2.0000      -0.627903       -17.0861
  21   2.0000      -0.594549       -16.1785
  22   2.0000      -0.579186       -15.7605
  23   2.0000      -0.544827       -14.8255
  24   2.0000      -0.513480       -13.9725
  25   2.0000      -0.504403       -13.7255
  26   2.0000      -0.491326       -13.3697
  27   2.0000      -0.467217       -12.7136
  28   2.0000      -0.463591       -12.6150
  29   2.0000      -0.436629       -11.8813
  30   2.0000      -0.418041       -11.3755
  31   2.0000      -0.409599       -11.1458
  32   2.0000      -0.386725       -10.5233
  33   2.0000      -0.381499       -10.3811
  34   2.0000      -0.367055        -9.9881
  35   2.0000      -0.361112        -9.8264
  36   2.0000      -0.344283        -9.3684
  37   2.0000      -0.330756        -9.0003
  38   2.0000      -0.321304        -8.7431
  39   2.0000      -0.306998        -8.3538
  40   2.0000      -0.288093        -7.8394
  41   2.0000      -0.284783        -7.7493
  42   2.0000      -0.270553        -7.3621
  43   2.0000      -0.262096        -7.1320
  44   2.0000      -0.259914        -7.0726
  45   2.0000      -0.227943        -6.2027
  46   2.0000      -0.215845        -5.8734
  47   2.0000      -0.205125        -5.5817
  48   0.0000      -0.006224        -0.1694
  49   0.0000       0.014245         0.3876
  50   0.0000       0.034672         0.9435
  51   0.0000       0.052385         1.4255
  52   0.0000       0.060973         1.6592

MULLIKEN ATOMIC CHARGES
-----------------------
   0 C :    0.079250
   1 C :   -0.033303
   2 H :    0.069346
   3 C :    0.081013
   4 H :    0.074331
   5 C :    0.022340
   6 H :    0.071473
   7 C :   -0.007911
   8 H :    0.085704
   9 C :    0.187682
  10 H :    0.082460
  11 O :   -0.322281
  12 O :   -0.371682
  13 O :   -0.415050
  14 O :   -0.420512
  15 O :   -0.425734
  16 O :   -0.429501
  17 H :    0.069486
  18 H :    0.103265
  19 H :    0.294403
  20 H :    0.314592
  21 H :    0.300470
  22 H :    0.290700
  23 H :    0.299456
Sum of atomic charges:    0.0000000

LOEWDIN ATOMIC CHARGES
----------------------
   0 C :   -0.124752
   1 C :   -0.083505
   2 H :    0.111870
   3 C :   -0.074905
   4 H :    0.117668
   5 C :   -0.085495
   6 H :    0.113442
   7 C :   -0.098620
   8 H :    0.112579
   9 C :    0.004782
  10 H :    0.109854
  11 O :   -0.162918
  12 O :   -0.281948
  13 O :   -0.309323
  14 O :   -0.314790
  15 O :   -0.314964
  16 O :   -0.331755
  17 H :    0.097361
  18 H :    0.124850
  19 H :    0.279733
  20 H :    0.295541
  21 H :    0.267376
  22 H :    0.266832
  23 H :    0.281087

  Mayer bond orders larger than 0.100000
B(  0-C ,  1-C ) :   1.0594 B(  0-C , 16-O ) :   1.0813 B(  0-C , 17-H ) :   0.9022
B(  0-C , 18-H ) :   0.9192 B(  1-C ,  2-H ) :   0.8641 B(  1-C ,  3-C ) :   0.9673
B(  1-C , 11-O ) :   0.9758 B(  3-C ,  4-H ) :   0.8935 B(  3-C ,  5-C ) :   0.9772
B(  3-C , 15-O ) :   1.0456 B(  5-C ,  6-H ) :   0.8922 B(  5-C ,  7-C ) :   0.9698
B(  5-C , 14-O ) :   1.0396 B(  7-C ,  8-H ) :   0.9044 B(  7-C ,  9-C ) :   0.9497
B(  7-C , 13-O ) :   1.0303 B(  9-C , 10-H ) :   0.8959 B(  9-C , 11-O ) :   0.9941
B(  9-C , 12-O ) :   1.1573 B( 12-O , 19-H ) :   0.8350 B( 13-O , 20-H ) :   0.8381
B( 14-O , 21-H ) :   0.8173 B( 15-O , 22-H ) :   0.8195 B( 16-O , 23-H ) :   0.8429

Dispersion correction           -0.025091728
FINAL SINGLE POINT ENERGY      -685.693885562883

DIPOLE MOMENT
-------------

Method             : SCF
Type of density    : Electron Density
Multiplicity       :   1
Irrep              :   0
Energy             :  -685.8274052878260818 Eh
Relativity type    :
Basis              : AO
                                X                 Y                 Z
Electronic contribution:      1.845321956      -1.321965775      -0.157278537
Nuclear contribution   :     -0.937410405       1.632303222       0.157724170
                        -----------------------------------------
Total Dipole Moment    :      0.907911551       0.310337447       0.000445633
                        -----------------------------------------
Magnitude (a.u.)       :      0.959485755
Magnitude (Debye)      :      2.438818973

Rotational constants in cm-1:             0.037788             0.027964             0.022097
Rotational constants in MHz :          1132.860011           838.354248           662.453722

                             ****ORCA TERMINATED NORMALLY****
TOTAL RUN TIME: 0 days 0 hours 0 minutes 8 seconds 879 msec
