                         Program Version 6.0.0  -   RELEASE  -
|  1> ! r2SCAN-3c DEF2-TZVP FREQ
|  2> * xyzfile 0 1 censo.xyz
|  3>
|  4>                          ****END OF INPUT****

CARTESIAN COORDINATES (ANGSTROEM)
---------------------------------
  C     -0.000041    0.830270    0.000020
  Cl    -1.489456   -0.181710    0.000068
  Cl     1.489428   -0.181645   -0.000091
  H      0.000000    1.433602    0.906214
  H     -0.000101    1.433657   -0.906137

 Total Charge           Charge          ....    0
 Multiplicity           Mult            ....    1
 Number of Electrons    NEL             ....   42
 Basis Dimension        Dim             ....  117

ORBITAL ENERGIES
----------------

  NO   OCC          E(Eh)            E(eV)
   0   2.0000    -101.198976     -2753.7641
   1   2.0000    -101.198972     -2753.7640
   2   2.0000     -10.164161      -276.5809
   3   2.0000      -9.374930      -255.1048
   4   2.0000      -9.374926      -255.1047
   5   2.0000      -7.120051      -193.7464
   6   2.0000      -7.120049      -193.7464
   7   2.0000      -7.109803      -193.4676
   8   2.0000      -7.109802      -193.4675
   9   2.0000      -7.109323      -193.4545
  10   2.0000      -7.109321      -193.4545
  11   2.0000      -0.861824       -23.4514
  12   2.0000      -0.787344       -21.4247
  13   2.0000      -0.637232       -17.3400
  14   2.0000      -0.466503       -12.6942
  15   2.0000      -0.434244       -11.8164
  16   2.0000      -0.421216       -11.4619
  17   2.0000      -0.306779        -8.3479
  18   2.0000      -0.301428        -8.2023
  19   2.0000      -0.285799        -7.7770
  20   2.0000      -0.281554        -7.6615
  21   0.0000      -0.044177        -1.2021
  22   0.0000      -0.005401        -0.1470
  23   0.0000       0.055007         1.4968
  24   0.0000       0.087069         2.3693
  25   0.0000       0.170818         4.6482

MULLIKEN ATOMIC CHARGES
-----------------------
   0 C :   -0.058530
   1 Cl:   -0.120180
   2 Cl:   -0.120185
   3 H :    0.149448
   4 H :    0.149448
Sum of atomic charges:    0.0000000

LOEWDIN ATOMIC CHARGES
----------------------
   0 C :   -0.731052
   1 Cl:    0.257129
   2 Cl:    0.257120
   3 H :    0.108401
   4 H :    0.108401

  Mayer bond orders larger than 0.100000
B(  0-C ,  1-Cl) :   1.0851 B(  0-C ,  2-Cl) :   1.0851 B(  0-C ,  3-H ) :   0.9542
B(  0-C ,  4-H ) :   0.9542

Dispersion correction           -0.000955079
FINAL SINGLE POINT ENERGY      -959.653862382692

DIPOLE MOMENT
-------------

Method             : SCF
Type of density    : Electron Density
Multiplicity       :   1
Irrep              :   0
Energy             :  -959.6595665813491678 Eh
Relativity type    :
Basis              : AO
                                X                 Y                 Z
Electronic contribution:      0.000044103      -2.485389493      -0.000078169
Nuclear contribution   :     -0.000072455       3.177507919       0.000099902
                        -----------------------------------------
Total Dipole Moment    :     -0.000028352       0.692118426       0.000021733
                        -----------------------------------------
Magnitude (a.u.)       :      0.692118427
Magnitude (Debye)      :      1.759225233

VIBRATIONAL FREQUENCIES
-----------------------

Scaling factor for frequencies =  1.000000000  (already applied!)

     0:       0.00 cm**-1
     1:       0.00 cm**-1
     2:       0.00 cm**-1
     3:       0.00 cm**-1
     4:       0.00 cm**-1
     5:       0.00 cm**-1
     6:     279.39 cm**-1
     7:     656.28 cm**-1
     8:     680.28 cm**-1
     9:     908.75 cm**-1
    10:    1164.76 cm**-1
    11:    1279.48 cm**-1
    12:    1451.35 cm**-1
    13:    3089.46 cm**-1
    14:    3180.16 cm**-1

IR SPECTRUM
-----------

 Mode   freq       eps      Int      T**2         TX        TY        TZ
       cm**-1   L/(mol*cm) km/mol    a.u.
----------------------------------------------------------------------------
  6:    279.39   0.000065    0.33  0.000073  (-0.000001 -0.008533 -0.000000)
  7:    656.28   0.032929  166.41  0.015658  ( 0.125131 -0.000006 -0.000007)
  8:    680.28   0.002891   14.61  0.001326  ( 0.000029  0.036419  0.000001)
  9:    908.75   0.000305    1.54  0.000105  (-0.000001  0.000000 -0.010233)
 10:   1164.76   0.000000    0.00  0.000000  (-0.000000  0.000002 -0.000000)
 11:   1279.48   0.007958   40.22  0.001941  ( 0.044057  0.000001 -0.000002)
 12:   1451.35   0.000001    0.00  0.000000  (-0.000001  0.000332 -0.000000)
 13:   3089.46   0.001253    6.33  0.000127  ( 0.000000 -0.011249 -0.000000)
 14:   3180.16   0.000000    0.00  0.000000  (-0.000000  0.000000  0.000156)

--------------------------
THERMOCHEMISTRY AT 298.15K
--------------------------

Temperature         ...   298.15 K
Pressure            ...     1.00 atm
Total Mass          ...    84.93 AMU
Quasi RRHO          ...     True
Cut-Off Frequency   ...     1.00 cm^-1

Throughout the following assumptions are being made:
  (1) The electronic state is orbitally nondegenerate
  (2) There are no thermally accessible electronically excited states
  (3) Hindered rotations indicated by low frequency modes are not
      treated as such but are treated as vibrations and this may
      cause some error
  (4) All equations used are the standard statistical mechanics
      equations for an ideal gas
  (5) All vibrations are strictly harmonic

freq.     279.39  E(vib)   ...       0.28
freq.     656.28  E(vib)   ...       0.08
freq.     680.28  E(vib)   ...       0.08
freq.     908.75  E(vib)   ...       0.03
freq.    1164.76  E(vib)   ...       0.01
freq.    1279.48  E(vib)   ...       0.01
freq.    1451.35  E(vib)   ...       0.00
freq.    3089.46  E(vib)   ...       0.00
freq.    3180.16  E(vib)   ...       0.00

------------
INNER ENERGY
------------

The inner energy is: U= E(el) + E(ZPE) + E(vib) + E(rot) + E(trans)
    E(el)   - is the total energy from the electronic structure calculation
              = E(kin-el) + E(nuc-el) + E(el-el) + E(nuc-nuc)
    E(ZPE)  - the the zero temperature vibrational energy from the frequency calculation
    E(vib)  - the the finite temperature correction to E(ZPE) due to population
              of excited vibrational states
    E(rot)  - is the rotational thermal energy
    E(trans)- is the translational thermal energy

Summary of contributions to the inner energy U:
Electronic energy                ...   -959.65386238 Eh
Zero point energy                ...      0.02890972 Eh      18.14 kcal/mol
Thermal vibrational correction   ...      0.00078869 Eh       0.49 kcal/mol
Thermal rotational correction    ...      0.00141627 Eh       0.89 kcal/mol
Thermal translational correction ...      0.00141627 Eh       0.89 kcal/mol
-----------------------------------------------------------------------
Total thermal energy                   -959.62133144 Eh

Summary of corrections to the electronic energy:
(perhaps to be used in another calculation)
Total thermal correction                  0.00362123 Eh       2.27 kcal/mol
Non-thermal (ZPE) correction              0.02890972 Eh      18.14 kcal/mol
-----------------------------------------------------------------------
Total correction                          0.03253095 Eh      20.41 kcal/mol

--------
ENTHALPY
--------

The enthalpy is H = U + kB*T
                kB is Boltzmann's constant
Total thermal energy              ...   -959.62133144 Eh
Thermal Enthalpy correction       ...      0.00094421 Eh       0.59 kcal/mol
-----------------------------------------------------------------------
Total Enthalpy                    ...   -959.62038723 Eh

Note: Rotational entropy computed according to Herzberg
Infrared and Raman Spectra, Chapter V,1, Van Nostrand Reinhold, 1945
Point Group:  C2v, Symmetry Number:   2
Rotational constants in cm-1:     1.026712     0.106052     0.097973

Vibrational entropy computed according to the QRRHO of S. Grimme
Chem.Eur.J. 2012 18 9955 using a reference frequency of 100.0 cm-1

-------
ENTROPY
-------

The entropy contributions are T*S = T*(S(el)+S(vib)+S(rot)+S(trans))
     S(el)   - electronic entropy
     S(vib)  - vibrational entropy
     S(rot)  - rotational entropy
     S(trans)- translational entropy
The entropies will be listed as multiplied by the temperature to get
units of energy

Electronic entropy                ...      0.00000000 Eh      0.00 kcal/mol
Vibrational entropy               ...      0.00117006 Eh      0.73 kcal/mol
Rotational entropy                ...      0.01099989 Eh      6.90 kcal/mol
Translational entropy             ...      0.01863995 Eh     11.70 kcal/mol
-----------------------------------------------------------------------
Final entropy term                ...      0.03080990 Eh     19.33 kcal/mol

In case the symmetry of your molecule has not been determined correctly
or in case you have a reason to use a different symmetry number we print
out the resulting rotational entropy values for sn=1,12:

 non-linear molecules -----------------------------------
|  sn= 1 | S(rot)=       0.01165435 Eh      7.31 kcal/mol|
|  sn= 2 | S(rot)=       0.01099989 Eh      6.90 kcal/mol|
|  sn= 3 | S(rot)=       0.01061706 Eh      6.66 kcal/mol|
|  sn= 4 | S(rot)=       0.01034544 Eh      6.49 kcal/mol|
|  sn= 5 | S(rot)=       0.01013475 Eh      6.36 kcal/mol|
|  sn= 6 | S(rot)=       0.00996260 Eh      6.25 kcal/mol|
|  sn= 7 | S(rot)=       0.00981706 Eh      6.16 kcal/mol|
|  sn= 8 | S(rot)=       0.00969098 Eh      6.08 kcal/mol|
|  sn= 9 | S(rot)=       0.00957977 Eh      6.01 kcal/mol|
|  sn=10 | S(rot)=       0.00948029 Eh      5.95 kcal/mol|
|  sn=11 | S(rot)=       0.00939030 Eh      5.89 kcal/mol|
|  sn=12 | S(rot)=       0.00930815 Eh      5.84 kcal/mol|
 linear molecules ---------------------------------------
|  Dinfh | S(rot)=       0.00751920 Eh      4.72 kcal/mol|
|  Cinfv | S(rot)=       0.00817365 Eh      5.13 kcal/mol|
 --------------------------------------------------------

-------------------
GIBBS FREE ENERGY
-------------------

The Gibbs free energy is G = H - T*S

Total enthalpy                    ...   -959.62038723 Eh
Total entropy correction          ...     -0.03080990 Eh    -19.33 kcal/mol
-----------------------------------------------------------------------
Final Gibbs free energy         ...   -959.65119713 Eh

For completeness - the Gibbs free energy minus the electronic energy
G-E(el)                           ...      0.00266525 Eh      1.67 kcal/mol

                             ****ORCA TERMINATED NORMALLY****
TOTAL RUN TIME: 0 days 0 hours 0 minutes 46 seconds 809 msec
