                         Program Version 6.0.1  -  RELEASE   -
|  1> ! pbe def2-sv(p) def2/J RI DEFGRID1 loosescf d4 GCP(DFT/SV(P)) printgap
|  2> %output
|  3>     printlevel normal
|  4> end
|  5> * xyz 0 1
|  6> C -2.3815358978 -1.1447368998 -0.3550260724
|  7> C -1.0603460244 -0.6241974216 0.2328456537
|  8> H -1.1189805738 -0.630324347 1.3365101333
|  9> C -0.7907225836 0.8335690534 -0.2056789504
| 10> H -0.8865571482 0.9108487502 -1.2993335249
| 11> C 0.632920615 1.2678128996 0.1660766289
| 12> H 0.6774791693 1.4178382254 1.2559022919
| 13> C 1.6501605271 0.1871674908 -0.2240623991
| 14> H 1.6972990185 0.1314963197 -1.3256395768
| 15> C 1.2151054904 -1.1880508531 0.3098329961
| 16> H 1.2137131643 -1.1636508458 1.4133795701
| 17> O -0.0546095926 -1.5187883952 -0.1897223457
| 18> O 2.1120646168 -2.1772046485 -0.0648898364
| 19> O 2.9044877504 0.548581854 0.3000458688
| 20> O 0.9167033917 2.4637465071 -0.5060332846
| 21> O -1.6861921373 1.6961060855 0.4399758662
| 22> O -3.4976947992 -0.4068309854 0.0734873782
| 23> H -2.4793692338 -2.2073938891 -0.1022826437
| 24> H -2.353150512 -1.0502880163 -1.4426134895
| 25> H 1.8813040294 -2.4616989008 -0.9581643522
| 26> H 3.4660095722 -0.2375436587 0.2941891118
| 27> H 1.8220788235 2.7121264534 -0.2828311903
| 28> H -2.5822908901 1.4620483471 0.1545550025
| 29> H -3.6141876111 -0.5312625393 1.0229972112
| 30> *
| 31>
| 32>                          ****END OF INPUT****

CARTESIAN COORDINATES (ANGSTROEM)
---------------------------------
  C     -2.381536   -1.144737   -0.355026
  C     -1.060346   -0.624197    0.232846
  H     -1.118981   -0.630324    1.336510
  C     -0.790723    0.833569   -0.205679
  H     -0.886557    0.910849   -1.299334
  C      0.632921    1.267813    0.166077
  H      0.677479    1.417838    1.255902
  C      1.650161    0.187167   -0.224062
  H      1.697299    0.131496   -1.325640
  C      1.215105   -1.188051    0.309833
  H      1.213713   -1.163651    1.413380
  O     -0.054610   -1.518788   -0.189722
  O      2.112065   -2.177205   -0.064890
  O      2.904488    0.548582    0.300046
  O      0.916703    2.463747   -0.506033
  O     -1.686192    1.696106    0.439976
  O     -3.497695   -0.406831    0.073487
  H     -2.479369   -2.207394   -0.102283
  H     -2.353151   -1.050288   -1.442613
  H      1.881304   -2.461699   -0.958164
  H      3.466010   -0.237544    0.294189
  H      1.822079    2.712126   -0.282831
  H     -2.582291    1.462048    0.154555
  H     -3.614188   -0.531263    1.022997

 Total Charge           Charge          ....    0
 Multiplicity           Mult            ....    1
 Number of Electrons    NEL             ....   96
 Basis Dimension        Dim             ....  192

ORBITAL ENERGIES
----------------

  NO   OCC          E(Eh)            E(eV)
   0   2.0000     -18.785340      -511.1751
   1   2.0000     -18.779146      -511.0065
   2   2.0000     -18.773404      -510.8503
   3   2.0000     -18.756325      -510.3856
   4   2.0000     -18.740389      -509.9519
   5   2.0000     -18.740147      -509.9453
   6   2.0000      -9.993702      -271.9425
   7   2.0000      -9.952226      -270.8138
   8   2.0000      -9.948618      -270.7157
   9   2.0000      -9.940759      -270.5018
  10   2.0000      -9.937902      -270.4241
  11   2.0000      -9.937654      -270.4173
  12   2.0000      -0.997654       -27.1475
  13   2.0000      -0.956151       -26.0182
  14   2.0000      -0.940947       -25.6045
  15   2.0000      -0.933949       -25.4140
  16   2.0000      -0.920974       -25.0610
  17   2.0000      -0.910251       -24.7692
  18   2.0000      -0.703347       -19.1390
  19   2.0000      -0.695857       -18.9352
  20   2.0000      -0.623702       -16.9718
  21   2.0000      -0.585351       -15.9282
  22   2.0000      -0.572694       -15.5838
  23   2.0000      -0.532818       -14.4987
  24   2.0000      -0.504760       -13.7352
  25   2.0000      -0.486884       -13.2488
  26   2.0000      -0.480987       -13.0883
  27   2.0000      -0.472748       -12.8641
  28   2.0000      -0.457095       -12.4382
  29   2.0000      -0.444330       -12.0908
  30   2.0000      -0.424904       -11.5622
  31   2.0000      -0.396894       -10.8000
  32   2.0000      -0.394645       -10.7388
  33   2.0000      -0.365908        -9.9569
  34   2.0000      -0.358474        -9.7546
  35   2.0000      -0.353894        -9.6299
  36   2.0000      -0.339439        -9.2366
  37   2.0000      -0.328967        -8.9516
  38   2.0000      -0.309086        -8.4107
  39   2.0000      -0.297402        -8.0927
  40   2.0000      -0.294770        -8.0211
  41   2.0000      -0.284442        -7.7401
  42   2.0000      -0.259160        -7.0521
  43   2.0000      -0.247229        -6.7274
  44   2.0000      -0.240596        -6.5470
  45   2.0000      -0.220548        -6.0014
  46   2.0000      -0.216045        -5.8789
  47   2.0000      -0.200284        -5.4500
  48   0.0000       0.008017         0.2182
  49   0.0000       0.019511         0.5309
  50   0.0000       0.036562         0.9949
  51   0.0000       0.040737         1.1085
  52   0.0000       0.061079         1.6620

MULLIKEN ATOMIC CHARGES
-----------------------
   0 C :    0.076313
   1 C :   -0.032209
   2 H :    0.050446
   3 C :    0.056044
   4 H :    0.055988
   5 C :    0.106810
   6 H :    0.055280
   7 C :    0.029964
   8 H :    0.040240
   9 C :    0.168420
  10 H :    0.055800
  11 O :   -0.303901
  12 O :   -0.387451
  13 O :   -0.422861
  14 O :   -0.404947
  15 O :   -0.414568
  16 O :   -0.431983
  17 H :    0.095913
  18 H :    0.090471
  19 H :    0.305372
  20 H :    0.304239
  21 H :    0.305947
  22 H :    0.293971
  23 H :    0.306704
Sum of atomic charges:    0.0000000

LOEWDIN ATOMIC CHARGES
----------------------
   0 C :   -0.124948
   1 C :   -0.081154
   2 H :    0.098709
   3 C :   -0.063883
   4 H :    0.106343
   5 C :   -0.063318
   6 H :    0.107268
   7 C :   -0.101113
   8 H :    0.098480
   9 C :   -0.005565
  10 H :    0.097501
  11 O :   -0.147400
  12 O :   -0.296842
  13 O :   -0.325859
  14 O :   -0.312527
  15 O :   -0.318285
  16 O :   -0.316741
  17 H :    0.106203
  18 H :    0.119126
  19 H :    0.290520
  20 H :    0.284860
  21 H :    0.288411
  22 H :    0.270806
  23 H :    0.289409

  Mayer bond orders larger than 0.100000
B(  0-C ,  1-C ) :   1.0351 B(  0-C , 16-O ) :   1.0443 B(  0-C , 17-H ) :   0.9242
B(  0-C , 18-H ) :   0.9132 B(  1-C ,  2-H ) :   0.8743 B(  1-C ,  3-C ) :   0.9867
B(  1-C , 11-O ) :   0.9787 B(  3-C ,  4-H ) :   0.8748 B(  3-C ,  5-C ) :   1.0138
B(  3-C , 15-O ) :   1.1045 B(  5-C ,  6-H ) :   0.8730 B(  5-C ,  7-C ) :   1.0032
B(  5-C , 14-O ) :   1.1028 B(  7-C ,  8-H ) :   0.8576 B(  7-C ,  9-C ) :   0.9823
B(  7-C , 13-O ) :   1.0738 B(  9-C , 10-H ) :   0.8799 B(  9-C , 11-O ) :   1.0157
B(  9-C , 12-O ) :   1.1060 B( 12-O , 19-H ) :   0.8430 B( 13-O , 20-H ) :   0.8318
B( 14-O , 21-H ) :   0.8430 B( 15-O , 22-H ) :   0.8114 B( 16-O , 22-H ) :   0.1039
B( 16-O , 23-H ) :   0.8415

Dispersion correction           -0.023810881
FINAL SINGLE POINT ENERGY      -685.699200396097

DIPOLE MOMENT
-------------

Method             : SCF
Type of density    : Electron Density
Multiplicity       :   1
Irrep              :   0
Energy             :  -685.8307883227573711 Eh
Relativity type    :
Basis              : AO
                                X                 Y                 Z
Electronic contribution:      2.047754786       0.468303700      -0.015403385
Nuclear contribution   :     -2.125594551      -1.536948758       0.063329583
                        -----------------------------------------
Total Dipole Moment    :     -0.077839765      -1.068645058       0.047926199
                        -----------------------------------------
Magnitude (a.u.)       :      1.072547533
Magnitude (Debye)      :      2.726199173

Rotational constants in cm-1:             0.044044             0.024420             0.016551
Rotational constants in MHz :          1320.394249           732.100156           496.187295

                             ****ORCA TERMINATED NORMALLY****
TOTAL RUN TIME: 0 days 0 hours 0 minutes 11 seconds 70 msec
