                         Program Version 6.0.1  -  RELEASE   -
|  1> ! pbe def2-sv(p) def2/J RI DEFGRID1 loosescf d4 GCP(DFT/SV(P)) printgap
|  2> %output
|  3>     printlevel normal
|  4> end
|  5> * xyz 0 1
|  6> C -2.21204741 -1.2078649401 0.076015733
|  7> C -0.8469550169 -0.5815064823 0.4015958334
|  8> H -0.800099855 -0.344810689 1.4768765885
|  9> C -0.6261385998 0.7219907122 -0.3858148355
| 10> H -0.7342026846 0.5038575074 -1.4623233798
| 11> C 0.792994697 1.291351766 -0.1512636737
| 12> H 0.6850611223 2.1563302554 0.5137347732
| 13> C 1.716218514 0.2415653186 0.5047108938
| 14> H 2.7539483882 0.5045316888 0.2472892837
| 15> C 1.4276806448 -1.1316638943 -0.1108484707
| 16> H 2.0799648937 -1.8912460685 0.3497119673
| 17> O 0.1203867044 -1.5761562444 0.1004321383
| 18> O 1.6991965863 -1.0279012304 -1.486275381
| 19> O 1.5578698865 0.1342866986 1.895741018
| 20> O 1.3733811573 1.7816502191 -1.3249813755
| 21> O -1.5478803868 1.7014674597 0.0143177084
| 22> O -3.2931085936 -0.4209627605 0.5147553582
| 23> H -2.2412763622 -2.2121994509 0.5148415598
| 24> H -2.3266942752 -1.3008675445 -1.0067325979
| 25> H 1.4248953883 -1.8509798666 -1.9081645523
| 26> H 1.7356852107 0.9953774526 2.2918744927
| 27> H 1.568575163 1.0253306249 -1.8967185951
| 28> H -2.4391594013 1.3224161371 -0.0431218655
| 29> H -3.2756855716 -0.3730969299 1.4779191642
| 30> *
| 31>
| 32>                          ****END OF INPUT****

CARTESIAN COORDINATES (ANGSTROEM)
---------------------------------
  C     -2.212047   -1.207865    0.076016
  C     -0.846955   -0.581506    0.401596
  H     -0.800100   -0.344811    1.476877
  C     -0.626139    0.721991   -0.385815
  H     -0.734203    0.503858   -1.462323
  C      0.792995    1.291352   -0.151264
  H      0.685061    2.156330    0.513735
  C      1.716219    0.241565    0.504711
  H      2.753948    0.504532    0.247289
  C      1.427681   -1.131664   -0.110848
  H      2.079965   -1.891246    0.349712
  O      0.120387   -1.576156    0.100432
  O      1.699197   -1.027901   -1.486275
  O      1.557870    0.134287    1.895741
  O      1.373381    1.781650   -1.324981
  O     -1.547880    1.701467    0.014318
  O     -3.293109   -0.420963    0.514755
  H     -2.241276   -2.212199    0.514842
  H     -2.326694   -1.300868   -1.006733
  H      1.424895   -1.850980   -1.908165
  H      1.735685    0.995377    2.291874
  H      1.568575    1.025331   -1.896719
  H     -2.439159    1.322416   -0.043122
  H     -3.275686   -0.373097    1.477919

 Total Charge           Charge          ....    0
 Multiplicity           Mult            ....    1
 Number of Electrons    NEL             ....   96
 Basis Dimension        Dim             ....  192

ORBITAL ENERGIES
----------------

  NO   OCC          E(Eh)            E(eV)
   0   2.0000     -18.777862      -510.9716
   1   2.0000     -18.776337      -510.9301
   2   2.0000     -18.775272      -510.9011
   3   2.0000     -18.763742      -510.5874
   4   2.0000     -18.735995      -509.8324
   5   2.0000     -18.732636      -509.7409
   6   2.0000      -9.993969      -271.9497
   7   2.0000      -9.945508      -270.6310
   8   2.0000      -9.942835      -270.5583
   9   2.0000      -9.941579      -270.5241
  10   2.0000      -9.934601      -270.3342
  11   2.0000      -9.934484      -270.3311
  12   2.0000      -0.991902       -26.9910
  13   2.0000      -0.951837       -25.9008
  14   2.0000      -0.941658       -25.6238
  15   2.0000      -0.924394       -25.1540
  16   2.0000      -0.922501       -25.1025
  17   2.0000      -0.907778       -24.7019
  18   2.0000      -0.700835       -19.0707
  19   2.0000      -0.691785       -18.8244
  20   2.0000      -0.628150       -17.0928
  21   2.0000      -0.579449       -15.7676
  22   2.0000      -0.574416       -15.6306
  23   2.0000      -0.526332       -14.3222
  24   2.0000      -0.506935       -13.7944
  25   2.0000      -0.491404       -13.3718
  26   2.0000      -0.471639       -12.8340
  27   2.0000      -0.461253       -12.5513
  28   2.0000      -0.455804       -12.4031
  29   2.0000      -0.434504       -11.8235
  30   2.0000      -0.416363       -11.3298
  31   2.0000      -0.402100       -10.9417
  32   2.0000      -0.381414       -10.3788
  33   2.0000      -0.365325        -9.9410
  34   2.0000      -0.360481        -9.8092
  35   2.0000      -0.358880        -9.7656
  36   2.0000      -0.345399        -9.3988
  37   2.0000      -0.322983        -8.7888
  38   2.0000      -0.311062        -8.4644
  39   2.0000      -0.298143        -8.1129
  40   2.0000      -0.291503        -7.9322
  41   2.0000      -0.271944        -7.4000
  42   2.0000      -0.250750        -6.8232
  43   2.0000      -0.242975        -6.6117
  44   2.0000      -0.238542        -6.4911
  45   2.0000      -0.229120        -6.2347
  46   2.0000      -0.205081        -5.5805
  47   2.0000      -0.200215        -5.4481
  48   0.0000       0.012039         0.3276
  49   0.0000       0.013301         0.3619
  50   0.0000       0.026605         0.7239
  51   0.0000       0.053537         1.4568
  52   0.0000       0.076216         2.0739

MULLIKEN ATOMIC CHARGES
-----------------------
   0 C :    0.068537
   1 C :    0.011925
   2 H :    0.055068
   3 C :    0.048932
   4 H :    0.034279
   5 C :    0.120909
   6 H :    0.057298
   7 C :   -0.023325
   8 H :    0.082015
   9 C :    0.193791
  10 H :    0.071796
  11 O :   -0.312634
  12 O :   -0.411198
  13 O :   -0.408179
  14 O :   -0.425874
  15 O :   -0.425121
  16 O :   -0.432367
  17 H :    0.094216
  18 H :    0.083067
  19 H :    0.306322
  20 H :    0.309448
  21 H :    0.301100
  22 H :    0.293521
  23 H :    0.306473
Sum of atomic charges:   -0.0000000

LOEWDIN ATOMIC CHARGES
----------------------
   0 C :   -0.129131
   1 C :   -0.085614
   2 H :    0.103125
   3 C :   -0.070878
   4 H :    0.097619
   5 C :   -0.066798
   6 H :    0.116884
   7 C :   -0.092931
   8 H :    0.111390
   9 C :    0.008512
  10 H :    0.100819
  11 O :   -0.139172
  12 O :   -0.316948
  13 O :   -0.309382
  14 O :   -0.314186
  15 O :   -0.325292
  16 O :   -0.318015
  17 H :    0.106538
  18 H :    0.114580
  19 H :    0.288171
  20 H :    0.291370
  21 H :    0.271480
  22 H :    0.268377
  23 H :    0.289481

  Mayer bond orders larger than 0.100000
B(  0-C ,  1-C ) :   1.0177 B(  0-C , 16-O ) :   1.0335 B(  0-C , 17-H ) :   0.9213
B(  0-C , 18-H ) :   0.9141 B(  1-C ,  2-H ) :   0.8605 B(  1-C ,  3-C ) :   1.0614
B(  1-C , 11-O ) :   0.9666 B(  3-C ,  4-H ) :   0.8582 B(  3-C ,  5-C ) :   0.9868
B(  3-C , 15-O ) :   1.0885 B(  5-C ,  6-H ) :   0.8639 B(  5-C ,  7-C ) :   0.9952
B(  5-C , 14-O ) :   1.0558 B(  7-C ,  8-H ) :   0.8900 B(  7-C ,  9-C ) :   1.0234
B(  7-C , 13-O ) :   1.0330 B(  9-C , 10-H ) :   0.8966 B(  9-C , 11-O ) :   1.0805
B(  9-C , 12-O ) :   1.0864 B( 12-O , 19-H ) :   0.8393 B( 13-O , 20-H ) :   0.8467
B( 14-O , 21-H ) :   0.8249 B( 15-O , 22-H ) :   0.8052 B( 16-O , 22-H ) :   0.1138
B( 16-O , 23-H ) :   0.8420

Dispersion correction           -0.024933978
FINAL SINGLE POINT ENERGY      -685.694641252138

DIPOLE MOMENT
-------------

Method             : SCF
Type of density    : Electron Density
Multiplicity       :   1
Irrep              :   0
Energy             :  -685.8274315717474110 Eh
Relativity type    :
Basis              : AO
                                X                 Y                 Z
Electronic contribution:      1.485021697       0.402529742      -0.099908344
Nuclear contribution   :     -1.473313237      -1.365978170       0.516622602
                        -----------------------------------------
Total Dipole Moment    :      0.011708460      -0.963448429       0.416714257
                        -----------------------------------------
Magnitude (a.u.)       :      1.049771754
Magnitude (Debye)      :      2.668307744

Rotational constants in cm-1:             0.043499             0.025171             0.021949
Rotational constants in MHz :          1304.077290           754.622020           658.007742

                             ****ORCA TERMINATED NORMALLY****
TOTAL RUN TIME: 0 days 0 hours 16 minutes 54 seconds 923 msec
