                         Program Version 6.0.1  -  RELEASE   -
|  1> ! r2scan-3c def2/J RI DEFGRID2 scfconv6 printgap
|  2> %output
|  3>     printlevel normal
|  4> end
|  5> * xyz 0 1
|  6> C -1.3909874414 0.6428475023 -0.4670179419
|  7> C -1.4884886096 -0.7735974208 0.0919987875
|  8> C -0.0352059652 -1.2394787992 0.0871703709
|  9> C 0.7863435533 0.0121651825 0.4608140321
| 10> C -0.1505898806 1.2117107992 0.223489117
| 11> O 1.9373595368 0.1704131038 -0.3423571002
| 12> H -2.2821962719 1.2367916928 -0.2707816475
| 13> H -1.2326530889 0.6005380602 -1.5451206498
| 14> H -1.8692924034 -0.7457869266 1.1145057823
| 15> H -2.1343327487 -1.4201155408 -0.5005915412
| 16> H 0.1432524521 -2.0724421119 0.7669236868
| 17> H 0.2477839406 -1.5458159412 -0.922098235
| 18> H 1.0899965712 -0.0317076747 1.5183293297
| 19> H -0.4200475466 1.6687898618 1.1750646107
| 20> H 0.3624071333 1.9536477424 -0.3848818314
| 21> H 2.4991083162 -0.6049713909 -0.2412643715
| 22> *
| 23>
| 24>                          ****END OF INPUT****

CARTESIAN COORDINATES (ANGSTROEM)
---------------------------------
  C     -1.390987    0.642848   -0.467018
  C     -1.488489   -0.773597    0.091999
  C     -0.035206   -1.239479    0.087170
  C      0.786344    0.012165    0.460814
  C     -0.150590    1.211711    0.223489
  O      1.937360    0.170413   -0.342357
  H     -2.282196    1.236792   -0.270782
  H     -1.232653    0.600538   -1.545121
  H     -1.869292   -0.745787    1.114506
  H     -2.134333   -1.420116   -0.500592
  H      0.143252   -2.072442    0.766924
  H      0.247784   -1.545816   -0.922098
  H      1.089997   -0.031708    1.518329
  H     -0.420048    1.668790    1.175065
  H      0.362407    1.953648   -0.384882
  H      2.499108   -0.604971   -0.241264

 Total Charge           Charge          ....    0
 Multiplicity           Mult            ....    1
 Number of Electrons    NEL             ....   48
 Basis Dimension        Dim             ....  169

ORBITAL ENERGIES
----------------

  NO   OCC          E(Eh)            E(eV)
   0   2.0000     -18.942622      -515.4550
   1   2.0000     -10.075723      -274.1744
   2   2.0000     -10.024468      -272.7796
   3   2.0000     -10.021668      -272.7035
   4   2.0000     -10.021285      -272.6930
   5   2.0000     -10.018337      -272.6128
   6   2.0000      -0.983151       -26.7529
   7   2.0000      -0.795844       -21.6560
   8   2.0000      -0.678085       -18.4516
   9   2.0000      -0.662911       -18.0387
  10   2.0000      -0.543542       -14.7905
  11   2.0000      -0.528239       -14.3741
  12   2.0000      -0.486085       -13.2270
  13   2.0000      -0.451961       -12.2985
  14   2.0000      -0.415641       -11.3102
  15   2.0000      -0.387852       -10.5540
  16   2.0000      -0.370108       -10.0712
  17   2.0000      -0.338482        -9.2106
  18   2.0000      -0.311072        -8.4647
  19   2.0000      -0.307624        -8.3709
  20   2.0000      -0.303113        -8.2481
  21   2.0000      -0.294405        -8.0112
  22   2.0000      -0.278214        -7.5706
  23   2.0000      -0.228156        -6.2084
  24   0.0000       0.062067         1.6889
  25   0.0000       0.088760         2.4153
  26   0.0000       0.101623         2.7653
  27   0.0000       0.129134         3.5139
  28   0.0000       0.139888         3.8066

MULLIKEN ATOMIC CHARGES
-----------------------
   0 C :   -0.284611
   1 C :   -0.275488
   2 C :   -0.371140
   3 C :    0.048854
   4 C :   -0.345255
   5 O :   -0.429450
   6 H :    0.149258
   7 H :    0.155791
   8 H :    0.150154
   9 H :    0.151040
  10 H :    0.149689
  11 H :    0.164652
  12 H :    0.137310
  13 H :    0.148023
  14 H :    0.168670
  15 H :    0.282503
Sum of atomic charges:    0.0000000

LOEWDIN ATOMIC CHARGES
----------------------
   0 C :   -0.300782
   1 C :   -0.299521
   2 C :   -0.291349
   3 C :    0.065714
   4 C :   -0.271597
   5 O :   -0.617756
   6 H :    0.155706
   7 H :    0.157891
   8 H :    0.155114
   9 H :    0.156543
  10 H :    0.156566
  11 H :    0.169563
  12 H :    0.161161
  13 H :    0.159579
  14 H :    0.178258
  15 H :    0.264910

  Mayer bond orders larger than 0.100000
B(  0-C ,  1-C ) :   0.8955 B(  0-C ,  4-C ) :   0.9242 B(  0-C ,  6-H ) :   0.9539
B(  0-C ,  7-H ) :   0.9892 B(  1-C ,  2-C ) :   0.9144 B(  1-C ,  8-H ) :   0.9864
B(  1-C ,  9-H ) :   0.9566 B(  2-C ,  3-C ) :   0.9341 B(  2-C , 10-H ) :   0.9525
B(  2-C , 11-H ) :   0.9990 B(  3-C ,  4-C ) :   0.9666 B(  3-C ,  5-O ) :   0.9147
B(  3-C , 12-H ) :   0.9602 B(  4-C , 13-H ) :   0.9739 B(  4-C , 14-H ) :   0.9653
B(  5-O , 15-H ) :   0.9041

Dispersion correction           -0.003952410
FINAL SINGLE POINT ENERGY      -271.697124359358

DIPOLE MOMENT
-------------

Method             : SCF
Type of density    : Electron Density
Multiplicity       :   1
Irrep              :   0
Energy             :  -271.7007979634153116 Eh
Relativity type    :
Basis              : AO
                                X                 Y                 Z
Electronic contribution:      3.186102361       0.436556247      -0.369662270
Nuclear contribution   :     -3.344881712      -0.899117089       0.661099218
                        -----------------------------------------
Total Dipole Moment    :     -0.158779351      -0.462560842       0.291436948
                        -----------------------------------------
Magnitude (a.u.)       :      0.569305638
Magnitude (Debye)      :      1.447059932

Rotational constants in cm-1:             0.201278             0.106883             0.081184
Rotational constants in MHz :          6034.167523          3204.268648          2433.834011

                             ****ORCA TERMINATED NORMALLY****
TOTAL RUN TIME: 0 days 0 hours 0 minutes 21 seconds 950 msec
