                         Program Version 6.0.1  -  RELEASE   -
|  1> ! pbe def2-sv(p) def2/J RI DEFGRID1 loosescf d4 GCP(DFT/SV(P)) printgap
|  2> %output
|  3>     printlevel normal
|  4> end
|  5> * xyz 0 1
|  6> C -1.9927962752 -0.610631183 -0.7247235089
|  7> C -1.1946442351 -0.0882029586 0.4915140008
|  8> H -1.869472568 -0.037541452 1.3539331514
|  9> C -0.6335054532 1.3254046012 0.2620204563
| 10> H -1.3766656143 1.8970373606 -0.3228659589
| 11> C 0.6979607878 1.3045827686 -0.5202846421
| 12> H 1.1651932867 2.3007430813 -0.4345720814
| 13> C 1.6698298748 0.2838805521 0.1091601869
| 14> H 2.5618372076 0.2071195153 -0.5209303408
| 15> C 0.9921078275 -1.0964654255 0.1852192195
| 16> H 1.6099128725 -1.7715362774 0.7915020021
| 17> O -0.2102056323 -1.0145640158 0.917485004
| 18> O 0.8450885287 -1.6928667739 -1.0592719583
| 19> O 2.0947945508 0.7122528942 1.369019303
| 20> O 0.5138090737 0.9685240487 -1.8785720256
| 21> O -0.4640556023 1.9082751977 1.5330326421
| 22> O -2.3177275873 -1.9597691844 -0.5731622484
| 23> H -1.4276279997 -0.451990274 -1.6545329671
| 24> H -2.9368583319 -0.0638935545 -0.7939514156
| 25> H 0.6516083583 -1.012273742 -1.7212961109
| 26> H 1.3287907289 0.6985009879 1.9644359902
| 27> H 0.0199960002 1.6664043505 -2.3235909151
| 28> H -0.0579822646 2.7794327733 1.4479362289
| 29> H -1.5035715163 -2.4273079212 -0.3349383674
| 30> *
| 31>
| 32>                          ****END OF INPUT****

CARTESIAN COORDINATES (ANGSTROEM)
---------------------------------
  C     -1.992796   -0.610631   -0.724724
  C     -1.194644   -0.088203    0.491514
  H     -1.869473   -0.037541    1.353933
  C     -0.633505    1.325405    0.262020
  H     -1.376666    1.897037   -0.322866
  C      0.697961    1.304583   -0.520285
  H      1.165193    2.300743   -0.434572
  C      1.669830    0.283881    0.109160
  H      2.561837    0.207120   -0.520930
  C      0.992108   -1.096465    0.185219
  H      1.609913   -1.771536    0.791502
  O     -0.210206   -1.014564    0.917485
  O      0.845089   -1.692867   -1.059272
  O      2.094795    0.712253    1.369019
  O      0.513809    0.968524   -1.878572
  O     -0.464056    1.908275    1.533033
  O     -2.317728   -1.959769   -0.573162
  H     -1.427628   -0.451990   -1.654533
  H     -2.936858   -0.063894   -0.793951
  H      0.651608   -1.012274   -1.721296
  H      1.328791    0.698501    1.964436
  H      0.019996    1.666404   -2.323591
  H     -0.057982    2.779433    1.447936
  H     -1.503572   -2.427308   -0.334938

 Total Charge           Charge          ....    0
 Multiplicity           Mult            ....    1
 Number of Electrons    NEL             ....   96
 Basis Dimension        Dim             ....  192

ORBITAL ENERGIES
----------------

  NO   OCC          E(Eh)            E(eV)
   0   2.0000     -18.797493      -511.5058
   1   2.0000     -18.780085      -511.0321
   2   2.0000     -18.771827      -510.8074
   3   2.0000     -18.759409      -510.4695
   4   2.0000     -18.753789      -510.3165
   5   2.0000     -18.732333      -509.7327
   6   2.0000      -9.984791      -271.7000
   7   2.0000      -9.968098      -271.2457
   8   2.0000      -9.966053      -271.1901
   9   2.0000      -9.951320      -270.7892
  10   2.0000      -9.949210      -270.7318
  11   2.0000      -9.930220      -270.2150
  12   2.0000      -0.990203       -26.9448
  13   2.0000      -0.967494       -26.3268
  14   2.0000      -0.956433       -26.0259
  15   2.0000      -0.932596       -25.3772
  16   2.0000      -0.920958       -25.0605
  17   2.0000      -0.906698       -24.6725
  18   2.0000      -0.717643       -19.5281
  19   2.0000      -0.694760       -18.9054
  20   2.0000      -0.618196       -16.8220
  21   2.0000      -0.608087       -16.5469
  22   2.0000      -0.579427       -15.7670
  23   2.0000      -0.527843       -14.3633
  24   2.0000      -0.522297       -14.2124
  25   2.0000      -0.501022       -13.6335
  26   2.0000      -0.491315       -13.3694
  27   2.0000      -0.461708       -12.5637
  28   2.0000      -0.453794       -12.3484
  29   2.0000      -0.431768       -11.7490
  30   2.0000      -0.424497       -11.5511
  31   2.0000      -0.403042       -10.9673
  32   2.0000      -0.399775       -10.8784
  33   2.0000      -0.382830       -10.4173
  34   2.0000      -0.374105       -10.1799
  35   2.0000      -0.360624        -9.8131
  36   2.0000      -0.349493        -9.5102
  37   2.0000      -0.328821        -8.9477
  38   2.0000      -0.307155        -8.3581
  39   2.0000      -0.297390        -8.0924
  40   2.0000      -0.290706        -7.9105
  41   2.0000      -0.272598        -7.4178
  42   2.0000      -0.270307        -7.3554
  43   2.0000      -0.262431        -7.1411
  44   2.0000      -0.240972        -6.5572
  45   2.0000      -0.232949        -6.3389
  46   2.0000      -0.214867        -5.8468
  47   2.0000      -0.203742        -5.5441
  48   0.0000      -0.012069        -0.3284
  49   0.0000       0.004045         0.1101
  50   0.0000       0.050773         1.3816
  51   0.0000       0.053829         1.4648
  52   0.0000       0.063391         1.7250

MULLIKEN ATOMIC CHARGES
-----------------------
   0 C :    0.034312
   1 C :    0.041457
   2 H :    0.089066
   3 C :    0.023060
   4 H :    0.059047
   5 C :    0.002383
   6 H :    0.069936
   7 C :    0.041643
   8 H :    0.092524
   9 C :    0.185594
  10 H :    0.080822
  11 O :   -0.317714
  12 O :   -0.406543
  13 O :   -0.422454
  14 O :   -0.411537
  15 O :   -0.403865
  16 O :   -0.433663
  17 H :    0.051276
  18 H :    0.080936
  19 H :    0.321040
  20 H :    0.301989
  21 H :    0.316078
  22 H :    0.303388
  23 H :    0.301225
Sum of atomic charges:   -0.0000000

LOEWDIN ATOMIC CHARGES
----------------------
   0 C :   -0.147018
   1 C :   -0.069291
   2 H :    0.127166
   3 C :   -0.079729
   4 H :    0.099066
   5 C :   -0.083161
   6 H :    0.101590
   7 C :   -0.082059
   8 H :    0.124115
   9 C :   -0.011471
  10 H :    0.113116
  11 O :   -0.141106
  12 O :   -0.304489
  13 O :   -0.309079
  14 O :   -0.305632
  15 O :   -0.302535
  16 O :   -0.332219
  17 H :    0.084123
  18 H :    0.113398
  19 H :    0.276241
  20 H :    0.273090
  21 H :    0.295130
  22 H :    0.285886
  23 H :    0.274869

  Mayer bond orders larger than 0.100000
B(  0-C ,  1-C ) :   1.0383 B(  0-C , 16-O ) :   1.0954 B(  0-C , 17-H ) :   0.8927
B(  0-C , 18-H ) :   0.9121 B(  1-C ,  2-H ) :   0.8910 B(  1-C ,  3-C ) :   0.9825
B(  1-C , 11-O ) :   1.0236 B(  3-C ,  4-H ) :   0.8945 B(  3-C ,  5-C ) :   0.9639
B(  3-C , 15-O ) :   1.0456 B(  5-C ,  6-H ) :   0.9037 B(  5-C ,  7-C ) :   0.9682
B(  5-C , 14-O ) :   1.0250 B(  7-C ,  8-H ) :   0.8929 B(  7-C ,  9-C ) :   1.0078
B(  7-C , 13-O ) :   1.0672 B(  9-C , 10-H ) :   0.9082 B(  9-C , 11-O ) :   1.0145
B(  9-C , 12-O ) :   1.1234 B( 12-O , 19-H ) :   0.8009 B( 13-O , 20-H ) :   0.8146
B( 14-O , 21-H ) :   0.8329 B( 15-O , 22-H ) :   0.8369 B( 16-O , 23-H ) :   0.8272

Dispersion correction           -0.026424042
FINAL SINGLE POINT ENERGY      -685.698432856353

DIPOLE MOMENT
-------------

Method             : SCF
Type of density    : Electron Density
Multiplicity       :   1
Irrep              :   0
Energy             :  -685.8328946214166990 Eh
Relativity type    :
Basis              : AO
                                X                 Y                 Z
Electronic contribution:      1.745870413      -1.618800842       1.769751618
Nuclear contribution   :     -1.714552010       3.534715400      -2.386703679
                        -----------------------------------------
Total Dipole Moment    :      0.031318403       1.915914559      -0.616952061
                        -----------------------------------------
Magnitude (a.u.)       :      2.013042296
Magnitude (Debye)      :      5.116746881

Rotational constants in cm-1:             0.041904             0.028983             0.025640
Rotational constants in MHz :          1256.237394           868.894307           768.671492

                             ****ORCA TERMINATED NORMALLY****
TOTAL RUN TIME: 0 days 0 hours 0 minutes 48 seconds 826 msec
