                         Program Version 6.0.1  -  RELEASE   -
|  1> ! r2scan-3c def2/J RI DEFGRID2 scfconv6 printgap
|  2> %output
|  3>     printlevel normal
|  4> end
|  5> * xyz 0 1
|  6> C -1.9557499064 0.1065364877 -0.0274902035
|  7> C -0.5746274762 -0.5309118409 0.025626999
|  8> C 0.5336752298 0.5152070434 -0.0255725147
|  9> O 1.7786806518 -0.1490115598 0.0285960247
| 10> H -2.7261933059 -0.6591041616 0.00994016
| 11> H -2.0994704998 0.7805888354 0.8142658137
| 12> H -2.0804231084 0.6753529389 -0.9464563996
| 13> H -0.441162223 -1.214205023 -0.8142002521
| 14> H -0.4598393559 -1.1081632614 0.944107374
| 15> H 0.4500343969 1.0990995918 -0.9544777895
| 16> H 0.4303895531 1.2071407578 0.8237765768
| 17> H 2.4863096835 0.5022708941 -0.0039411112
| 18> *
| 19>
| 20>                          ****END OF INPUT****

CARTESIAN COORDINATES (ANGSTROEM)
---------------------------------
  C     -1.955750    0.106536   -0.027490
  C     -0.574627   -0.530912    0.025627
  C      0.533675    0.515207   -0.025573
  O      1.778681   -0.149012    0.028596
  H     -2.726193   -0.659104    0.009940
  H     -2.099470    0.780589    0.814266
  H     -2.080423    0.675353   -0.946456
  H     -0.441162   -1.214205   -0.814200
  H     -0.459839   -1.108163    0.944107
  H      0.450034    1.099100   -0.954478
  H      0.430390    1.207141    0.823777
  H      2.486310    0.502271   -0.003941

 Total Charge           Charge          ....    0
 Multiplicity           Mult            ....    1
 Number of Electrons    NEL             ....   34
 Basis Dimension        Dim             ....  121

ORBITAL ENERGIES
----------------

  NO   OCC          E(Eh)            E(eV)
   0   2.0000     -18.945055      -515.5211
   1   2.0000     -10.072970      -274.0994
   2   2.0000     -10.023654      -272.7575
   3   2.0000     -10.019997      -272.6580
   4   2.0000      -0.983045       -26.7500
   5   2.0000      -0.745818       -20.2947
   6   2.0000      -0.639666       -17.4062
   7   2.0000      -0.551890       -15.0177
   8   2.0000      -0.478500       -13.0206
   9   2.0000      -0.443012       -12.0550
  10   2.0000      -0.400196       -10.8899
  11   2.0000      -0.375179       -10.2091
  12   2.0000      -0.335553        -9.1309
  13   2.0000      -0.331149        -9.0110
  14   2.0000      -0.305525        -8.3138
  15   2.0000      -0.288888        -7.8610
  16   2.0000      -0.234330        -6.3764
  17   0.0000       0.061599         1.6762
  18   0.0000       0.100542         2.7359
  19   0.0000       0.134952         3.6722
  20   0.0000       0.143955         3.9172
  21   0.0000       0.147700         4.0191

MULLIKEN ATOMIC CHARGES
-----------------------
   0 C :   -0.465341
   1 C :   -0.216328
   2 C :   -0.125886
   3 O :   -0.423668
   4 H :    0.147641
   5 H :    0.139966
   6 H :    0.139911
   7 H :    0.142545
   8 H :    0.142552
   9 H :    0.115404
  10 H :    0.115382
  11 H :    0.287821
Sum of atomic charges:   -0.0000000

LOEWDIN ATOMIC CHARGES
----------------------
   0 C :   -0.423354
   1 C :   -0.289221
   2 C :    0.003995
   3 O :   -0.628251
   4 H :    0.152960
   5 H :    0.150047
   6 H :    0.150043
   7 H :    0.158393
   8 H :    0.158415
   9 H :    0.151930
  10 H :    0.151929
  11 H :    0.263116

  Mayer bond orders larger than 0.100000
B(  0-C ,  1-C ) :   0.8988 B(  0-C ,  4-H ) :   0.9691 B(  0-C ,  5-H ) :   0.9783
B(  0-C ,  6-H ) :   0.9783 B(  1-C ,  2-C ) :   0.9519 B(  1-C ,  7-H ) :   0.9645
B(  1-C ,  8-H ) :   0.9645 B(  2-C ,  3-O ) :   0.9241 B(  2-C ,  9-H ) :   0.9654
B(  2-C , 10-H ) :   0.9654 B(  3-O , 11-H ) :   0.9041

Dispersion correction           -0.002052171
FINAL SINGLE POINT ENERGY      -194.298656052554

DIPOLE MOMENT
-------------

Method             : SCF
Type of density    : Electron Density
Multiplicity       :   1
Irrep              :   0
Energy             :  -194.3035244595087931 Eh
Relativity type    :
Basis              : AO
                                X                 Y                 Z
Electronic contribution:      4.053631490      -0.651531860       0.083829529
Nuclear contribution   :     -4.139386175       1.201434825      -0.118708986
                        -----------------------------------------
Total Dipole Moment    :     -0.085754685       0.549902966      -0.034879457
                        -----------------------------------------
Magnitude (a.u.)       :      0.557641206
Magnitude (Debye)      :      1.417411301

Rotational constants in cm-1:             0.889023             0.127648             0.119084
Rotational constants in MHz :         26652.229347          3826.788140          3570.036652

                             ****ORCA TERMINATED NORMALLY****
TOTAL RUN TIME: 0 days 0 hours 0 minutes 6 seconds 950 msec
