                         Program Version 6.0.1  -  RELEASE   -
|  1> ! r2scan-3c def2/J RI DEFGRID2 scfconv6 printgap
|  2> %output
|  3>     printlevel normal
|  4> end
|  5> * xyz 0 1
|  6> C -2.398318498 0.0001415099 0.5364799822
|  7> C -1.3772987769 5.81024e-05 -0.5999276081
|  8> C -0.4953812094 1.2522472274 -0.5808283762
|  9> C 0.4953478819 1.2521660394 0.5805485588
| 10> C 1.3772078481 -4.96037e-05 0.6000424553
| 11> C 0.4952920665 -1.2522501678 0.5804958455
| 12> C -0.4954925802 -1.252235151 -0.5808121617
| 13> C 2.3985978468 -8.39332e-05 -0.5360359012
| 14> H -3.0331772733 -0.8811596256 0.4715425727
| 15> H -1.9148876044 -0.0007202628 1.5086506988
| 16> H -3.0318526642 0.882443946 0.4724269141
| 17> H -1.9410657254 3.91813e-05 -1.5416406641
| 18> H 0.0532375375 1.3118260842 -1.5228339665
| 19> H -1.1265733029 2.1417601055 -0.5154727421
| 20> H 1.1266957143 2.14154142 0.5150740692
| 21> H -0.0532988968 1.3120152973 1.5225127816
| 22> H 1.9406569542 -0.0001189692 1.5419696668
| 23> H 1.1266139277 -2.1416226183 0.5149022239
| 24> H -0.0532382758 -1.3121340127 1.5225321267
| 25> H 0.0530737053 -1.3117960517 -1.5228452083
| 26> H -1.1267591142 -2.141690225 -0.515462981
| 27> H 3.0330343128 -0.8817287261 -0.4710114718
| 28> H 3.0325312165 0.8819364236 -0.471447327
| 29> H 1.9155507672 -0.0005207445 -1.5084533216
| 30> *
| 31>
| 32>                          ****END OF INPUT****

CARTESIAN COORDINATES (ANGSTROEM)
---------------------------------
  C     -2.398318    0.000142    0.536480
  C     -1.377299    0.000058   -0.599928
  C     -0.495381    1.252247   -0.580828
  C      0.495348    1.252166    0.580549
  C      1.377208   -0.000050    0.600042
  C      0.495292   -1.252250    0.580496
  C     -0.495493   -1.252235   -0.580812
  C      2.398598   -0.000084   -0.536036
  H     -3.033177   -0.881160    0.471543
  H     -1.914888   -0.000720    1.508651
  H     -3.031853    0.882444    0.472427
  H     -1.941066    0.000039   -1.541641
  H      0.053238    1.311826   -1.522834
  H     -1.126573    2.141760   -0.515473
  H      1.126696    2.141541    0.515074
  H     -0.053299    1.312015    1.522513
  H      1.940657   -0.000119    1.541970
  H      1.126614   -2.141623    0.514902
  H     -0.053238   -1.312134    1.522532
  H      0.053074   -1.311796   -1.522845
  H     -1.126759   -2.141690   -0.515463
  H      3.033034   -0.881729   -0.471011
  H      3.032531    0.881936   -0.471447
  H      1.915551   -0.000521   -1.508453

 Total Charge           Charge          ....    0
 Multiplicity           Mult            ....    1
 Number of Electrons    NEL             ....   64
 Basis Dimension        Dim             ....  232

ORBITAL ENERGIES
----------------

  NO   OCC          E(Eh)            E(eV)
   0   2.0000     -10.026943      -272.8470
   1   2.0000     -10.026935      -272.8468
   2   2.0000     -10.017427      -272.5880
   3   2.0000     -10.017422      -272.5879
   4   2.0000     -10.017289      -272.5843
   5   2.0000     -10.017281      -272.5841
   6   2.0000     -10.011627      -272.4302
   7   2.0000     -10.011613      -272.4298
   8   2.0000      -0.803579       -21.8665
   9   2.0000      -0.739512       -20.1231
  10   2.0000      -0.704003       -19.1569
  11   2.0000      -0.661917       -18.0117
  12   2.0000      -0.626872       -17.0580
  13   2.0000      -0.571646       -15.5553
  14   2.0000      -0.542382       -14.7590
  15   2.0000      -0.476125       -12.9560
  16   2.0000      -0.452957       -12.3256
  17   2.0000      -0.424251       -11.5445
  18   2.0000      -0.420661       -11.4468
  19   2.0000      -0.387205       -10.5364
  20   2.0000      -0.385970       -10.5028
  21   2.0000      -0.372365       -10.1326
  22   2.0000      -0.351539        -9.5659
  23   2.0000      -0.339446        -9.2368
  24   2.0000      -0.339257        -9.2316
  25   2.0000      -0.324006        -8.8166
  26   2.0000      -0.312139        -8.4937
  27   2.0000      -0.298720        -8.1286
  28   2.0000      -0.294077        -8.0022
  29   2.0000      -0.271783        -7.3956
  30   2.0000      -0.257144        -6.9972
  31   2.0000      -0.256510        -6.9800
  32   0.0000       0.072475         1.9721
  33   0.0000       0.098764         2.6875
  34   0.0000       0.115254         3.1362
  35   0.0000       0.120401         3.2763
  36   0.0000       0.122570         3.3353

MULLIKEN ATOMIC CHARGES
-----------------------
   0 C :   -0.533686
   1 C :    0.045072
   2 C :   -0.359941
   3 C :   -0.359906
   4 C :    0.045082
   5 C :   -0.359956
   6 C :   -0.359888
   7 C :   -0.533677
   8 H :    0.147550
   9 H :    0.154517
  10 H :    0.147543
  11 H :    0.150705
  12 H :    0.156814
  13 H :    0.147268
  14 H :    0.147249
  15 H :    0.156824
  16 H :    0.150704
  17 H :    0.147242
  18 H :    0.156822
  19 H :    0.156811
  20 H :    0.147260
  21 H :    0.147542
  22 H :    0.147540
  23 H :    0.154509
Sum of atomic charges:    0.0000000

LOEWDIN ATOMIC CHARGES
----------------------
   0 C :   -0.416117
   1 C :   -0.234822
   2 C :   -0.297121
   3 C :   -0.297128
   4 C :   -0.234817
   5 C :   -0.297137
   6 C :   -0.297117
   7 C :   -0.416128
   8 H :    0.154138
   9 H :    0.150996
  10 H :    0.154139
  11 H :    0.156696
  12 H :    0.157080
  13 H :    0.157529
  14 H :    0.157521
  15 H :    0.157083
  16 H :    0.156708
  17 H :    0.157525
  18 H :    0.157074
  19 H :    0.157077
  20 H :    0.157536
  21 H :    0.154140
  22 H :    0.154140
  23 H :    0.151005

  Mayer bond orders larger than 0.100000
B(  0-C ,  1-C ) :   0.9070 B(  0-C ,  8-H ) :   0.9732 B(  0-C ,  9-H ) :   0.9830
B(  0-C , 10-H ) :   0.9732 B(  1-C ,  2-C ) :   0.9092 B(  1-C ,  6-C ) :   0.9092
B(  1-C , 11-H ) :   0.9421 B(  2-C ,  3-C ) :   0.8914 B(  2-C , 12-H ) :   0.9864
B(  2-C , 13-H ) :   0.9523 B(  3-C ,  4-C ) :   0.9092 B(  3-C , 14-H ) :   0.9523
B(  3-C , 15-H ) :   0.9864 B(  4-C ,  5-C ) :   0.9092 B(  4-C ,  7-C ) :   0.9071
B(  4-C , 16-H ) :   0.9422 B(  5-C ,  6-C ) :   0.8915 B(  5-C , 17-H ) :   0.9523
B(  5-C , 18-H ) :   0.9864 B(  6-C , 19-H ) :   0.9864 B(  6-C , 20-H ) :   0.9523
B(  7-C , 21-H ) :   0.9732 B(  7-C , 22-H ) :   0.9732 B(  7-C , 23-H ) :   0.9830

Dispersion correction           -0.007757804
FINAL SINGLE POINT ENERGY      -314.391014770914

DIPOLE MOMENT
-------------

Method             : SCF
Type of density    : Electron Density
Multiplicity       :   1
Irrep              :   0
Energy             :  -314.3940623817225060 Eh
Relativity type    :
Basis              : AO
                                X                 Y                 Z
Electronic contribution:     -0.000524164      -0.000096419      -0.000405999
Nuclear contribution   :      0.000507807       0.000066818       0.000415955
                        -----------------------------------------
Total Dipole Moment    :     -0.000016357      -0.000029602       0.000009956
                        -----------------------------------------
Magnitude (a.u.)       :      0.000035255
Magnitude (Debye)      :      0.000089611

Rotational constants in cm-1:             0.107818             0.055235             0.047266
Rotational constants in MHz :          3232.306003          1655.918233          1417.006249

                             ****ORCA TERMINATED NORMALLY****
TOTAL RUN TIME: 0 days 0 hours 0 minutes 17 seconds 833 msec
