                         Program Version 6.0.1  -  RELEASE   -
|  1> ! pbe def2-sv(p) def2/J RI DEFGRID1 loosescf d4 GCP(DFT/SV(P)) printgap
|  2> %output
|  3>     printlevel normal
|  4> end
|  5> * xyz 0 1
|  6> C -2.004011904 -1.152879 -0.1526251234
|  7> C -1.0181864455 -0.4603770877 0.8143650671
|  8> H -1.4788070226 -0.4739199956 1.8093502188
|  9> C -0.756018363 1.0308411245 0.4754487136
| 10> H -1.6592855779 1.4262934694 -0.0053959149
| 11> C 0.4515742258 1.2412689595 -0.4566456425
| 12> H 0.7532308679 2.2959916146 -0.3608736865
| 13> C 1.6322713757 0.3581432667 0.0138591839
| 14> H 2.4771384065 0.4964623237 -0.6689969189
| 15> C 1.1786156846 -1.109607065 0.0206874564
| 16> H 1.9772418935 -1.7548659906 0.41450031
| 17> O 0.1624413002 -1.2272050403 1.0058243208
| 18> O 0.8297312985 -1.5964611176 -1.219437971
| 19> O 2.0318494063 0.7257797863 1.3163897536
| 20> O 0.1830085698 0.977515317 -1.8162600882
| 21> O -0.5939023622 1.7847250622 1.6499644351
| 22> O -2.0165971499 -0.5436212267 -1.4340562672
| 23> H -3.0131412018 -1.0994976003 0.2749629072
| 24> H -1.7026121524 -2.2023166336 -0.2267294763
| 25> H 0.4780066005 -0.8604789325 -1.7553885912
| 26> H 1.6980988585 0.0488565172 1.9244488562
| 27> H -0.7587497612 0.7607816127 -1.9108502101
| 28> H 0.3269121682 1.7017625045 1.9421301442
| 29> H -2.4211808697 -1.1519627495 -2.0602624325
| 30> *
| 31>
| 32>                          ****END OF INPUT****

CARTESIAN COORDINATES (ANGSTROEM)
---------------------------------
  C     -2.004012   -1.152879   -0.152625
  C     -1.018186   -0.460377    0.814365
  H     -1.478807   -0.473920    1.809350
  C     -0.756018    1.030841    0.475449
  H     -1.659286    1.426293   -0.005396
  C      0.451574    1.241269   -0.456646
  H      0.753231    2.295992   -0.360874
  C      1.632271    0.358143    0.013859
  H      2.477138    0.496462   -0.668997
  C      1.178616   -1.109607    0.020687
  H      1.977242   -1.754866    0.414500
  O      0.162441   -1.227205    1.005824
  O      0.829731   -1.596461   -1.219438
  O      2.031849    0.725780    1.316390
  O      0.183009    0.977515   -1.816260
  O     -0.593902    1.784725    1.649964
  O     -2.016597   -0.543621   -1.434056
  H     -3.013141   -1.099498    0.274963
  H     -1.702612   -2.202317   -0.226729
  H      0.478007   -0.860479   -1.755389
  H      1.698099    0.048857    1.924449
  H     -0.758750    0.760782   -1.910850
  H      0.326912    1.701763    1.942130
  H     -2.421181   -1.151963   -2.060262

 Total Charge           Charge          ....    0
 Multiplicity           Mult            ....    1
 Number of Electrons    NEL             ....   96
 Basis Dimension        Dim             ....  192

ORBITAL ENERGIES
----------------

  NO   OCC          E(Eh)            E(eV)
   0   2.0000     -18.789475      -511.2876
   1   2.0000     -18.772339      -510.8213
   2   2.0000     -18.770010      -510.7579
   3   2.0000     -18.765171      -510.6263
   4   2.0000     -18.752009      -510.2681
   5   2.0000     -18.744308      -510.0585
   6   2.0000      -9.987825      -271.7825
   7   2.0000      -9.952823      -270.8301
   8   2.0000      -9.951344      -270.7898
   9   2.0000      -9.951271      -270.7879
  10   2.0000      -9.948817      -270.7211
  11   2.0000      -9.947158      -270.6759
  12   2.0000      -0.988031       -26.8857
  13   2.0000      -0.959375       -26.1059
  14   2.0000      -0.944250       -25.6943
  15   2.0000      -0.940395       -25.5895
  16   2.0000      -0.925607       -25.1870
  17   2.0000      -0.909604       -24.7516
  18   2.0000      -0.708593       -19.2818
  19   2.0000      -0.692133       -18.8339
  20   2.0000      -0.626211       -17.0401
  21   2.0000      -0.603140       -16.4123
  22   2.0000      -0.574386       -15.6298
  23   2.0000      -0.529072       -14.3968
  24   2.0000      -0.513567       -13.9749
  25   2.0000      -0.498177       -13.5561
  26   2.0000      -0.485733       -13.2175
  27   2.0000      -0.460665       -12.5353
  28   2.0000      -0.449426       -12.2295
  29   2.0000      -0.438470       -11.9314
  30   2.0000      -0.421793       -11.4776
  31   2.0000      -0.414979       -11.2922
  32   2.0000      -0.398182       -10.8351
  33   2.0000      -0.379718       -10.3327
  34   2.0000      -0.362189        -9.8557
  35   2.0000      -0.353703        -9.6247
  36   2.0000      -0.348200        -9.4750
  37   2.0000      -0.329645        -8.9701
  38   2.0000      -0.324806        -8.8384
  39   2.0000      -0.297703        -8.1009
  40   2.0000      -0.293007        -7.9731
  41   2.0000      -0.280893        -7.6435
  42   2.0000      -0.266057        -7.2398
  43   2.0000      -0.247041        -6.7223
  44   2.0000      -0.244072        -6.6415
  45   2.0000      -0.235323        -6.4035
  46   2.0000      -0.215853        -5.8737
  47   2.0000      -0.210257        -5.7214
  48   0.0000       0.000493         0.0134
  49   0.0000       0.025898         0.7047
  50   0.0000       0.042245         1.1495
  51   0.0000       0.059549         1.6204
  52   0.0000       0.063725         1.7340

MULLIKEN ATOMIC CHARGES
-----------------------
   0 C :    0.028768
   1 C :    0.037199
   2 H :    0.085598
   3 C :    0.013901
   4 H :    0.086971
   5 C :    0.034826
   6 H :    0.088966
   7 C :    0.029209
   8 H :    0.094466
   9 C :    0.153207
  10 H :    0.077471
  11 O :   -0.322431
  12 O :   -0.394124
  13 O :   -0.419996
  14 O :   -0.428433
  15 O :   -0.420996
  16 O :   -0.456785
  17 H :    0.086534
  18 H :    0.103414
  19 H :    0.286507
  20 H :    0.305309
  21 H :    0.320056
  22 H :    0.289362
  23 H :    0.321000
Sum of atomic charges:   -0.0000000

LOEWDIN ATOMIC CHARGES
----------------------
   0 C :   -0.135043
   1 C :   -0.072878
   2 H :    0.128020
   3 C :   -0.073776
   4 H :    0.119400
   5 C :   -0.074874
   6 H :    0.113977
   7 C :   -0.086764
   8 H :    0.120401
   9 C :   -0.012272
  10 H :    0.106180
  11 O :   -0.155904
  12 O :   -0.304115
  13 O :   -0.309720
  14 O :   -0.318588
  15 O :   -0.318090
  16 O :   -0.334717
  17 H :    0.107158
  18 H :    0.116681
  19 H :    0.264277
  20 H :    0.278017
  21 H :    0.275104
  22 H :    0.268468
  23 H :    0.299057

  Mayer bond orders larger than 0.100000
B(  0-C ,  1-C ) :   1.0536 B(  0-C , 16-O ) :   1.0178 B(  0-C , 17-H ) :   0.9167
B(  0-C , 18-H ) :   0.9151 B(  1-C ,  2-H ) :   0.8939 B(  1-C ,  3-C ) :   0.9721
B(  1-C , 11-O ) :   1.0153 B(  3-C ,  4-H ) :   0.8925 B(  3-C ,  5-C ) :   1.0014
B(  3-C , 15-O ) :   1.0630 B(  5-C ,  6-H ) :   0.9042 B(  5-C ,  7-C ) :   0.9522
B(  5-C , 14-O ) :   1.0422 B(  7-C ,  8-H ) :   0.8992 B(  7-C ,  9-C ) :   1.0174
B(  7-C , 13-O ) :   1.0447 B(  9-C , 10-H ) :   0.9134 B(  9-C , 11-O ) :   0.9769
B(  9-C , 12-O ) :   1.1777 B( 12-O , 19-H ) :   0.7738 B( 13-O , 20-H ) :   0.8123
B( 13-O , 22-H ) :   0.1107 B( 14-O , 19-H ) :   0.1508 B( 14-O , 21-H ) :   0.7826
B( 15-O , 22-H ) :   0.8111 B( 16-O , 21-H ) :   0.1085 B( 16-O , 23-H ) :   0.8377

Dispersion correction           -0.026973666
FINAL SINGLE POINT ENERGY      -685.697079675966

DIPOLE MOMENT
-------------

Method             : SCF
Type of density    : Electron Density
Multiplicity       :   1
Irrep              :   0
Energy             :  -685.8355736083631200 Eh
Relativity type    :
Basis              : AO
                                X                 Y                 Z
Electronic contribution:      2.180764426       0.162824944       0.290709021
Nuclear contribution   :     -3.108840650      -0.760844134      -0.591949631
                        -----------------------------------------
Total Dipole Moment    :     -0.928076225      -0.598019190      -0.301240610
                        -----------------------------------------
Magnitude (a.u.)       :      1.144420524
Magnitude (Debye)      :      2.908885799

Rotational constants in cm-1:             0.040491             0.031858             0.028249
Rotational constants in MHz :          1213.878158           955.079707           846.879114

                             ****ORCA TERMINATED NORMALLY****
TOTAL RUN TIME: 0 days 0 hours 8 minutes 40 seconds 515 msec
