                         Program Version 6.0.0  -   RELEASE  -
|  1> ! r2SCAN-3c DEF2-TZVP FREQ
|  2> * xyzfile 0 1 censo.xyz
|  3>
|  4>                          ****END OF INPUT****

CARTESIAN COORDINATES (ANGSTROEM)
---------------------------------
  C     -1.174808   -1.265384   -0.132539
  C     -0.548151   -0.000010    0.403426
  C     -1.174933    1.265300   -0.132541
  Cl     1.269720    0.000078   -0.050206
  H     -2.225874   -1.286478    0.177779
  H     -1.139723   -1.288767   -1.225630
  H     -0.684289   -2.158353    0.261547
  H     -0.532806   -0.000008    1.495303
  H     -1.139844    1.288688   -1.225632
  H     -0.684506    2.158318    0.261547
  H     -2.226004    1.286287    0.177770

 Total Charge           Charge          ....    0
 Multiplicity           Mult            ....    1
 Number of Electrons    NEL             ....   42
 Basis Dimension        Dim             ....  172

ORBITAL ENERGIES
----------------

  NO   OCC          E(Eh)            E(eV)
   0   2.0000    -101.163116     -2752.7883
   1   2.0000     -10.104687      -274.9625
   2   2.0000     -10.038584      -273.1638
   3   2.0000     -10.038581      -273.1637
   4   2.0000      -9.339019      -254.1276
   5   2.0000      -7.083478      -192.7512
   6   2.0000      -7.074121      -192.4966
   7   2.0000      -7.073975      -192.4926
   8   2.0000      -0.815431       -22.1890
   9   2.0000      -0.721492       -19.6328
  10   2.0000      -0.672309       -18.2945
  11   2.0000      -0.556421       -15.1410
  12   2.0000      -0.448702       -12.2098
  13   2.0000      -0.427027       -11.6200
  14   2.0000      -0.400816       -10.9067
  15   2.0000      -0.372189       -10.1278
  16   2.0000      -0.342058        -9.3079
  17   2.0000      -0.339148        -9.2287
  18   2.0000      -0.326746        -8.8912
  19   2.0000      -0.262503        -7.1431
  20   2.0000      -0.262338        -7.1386
  21   0.0000      -0.011525        -0.3136
  22   0.0000       0.043078         1.1722
  23   0.0000       0.084612         2.3024
  24   0.0000       0.090877         2.4729
  25   0.0000       0.103211         2.8085

MULLIKEN ATOMIC CHARGES
-----------------------
   0 C :   -0.303289
   1 C :    0.056098
   2 C :   -0.303290
   3 Cl:   -0.224931
   4 H :    0.102871
   5 H :    0.111578
   6 H :    0.123524
   7 H :    0.099465
   8 H :    0.111578
   9 H :    0.123524
  10 H :    0.102871
Sum of atomic charges:    0.0000000

LOEWDIN ATOMIC CHARGES
----------------------
   0 C :   -0.309684
   1 C :   -0.473616
   2 C :   -0.309684
   3 Cl:    0.199732
   4 H :    0.127843
   5 H :    0.125282
   6 H :    0.124947
   7 H :    0.137109
   8 H :    0.125282
   9 H :    0.124947
  10 H :    0.127843

  Mayer bond orders larger than 0.100000
B(  0-C ,  1-C ) :   0.9928 B(  0-C ,  4-H ) :   0.9535 B(  0-C ,  5-H ) :   0.9680
B(  0-C ,  6-H ) :   0.9698 B(  1-C ,  2-C ) :   0.9928 B(  1-C ,  3-Cl) :   0.9780
B(  1-C ,  7-H ) :   0.9643 B(  2-C ,  8-H ) :   0.9680 B(  2-C ,  9-H ) :   0.9698
B(  2-C , 10-H ) :   0.9535

Dispersion correction           -0.002318861
FINAL SINGLE POINT ENERGY      -578.688600549641

DIPOLE MOMENT
-------------

Method             : SCF
Type of density    : Electron Density
Multiplicity       :   1
Irrep              :   0
Energy             :  -578.6932145717400999 Eh
Relativity type    :
Basis              : AO
                                X                 Y                 Z
Electronic contribution:      8.951321287       0.000439079       0.167880854
Nuclear contribution   :     -9.903782174      -0.000485385       0.007903799
                        -----------------------------------------
Total Dipole Moment    :     -0.952460887      -0.000046306       0.175784653
                        -----------------------------------------
Magnitude (a.u.)       :      0.968546327
Magnitude (Debye)      :      2.461849116

VIBRATIONAL FREQUENCIES
-----------------------

Scaling factor for frequencies =  1.000000000  (already applied!)

     0:       0.00 cm**-1
     1:       0.00 cm**-1
     2:       0.00 cm**-1
     3:       0.00 cm**-1
     4:       0.00 cm**-1
     5:       0.00 cm**-1
     6:     254.89 cm**-1
     7:     287.23 cm**-1
     8:     320.38 cm**-1
     9:     336.32 cm**-1
    10:     425.95 cm**-1
    11:     556.97 cm**-1
    12:     889.72 cm**-1
    13:     944.08 cm**-1
    14:     948.58 cm**-1
    15:    1070.81 cm**-1
    16:    1149.58 cm**-1
    17:    1183.24 cm**-1
    18:    1263.87 cm**-1
    19:    1354.36 cm**-1
    20:    1396.22 cm**-1
    21:    1410.99 cm**-1
    22:    1469.80 cm**-1
    23:    1476.13 cm**-1
    24:    1483.82 cm**-1
    25:    1499.55 cm**-1
    26:    3008.07 cm**-1
    27:    3012.76 cm**-1
    28:    3074.52 cm**-1
    29:    3083.68 cm**-1
    30:    3094.22 cm**-1
    31:    3112.41 cm**-1
    32:    3118.91 cm**-1

IR SPECTRUM
-----------

 Mode   freq       eps      Int      T**2         TX        TY        TZ
       cm**-1   L/(mol*cm) km/mol    a.u.
----------------------------------------------------------------------------
  6:    254.89   0.000012    0.06  0.000014  ( 0.000000 -0.003766 -0.000000)
  7:    287.23   0.000098    0.49  0.000106  (-0.010299 -0.000001  0.000045)
  8:    320.38   0.000373    1.88  0.000363  ( 0.000003 -0.019049  0.000000)
  9:    336.32   0.000897    4.53  0.000832  ( 0.028843  0.000002  0.000182)
 10:    425.95   0.000894    4.52  0.000655  ( 0.025577  0.000001 -0.001003)
 11:    556.97   0.007528   38.05  0.004218  (-0.064645 -0.000003  0.006251)
 12:    889.72   0.002352   11.88  0.000825  (-0.028158 -0.000001  0.005649)
 13:    944.08   0.000113    0.57  0.000037  ( 0.000000 -0.006113 -0.000000)
 14:    948.58   0.000177    0.90  0.000058  ( 0.000000 -0.007634  0.000000)
 15:   1070.81   0.002991   15.11  0.000872  ( 0.029179  0.000001 -0.004487)
 16:   1149.58   0.000870    4.39  0.000236  ( 0.000001 -0.015364 -0.000000)
 17:   1183.24   0.004568   23.09  0.001205  ( 0.034657  0.000002  0.001937)
 18:   1263.87   0.005692   28.77  0.001406  (-0.036627 -0.000002  0.007999)
 19:   1354.36   0.000285    1.44  0.000066  ( 0.000000 -0.008099  0.000000)
 20:   1396.22   0.002743   13.86  0.000613  (-0.000002  0.024759 -0.000000)
 21:   1410.99   0.001261    6.37  0.000279  (-0.011083 -0.000001 -0.012493)
 22:   1469.80   0.000544    2.75  0.000115  (-0.000001  0.010747  0.000001)
 23:   1476.13   0.000031    0.16  0.000007  (-0.000000  0.002567 -0.000000)
 24:   1483.82   0.001866    9.43  0.000393  (-0.002761  0.000000 -0.019619)
 25:   1499.55   0.001756    8.87  0.000365  (-0.010149 -0.000001  0.016198)
 26:   3008.07   0.002453   12.40  0.000254  ( 0.000001 -0.015952 -0.000000)
 27:   3012.76   0.004750   24.01  0.000492  (-0.021771 -0.000001 -0.004250)
 28:   3074.52   0.000422    2.13  0.000043  ( 0.006460  0.000000 -0.001072)
 29:   3083.68   0.000514    2.60  0.000052  ( 0.000001 -0.007210 -0.000000)
 30:   3094.22   0.005861   29.62  0.000591  ( 0.019290  0.000001 -0.014800)
 31:   3112.41   0.002321   11.73  0.000233  (-0.000001  0.015254 -0.000003)
 32:   3118.91   0.005121   25.88  0.000512  ( 0.004393  0.000002  0.022206)

--------------------------
THERMOCHEMISTRY AT 298.15K
--------------------------

Temperature         ...   298.15 K
Pressure            ...     1.00 atm
Total Mass          ...    78.54 AMU
Quasi RRHO          ...     True
Cut-Off Frequency   ...     1.00 cm^-1

Throughout the following assumptions are being made:
  (1) The electronic state is orbitally nondegenerate
  (2) There are no thermally accessible electronically excited states
  (3) Hindered rotations indicated by low frequency modes are not
      treated as such but are treated as vibrations and this may
      cause some error
  (4) All equations used are the standard statistical mechanics
      equations for an ideal gas
  (5) All vibrations are strictly harmonic

freq.     254.89  E(vib)   ...       0.30
freq.     287.23  E(vib)   ...       0.27
freq.     320.38  E(vib)   ...       0.25
freq.     336.32  E(vib)   ...       0.24
freq.     425.95  E(vib)   ...       0.18
freq.     556.97  E(vib)   ...       0.12
freq.     889.72  E(vib)   ...       0.04
freq.     944.08  E(vib)   ...       0.03
freq.     948.58  E(vib)   ...       0.03
freq.    1070.81  E(vib)   ...       0.02
freq.    1149.58  E(vib)   ...       0.01
freq.    1183.24  E(vib)   ...       0.01
freq.    1263.87  E(vib)   ...       0.01
freq.    1354.36  E(vib)   ...       0.01
freq.    1396.22  E(vib)   ...       0.00
freq.    1410.99  E(vib)   ...       0.00
freq.    1469.80  E(vib)   ...       0.00
freq.    1476.13  E(vib)   ...       0.00
freq.    1483.82  E(vib)   ...       0.00
freq.    1499.55  E(vib)   ...       0.00
freq.    3008.07  E(vib)   ...       0.00
freq.    3012.76  E(vib)   ...       0.00
freq.    3074.52  E(vib)   ...       0.00
freq.    3083.68  E(vib)   ...       0.00
freq.    3094.22  E(vib)   ...       0.00
freq.    3112.41  E(vib)   ...       0.00
freq.    3118.91  E(vib)   ...       0.00

------------
INNER ENERGY
------------

The inner energy is: U= E(el) + E(ZPE) + E(vib) + E(rot) + E(trans)
    E(el)   - is the total energy from the electronic structure calculation
              = E(kin-el) + E(nuc-el) + E(el-el) + E(nuc-nuc)
    E(ZPE)  - the the zero temperature vibrational energy from the frequency calculation
    E(vib)  - the the finite temperature correction to E(ZPE) due to population
              of excited vibrational states
    E(rot)  - is the rotational thermal energy
    E(trans)- is the translational thermal energy

Summary of contributions to the inner energy U:
Electronic energy                ...   -578.68860055 Eh
Zero point energy                ...      0.09392214 Eh      58.94 kcal/mol
Thermal vibrational correction   ...      0.00242921 Eh       1.52 kcal/mol
Thermal rotational correction    ...      0.00141627 Eh       0.89 kcal/mol
Thermal translational correction ...      0.00141627 Eh       0.89 kcal/mol
-----------------------------------------------------------------------
Total thermal energy                   -578.58941666 Eh

Summary of corrections to the electronic energy:
(perhaps to be used in another calculation)
Total thermal correction                  0.00526175 Eh       3.30 kcal/mol
Non-thermal (ZPE) correction              0.09392214 Eh      58.94 kcal/mol
-----------------------------------------------------------------------
Total correction                          0.09918389 Eh      62.24 kcal/mol

--------
ENTHALPY
--------

The enthalpy is H = U + kB*T
                kB is Boltzmann's constant
Total thermal energy              ...   -578.58941666 Eh
Thermal Enthalpy correction       ...      0.00094421 Eh       0.59 kcal/mol
-----------------------------------------------------------------------
Total Enthalpy                    ...   -578.58847245 Eh

Note: Rotational entropy computed according to Herzberg
Infrared and Raman Spectra, Chapter V,1, Van Nostrand Reinhold, 1945
Point Group:  Cs, Symmetry Number:   1
Rotational constants in cm-1:     0.269785     0.145723     0.103886

Vibrational entropy computed according to the QRRHO of S. Grimme
Chem.Eur.J. 2012 18 9955 using a reference frequency of 100.0 cm-1

-------
ENTROPY
-------

The entropy contributions are T*S = T*(S(el)+S(vib)+S(rot)+S(trans))
     S(el)   - electronic entropy
     S(vib)  - vibrational entropy
     S(rot)  - rotational entropy
     S(trans)- translational entropy
The entropies will be listed as multiplied by the temperature to get
units of energy

Electronic entropy                ...      0.00000000 Eh      0.00 kcal/mol
Vibrational entropy               ...      0.00371974 Eh      2.33 kcal/mol
Rotational entropy                ...      0.01210761 Eh      7.60 kcal/mol
Translational entropy             ...      0.01852916 Eh     11.63 kcal/mol
-----------------------------------------------------------------------
Final entropy term                ...      0.03435651 Eh     21.56 kcal/mol

In case the symmetry of your molecule has not been determined correctly
or in case you have a reason to use a different symmetry number we print
out the resulting rotational entropy values for sn=1,12:

 non-linear molecules -----------------------------------
|  sn= 1 | S(rot)=       0.01210761 Eh      7.60 kcal/mol|
|  sn= 2 | S(rot)=       0.01145316 Eh      7.19 kcal/mol|
|  sn= 3 | S(rot)=       0.01107032 Eh      6.95 kcal/mol|
|  sn= 4 | S(rot)=       0.01079870 Eh      6.78 kcal/mol|
|  sn= 5 | S(rot)=       0.01058801 Eh      6.64 kcal/mol|
|  sn= 6 | S(rot)=       0.01041587 Eh      6.54 kcal/mol|
|  sn= 7 | S(rot)=       0.01027032 Eh      6.44 kcal/mol|
|  sn= 8 | S(rot)=       0.01014424 Eh      6.37 kcal/mol|
|  sn= 9 | S(rot)=       0.01003303 Eh      6.30 kcal/mol|
|  sn=10 | S(rot)=       0.00993356 Eh      6.23 kcal/mol|
|  sn=11 | S(rot)=       0.00984357 Eh      6.18 kcal/mol|
|  sn=12 | S(rot)=       0.00976141 Eh      6.13 kcal/mol|
 linear molecules ---------------------------------------
|  Dinfh | S(rot)=       0.00746387 Eh      4.68 kcal/mol|
|  Cinfv | S(rot)=       0.00811833 Eh      5.09 kcal/mol|
 --------------------------------------------------------

-------------------
GIBBS FREE ENERGY
-------------------

The Gibbs free energy is G = H - T*S

Total enthalpy                    ...   -578.58847245 Eh
Total entropy correction          ...     -0.03435651 Eh    -21.56 kcal/mol
-----------------------------------------------------------------------
Final Gibbs free energy         ...   -578.62282896 Eh

For completeness - the Gibbs free energy minus the electronic energy
G-E(el)                           ...      0.06577159 Eh     41.27 kcal/mol

                             ****ORCA TERMINATED NORMALLY****
TOTAL RUN TIME: 0 days 0 hours 3 minutes 4 seconds 259 msec
