                         Program Version 6.0.0  -   RELEASE  -
|  1> ! r2SCAN-3c DEF2-TZVP FREQ
|  2> * xyzfile 0 1 vacuum_censo.xyz
|  3>
|  4>                          ****END OF INPUT****

CARTESIAN COORDINATES (ANGSTROEM)
---------------------------------
  C     -1.172019   -1.266522   -0.130959
  C     -0.533660    0.000017    0.402983
  C     -1.171794    1.266682   -0.130926
  Cl     1.257338   -0.000131   -0.046296
  H     -0.676260   -2.158088    0.258775
  H     -2.225054   -1.293224    0.172680
  H     -1.126913   -1.290230   -1.223457
  H     -0.533018    0.000002    1.496628
  H     -1.126647    1.290430   -1.223421
  H     -0.675905    2.158152    0.258864
  H     -2.224836    1.293542    0.172677

 Total Charge           Charge          ....    0
 Multiplicity           Mult            ....    1
 Number of Electrons    NEL             ....   42
 Basis Dimension        Dim             ....  172

ORBITAL ENERGIES
----------------

  NO   OCC          E(Eh)            E(eV)
   0   2.0000    -101.165265     -2752.8468
   1   2.0000     -10.103281      -274.9243
   2   2.0000     -10.037640      -273.1381
   3   2.0000     -10.037637      -273.1380
   4   2.0000      -9.341378      -254.1918
   5   2.0000      -7.085873      -192.8164
   6   2.0000      -7.076427      -192.5594
   7   2.0000      -7.076283      -192.5554
   8   2.0000      -0.818976       -22.2855
   9   2.0000      -0.721121       -19.6227
  10   2.0000      -0.670932       -18.2570
  11   2.0000      -0.555847       -15.1254
  12   2.0000      -0.448298       -12.1988
  13   2.0000      -0.426200       -11.5975
  14   2.0000      -0.400769       -10.9055
  15   2.0000      -0.371253       -10.1023
  16   2.0000      -0.342007        -9.3065
  17   2.0000      -0.337307        -9.1786
  18   2.0000      -0.329451        -8.9648
  19   2.0000      -0.263428        -7.1682
  20   2.0000      -0.263332        -7.1656
  21   0.0000      -0.005013        -0.1364
  22   0.0000       0.043953         1.1960
  23   0.0000       0.085208         2.3186
  24   0.0000       0.091183         2.4812
  25   0.0000       0.104370         2.8401

MULLIKEN ATOMIC CHARGES
-----------------------
   0 C :   -0.305754
   1 C :    0.054725
   2 C :   -0.305753
   3 Cl:   -0.212187
   4 H :    0.122275
   5 H :    0.103385
   6 H :    0.110327
   7 H :    0.096994
   8 H :    0.110328
   9 H :    0.122274
  10 H :    0.103385
Sum of atomic charges:   -0.0000000

LOEWDIN ATOMIC CHARGES
----------------------
   0 C :   -0.310364
   1 C :   -0.493709
   2 C :   -0.310365
   3 Cl:    0.227487
   4 H :    0.124047
   5 H :    0.126584
   6 H :    0.124505
   7 H :    0.136681
   8 H :    0.124505
   9 H :    0.124047
  10 H :    0.126584

  Mayer bond orders larger than 0.100000
B(  0-C ,  1-C ) :   0.9901 B(  0-C ,  4-H ) :   0.9703 B(  0-C ,  5-H ) :   0.9549
B(  0-C ,  6-H ) :   0.9684 B(  1-C ,  2-C ) :   0.9901 B(  1-C ,  3-Cl) :   0.9931
B(  1-C ,  7-H ) :   0.9645 B(  2-C ,  8-H ) :   0.9684 B(  2-C ,  9-H ) :   0.9703
B(  2-C , 10-H ) :   0.9549

Dispersion correction           -0.002320784
FINAL SINGLE POINT ENERGY      -578.689043106088

DIPOLE MOMENT
-------------

Method             : SCF
Type of density    : Electron Density
Multiplicity       :   1
Irrep              :   0
Energy             :  -578.6937407062164311 Eh
Relativity type    :
Basis              : AO
                                X                 Y                 Z
Electronic contribution:      8.933193899      -0.000777752       0.186962232
Nuclear contribution   :     -9.835586624       0.000852861      -0.017420683
                        -----------------------------------------
Total Dipole Moment    :     -0.902392725       0.000075110       0.169541549
                        -----------------------------------------
Magnitude (a.u.)       :      0.918181339
Magnitude (Debye)      :      2.333831492

VIBRATIONAL FREQUENCIES
-----------------------

Scaling factor for frequencies =  1.000000000  (already applied!)

     0:       0.00 cm**-1
     1:       0.00 cm**-1
     2:       0.00 cm**-1
     3:       0.00 cm**-1
     4:       0.00 cm**-1
     5:       0.00 cm**-1
     6:     253.39 cm**-1
     7:     284.55 cm**-1
     8:     325.39 cm**-1
     9:     340.79 cm**-1
    10:     427.01 cm**-1
    11:     589.17 cm**-1
    12:     885.81 cm**-1
    13:     940.83 cm**-1
    14:     947.43 cm**-1
    15:    1076.62 cm**-1
    16:    1143.24 cm**-1
    17:    1181.45 cm**-1
    18:    1275.86 cm**-1
    19:    1352.01 cm**-1
    20:    1393.75 cm**-1
    21:    1410.18 cm**-1
    22:    1470.14 cm**-1
    23:    1476.90 cm**-1
    24:    1483.89 cm**-1
    25:    1499.72 cm**-1
    26:    3008.71 cm**-1
    27:    3013.34 cm**-1
    28:    3061.67 cm**-1
    29:    3085.99 cm**-1
    30:    3093.57 cm**-1
    31:    3113.37 cm**-1
    32:    3117.74 cm**-1

IR SPECTRUM
-----------

 Mode   freq       eps      Int      T**2         TX        TY        TZ
       cm**-1   L/(mol*cm) km/mol    a.u.
----------------------------------------------------------------------------
  6:    253.39   0.000007    0.04  0.000009  ( 0.000001  0.002926 -0.000000)
  7:    284.55   0.000055    0.28  0.000061  ( 0.007771 -0.000000  0.000512)
  8:    325.39   0.000348    1.76  0.000334  (-0.000002 -0.018263 -0.000000)
  9:    340.79   0.000626    3.17  0.000574  (-0.023948  0.000003 -0.000340)
 10:    427.01   0.000633    3.20  0.000463  (-0.021500  0.000002  0.000707)
 11:    589.17   0.006799   34.36  0.003601  ( 0.059773 -0.000005 -0.005348)
 12:    885.81   0.002374   12.00  0.000836  ( 0.028350 -0.000002 -0.005725)
 13:    940.83   0.000086    0.43  0.000028  (-0.000000  0.005333  0.000000)
 14:    947.43   0.000208    1.05  0.000069  ( 0.000001  0.008284  0.000000)
 15:   1076.62   0.002966   14.99  0.000860  (-0.028984  0.000003  0.004436)
 16:   1143.24   0.000868    4.39  0.000237  ( 0.000001  0.015395 -0.000000)
 17:   1181.45   0.003772   19.06  0.000996  (-0.031452  0.000002 -0.002670)
 18:   1275.86   0.005790   29.26  0.001416  ( 0.036785 -0.000003 -0.007941)
 19:   1352.01   0.000329    1.66  0.000076  ( 0.000001  0.008715  0.000000)
 20:   1393.75   0.002490   12.58  0.000557  (-0.000003 -0.023610 -0.000000)
 21:   1410.18   0.001266    6.40  0.000280  ( 0.010830 -0.000002  0.012766)
 22:   1470.14   0.000551    2.79  0.000117  (-0.000001 -0.010819  0.000000)
 23:   1476.90   0.000053    0.27  0.000011  (-0.000000 -0.003333 -0.000001)
 24:   1483.89   0.001958    9.90  0.000412  ( 0.003096 -0.000000  0.020056)
 25:   1499.72   0.001705    8.62  0.000355  ( 0.010110 -0.000001 -0.015891)
 26:   3008.71   0.002621   13.25  0.000272  ( 0.000002  0.016489  0.000001)
 27:   3013.34   0.004781   24.16  0.000495  ( 0.021792 -0.000002  0.004502)
 28:   3061.67   0.000363    1.83  0.000037  (-0.000962  0.000000 -0.006003)
 29:   3085.99   0.000463    2.34  0.000047  ( 0.000001  0.006842  0.000001)
 30:   3093.57   0.006877   34.75  0.000694  (-0.019724  0.000000  0.017454)
 31:   3113.37   0.002605   13.16  0.000261  ( 0.000001  0.016158  0.000001)
 32:   3117.74   0.004734   23.92  0.000474  ( 0.006495 -0.000001  0.020776)

--------------------------
THERMOCHEMISTRY AT 298.15K
--------------------------

Temperature         ...   298.15 K
Pressure            ...     1.00 atm
Total Mass          ...    78.54 AMU
Quasi RRHO          ...     True
Cut-Off Frequency   ...     1.00 cm^-1

Throughout the following assumptions are being made:
  (1) The electronic state is orbitally nondegenerate
  (2) There are no thermally accessible electronically excited states
  (3) Hindered rotations indicated by low frequency modes are not
      treated as such but are treated as vibrations and this may
      cause some error
  (4) All equations used are the standard statistical mechanics
      equations for an ideal gas
  (5) All vibrations are strictly harmonic

freq.     253.39  E(vib)   ...       0.30
freq.     284.55  E(vib)   ...       0.28
freq.     325.39  E(vib)   ...       0.24
freq.     340.79  E(vib)   ...       0.23
freq.     427.01  E(vib)   ...       0.18
freq.     589.17  E(vib)   ...       0.10
freq.     885.81  E(vib)   ...       0.04
freq.     940.83  E(vib)   ...       0.03
freq.     947.43  E(vib)   ...       0.03
freq.    1076.62  E(vib)   ...       0.02
freq.    1143.24  E(vib)   ...       0.01
freq.    1181.45  E(vib)   ...       0.01
freq.    1275.86  E(vib)   ...       0.01
freq.    1352.01  E(vib)   ...       0.01
freq.    1393.75  E(vib)   ...       0.00
freq.    1410.18  E(vib)   ...       0.00
freq.    1470.14  E(vib)   ...       0.00
freq.    1476.90  E(vib)   ...       0.00
freq.    1483.89  E(vib)   ...       0.00
freq.    1499.72  E(vib)   ...       0.00
freq.    3008.71  E(vib)   ...       0.00
freq.    3013.34  E(vib)   ...       0.00
freq.    3061.67  E(vib)   ...       0.00
freq.    3085.99  E(vib)   ...       0.00
freq.    3093.57  E(vib)   ...       0.00
freq.    3113.37  E(vib)   ...       0.00
freq.    3117.74  E(vib)   ...       0.00

------------
INNER ENERGY
------------

The inner energy is: U= E(el) + E(ZPE) + E(vib) + E(rot) + E(trans)
    E(el)   - is the total energy from the electronic structure calculation
              = E(kin-el) + E(nuc-el) + E(el-el) + E(nuc-nuc)
    E(ZPE)  - the the zero temperature vibrational energy from the frequency calculation
    E(vib)  - the the finite temperature correction to E(ZPE) due to population
              of excited vibrational states
    E(rot)  - is the rotational thermal energy
    E(trans)- is the translational thermal energy

Summary of contributions to the inner energy U:
Electronic energy                ...   -578.68904311 Eh
Zero point energy                ...      0.09398013 Eh      58.97 kcal/mol
Thermal vibrational correction   ...      0.00240471 Eh       1.51 kcal/mol
Thermal rotational correction    ...      0.00141627 Eh       0.89 kcal/mol
Thermal translational correction ...      0.00141627 Eh       0.89 kcal/mol
-----------------------------------------------------------------------
Total thermal energy                   -578.58982573 Eh

Summary of corrections to the electronic energy:
(perhaps to be used in another calculation)
Total thermal correction                  0.00523725 Eh       3.29 kcal/mol
Non-thermal (ZPE) correction              0.09398013 Eh      58.97 kcal/mol
-----------------------------------------------------------------------
Total correction                          0.09921737 Eh      62.26 kcal/mol

--------
ENTHALPY
--------

The enthalpy is H = U + kB*T
                kB is Boltzmann's constant
Total thermal energy              ...   -578.58982573 Eh
Thermal Enthalpy correction       ...      0.00094421 Eh       0.59 kcal/mol
-----------------------------------------------------------------------
Total Enthalpy                    ...   -578.58888152 Eh

Note: Rotational entropy computed according to Herzberg
Infrared and Raman Spectra, Chapter V,1, Van Nostrand Reinhold, 1945
Point Group:  Cs, Symmetry Number:   1
Rotational constants in cm-1:     0.269441     0.147755     0.104810

Vibrational entropy computed according to the QRRHO of S. Grimme
Chem.Eur.J. 2012 18 9955 using a reference frequency of 100.0 cm-1

-------
ENTROPY
-------

The entropy contributions are T*S = T*(S(el)+S(vib)+S(rot)+S(trans))
     S(el)   - electronic entropy
     S(vib)  - vibrational entropy
     S(rot)  - rotational entropy
     S(trans)- translational entropy
The entropies will be listed as multiplied by the temperature to get
units of energy

Electronic entropy                ...      0.00000000 Eh      0.00 kcal/mol
Vibrational entropy               ...      0.00368080 Eh      2.31 kcal/mol
Rotational entropy                ...      0.01209749 Eh      7.59 kcal/mol
Translational entropy             ...      0.01852916 Eh     11.63 kcal/mol
-----------------------------------------------------------------------
Final entropy term                ...      0.03430746 Eh     21.53 kcal/mol

In case the symmetry of your molecule has not been determined correctly
or in case you have a reason to use a different symmetry number we print
out the resulting rotational entropy values for sn=1,12:

 non-linear molecules -----------------------------------
|  sn= 1 | S(rot)=       0.01209749 Eh      7.59 kcal/mol|
|  sn= 2 | S(rot)=       0.01144304 Eh      7.18 kcal/mol|
|  sn= 3 | S(rot)=       0.01106021 Eh      6.94 kcal/mol|
|  sn= 4 | S(rot)=       0.01078858 Eh      6.77 kcal/mol|
|  sn= 5 | S(rot)=       0.01057789 Eh      6.64 kcal/mol|
|  sn= 6 | S(rot)=       0.01040575 Eh      6.53 kcal/mol|
|  sn= 7 | S(rot)=       0.01026020 Eh      6.44 kcal/mol|
|  sn= 8 | S(rot)=       0.01013413 Eh      6.36 kcal/mol|
|  sn= 9 | S(rot)=       0.01002292 Eh      6.29 kcal/mol|
|  sn=10 | S(rot)=       0.00992344 Eh      6.23 kcal/mol|
|  sn=11 | S(rot)=       0.00983345 Eh      6.17 kcal/mol|
|  sn=12 | S(rot)=       0.00975129 Eh      6.12 kcal/mol|
 linear molecules ---------------------------------------
|  Dinfh | S(rot)=       0.00745551 Eh      4.68 kcal/mol|
|  Cinfv | S(rot)=       0.00810996 Eh      5.09 kcal/mol|
 --------------------------------------------------------

-------------------
GIBBS FREE ENERGY
-------------------

The Gibbs free energy is G = H - T*S

Total enthalpy                    ...   -578.58888152 Eh
Total entropy correction          ...     -0.03430746 Eh    -21.53 kcal/mol
-----------------------------------------------------------------------
Final Gibbs free energy         ...   -578.62318898 Eh

For completeness - the Gibbs free energy minus the electronic energy
G-E(el)                           ...      0.06585413 Eh     41.32 kcal/mol

                             ****ORCA TERMINATED NORMALLY****
TOTAL RUN TIME: 0 days 0 hours 3 minutes 12 seconds 236 msec
