                         Program Version 6.0.1  -  RELEASE   -
|  1> ! r2scan-3c def2/J RI DEFGRID2 scfconv6 printgap
|  2> %output
|  3>     printlevel normal
|  4> end
|  5> * xyz 0 1
|  6> C -2.832031137 1.3416034847 -0.2497440797
|  7> C -2.3707624595 -0.0466156401 0.1775989947
|  8> C -0.8850672795 -0.2893853225 0.1028386758
|  9> C -0.4182311212 -1.5985204391 0.1680434416
| 10> C 0.9365803021 -1.8697319608 0.1202954964
| 11> C 1.8548172491 -0.8438473837 0.0042722387
| 12> C 1.4013021388 0.4674101173 -0.061743609
| 13> C 0.0387168153 0.7381306764 -0.0107106525
| 14> O 2.3232476369 1.4645347907 -0.1762321826
| 15> H -3.9191364877 1.3817575179 -0.2554977717
| 16> H -2.4765851143 1.5730301831 -1.2515262093
| 17> H -2.4736867258 2.1046075121 0.4373826524
| 18> H -2.8683081398 -0.7939445102 -0.4464395068
| 19> H -2.693958365 -0.2275781053 1.2081326318
| 20> H -1.1265226155 -2.4093988128 0.2572351158
| 21> H 1.2828044271 -2.8913244067 0.1715892158
| 22> H 2.9149958703 -1.0343310245 -0.0372032312
| 23> H -0.287567205 1.7675858682 -0.0622145207
| 24> H 1.8757241451 2.3183746298 -0.2132990795
| 25> *
| 26>
| 27>                          ****END OF INPUT****

CARTESIAN COORDINATES (ANGSTROEM)
---------------------------------
  C     -2.832031    1.341603   -0.249744
  C     -2.370762   -0.046616    0.177599
  C     -0.885067   -0.289385    0.102839
  C     -0.418231   -1.598520    0.168043
  C      0.936580   -1.869732    0.120295
  C      1.854817   -0.843847    0.004272
  C      1.401302    0.467410   -0.061744
  C      0.038717    0.738131   -0.010711
  O      2.323248    1.464535   -0.176232
  H     -3.919136    1.381758   -0.255498
  H     -2.476585    1.573030   -1.251526
  H     -2.473687    2.104608    0.437383
  H     -2.868308   -0.793945   -0.446440
  H     -2.693958   -0.227578    1.208133
  H     -1.126523   -2.409399    0.257235
  H      1.282804   -2.891324    0.171589
  H      2.914996   -1.034331   -0.037203
  H     -0.287567    1.767586   -0.062215
  H      1.875724    2.318375   -0.213299

 Total Charge           Charge          ....    0
 Multiplicity           Mult            ....    1
 Number of Electrons    NEL             ....   66
 Basis Dimension        Dim             ....  226

ORBITAL ENERGIES
----------------

  NO   OCC          E(Eh)            E(eV)
   0   2.0000     -18.983014      -516.5541
   1   2.0000     -10.093611      -274.6611
   2   2.0000     -10.043125      -273.2873
   3   2.0000     -10.037204      -273.1262
   4   2.0000     -10.032417      -272.9960
   5   2.0000     -10.029759      -272.9236
   6   2.0000     -10.025318      -272.8028
   7   2.0000     -10.024340      -272.7762
   8   2.0000     -10.021139      -272.6891
   9   2.0000      -1.027633       -27.9633
  10   2.0000      -0.824595       -22.4384
  11   2.0000      -0.757114       -20.6021
  12   2.0000      -0.707067       -19.2403
  13   2.0000      -0.695143       -18.9158
  14   2.0000      -0.615493       -16.7484
  15   2.0000      -0.581059       -15.8114
  16   2.0000      -0.545670       -14.8484
  17   2.0000      -0.510831       -13.9004
  18   2.0000      -0.466100       -12.6832
  19   2.0000      -0.433681       -11.8010
  20   2.0000      -0.424261       -11.5447
  21   2.0000      -0.405949       -11.0464
  22   2.0000      -0.398052       -10.8316
  23   2.0000      -0.378507       -10.2997
  24   2.0000      -0.365712        -9.9515
  25   2.0000      -0.342970        -9.3327
  26   2.0000      -0.339854        -9.2479
  27   2.0000      -0.334393        -9.0993
  28   2.0000      -0.314217        -8.5503
  29   2.0000      -0.299760        -8.1569
  30   2.0000      -0.298300        -8.1172
  31   2.0000      -0.229954        -6.2574
  32   2.0000      -0.200865        -5.4658
  33   0.0000      -0.026810        -0.7295
  34   0.0000      -0.015034        -0.4091
  35   0.0000       0.057106         1.5539
  36   0.0000       0.085553         2.3280
  37   0.0000       0.100158         2.7254

MULLIKEN ATOMIC CHARGES
-----------------------
   0 C :   -0.490841
   1 C :   -0.307302
   2 C :    0.196966
   3 C :   -0.251396
   4 C :   -0.119001
   5 C :   -0.304679
   6 C :    0.429548
   7 C :   -0.405694
   8 O :   -0.410427
   9 H :    0.151439
  10 H :    0.165480
  11 H :    0.143112
  12 H :    0.153524
  13 H :    0.164609
  14 H :    0.144949
  15 H :    0.145558
  16 H :    0.156635
  17 H :    0.130384
  18 H :    0.307137
Sum of atomic charges:   -0.0000000

LOEWDIN ATOMIC CHARGES
----------------------
   0 C :   -0.420476
   1 C :   -0.285279
   2 C :   -0.077943
   3 C :   -0.189839
   4 C :   -0.147690
   5 C :   -0.154291
   6 C :    0.185883
   7 C :   -0.172626
   8 O :   -0.496381
   9 H :    0.153942
  10 H :    0.155094
  11 H :    0.149779
  12 H :    0.164882
  13 H :    0.168196
  14 H :    0.168407
  15 H :    0.167840
  16 H :    0.178793
  17 H :    0.171288
  18 H :    0.280423

  Mayer bond orders larger than 0.100000
B(  0-C ,  1-C ) :   0.8678 B(  0-C ,  9-H ) :   0.9700 B(  0-C , 10-H ) :   0.9948
B(  0-C , 11-H ) :   0.9659 B(  1-C ,  2-C ) :   0.8212 B(  1-C , 12-H ) :   1.0044
B(  1-C , 13-H ) :   0.9546 B(  2-C ,  3-C ) :   1.3726 B(  2-C ,  7-C ) :   1.4596
B(  3-C ,  4-C ) :   1.4396 B(  3-C , 14-H ) :   0.9560 B(  4-C ,  5-C ) :   1.3953
B(  4-C , 15-H ) :   0.9504 B(  5-C ,  6-C ) :   1.4417 B(  5-C , 16-H ) :   0.9409
B(  6-C ,  7-C ) :   1.3534 B(  6-C ,  8-O ) :   0.9156 B(  7-C , 17-H ) :   0.9255
B(  8-O , 18-H ) :   0.8857

Dispersion correction           -0.006089191
FINAL SINGLE POINT ENERGY      -386.000493482121

DIPOLE MOMENT
-------------

Method             : SCF
Type of density    : Electron Density
Multiplicity       :   1
Irrep              :   0
Energy             :  -386.0012543859228913 Eh
Relativity type    :
Basis              : AO
                                X                 Y                 Z
Electronic contribution:      8.548900031      -1.340164293       0.195380561
Nuclear contribution   :     -9.133579458       1.699880874      -0.182590720
                        -----------------------------------------
Total Dipole Moment    :     -0.584679427       0.359716581       0.012789841
                        -----------------------------------------
Magnitude (a.u.)       :      0.686592769
Magnitude (Debye)      :      1.745180128

Rotational constants in cm-1:             0.091353             0.041928             0.029138
Rotational constants in MHz :          2738.691853          1256.974228           873.524188

                             ****ORCA TERMINATED NORMALLY****
TOTAL RUN TIME: 0 days 0 hours 0 minutes 23 seconds 958 msec
