                         Program Version 6.0.1  -  RELEASE   -
|  1> ! r2scan-3c def2/J RI DEFGRID2 scfconv6 printgap
|  2> %output
|  3>     printlevel normal
|  4> end
|  5> * xyz 0 1
|  6> C -2.5892529361 -0.6968860656 -0.6230129439
|  7> C -1.4664153216 -0.0177605343 0.1264805523
|  8> O -1.4917017477 0.1039844884 1.3246120199
|  9> C -0.3501209783 0.5265153961 -0.7538655577
| 10> C 0.5055612641 -0.6056460645 -1.3445497781
| 11> C 1.3275083077 -1.2975073368 -0.2625473191
| 12> C 2.2495849128 -0.290148181 0.4157805584
| 13> C 1.4266156738 0.8306606101 1.0405237468
| 14> C 0.5503846997 1.5163875939 -0.005347938
| 15> H -3.3140274662 -1.0949725986 0.0822933115
| 16> H -3.0802529331 0.0254817887 -1.2718860075
| 17> H -2.2079764172 -1.5030297466 -1.243851455
| 18> H -0.8371485393 1.0506192348 -1.5855156981
| 19> H -0.1238946556 -1.3307696798 -1.8634579229
| 20> H 1.1838105016 -0.1705880543 -2.0830649738
| 21> H 0.659670898 -1.7362409291 0.481930804
| 22> H 1.9137067491 -2.1044158601 -0.708324596
| 23> H 2.8444338415 -0.7867262349 1.1846754343
| 24> H 2.9380945205 0.1257752686 -0.3248511921
| 25> H 0.7905303111 0.420072113 1.8241777559
| 26> H 2.0882142355 1.5707030158 1.4958508659
| 27> H -0.071904635 2.2696256044 0.4818477457
| 28> H 1.1871304905 2.0235729249 -0.7351891639
| 29> *
| 30>
| 31>                          ****END OF INPUT****

CARTESIAN COORDINATES (ANGSTROEM)
---------------------------------
  C     -2.589253   -0.696886   -0.623013
  C     -1.466415   -0.017761    0.126481
  O     -1.491702    0.103984    1.324612
  C     -0.350121    0.526515   -0.753866
  C      0.505561   -0.605646   -1.344550
  C      1.327508   -1.297507   -0.262547
  C      2.249585   -0.290148    0.415781
  C      1.426616    0.830661    1.040524
  C      0.550385    1.516388   -0.005348
  H     -3.314027   -1.094973    0.082293
  H     -3.080253    0.025482   -1.271886
  H     -2.207976   -1.503030   -1.243851
  H     -0.837149    1.050619   -1.585516
  H     -0.123895   -1.330770   -1.863458
  H      1.183811   -0.170588   -2.083065
  H      0.659671   -1.736241    0.481931
  H      1.913707   -2.104416   -0.708325
  H      2.844434   -0.786726    1.184675
  H      2.938095    0.125775   -0.324851
  H      0.790530    0.420072    1.824178
  H      2.088214    1.570703    1.495851
  H     -0.071905    2.269626    0.481848
  H      1.187130    2.023573   -0.735189

 Total Charge           Charge          ....    0
 Multiplicity           Mult            ....    1
 Number of Electrons    NEL             ....   70
 Basis Dimension        Dim             ....  246

ORBITAL ENERGIES
----------------

  NO   OCC          E(Eh)            E(eV)
   0   2.0000     -18.938455      -515.3416
   1   2.0000     -10.117165      -275.3020
   2   2.0000     -10.042424      -273.2683
   3   2.0000     -10.037117      -273.1238
   4   2.0000     -10.032234      -272.9910
   5   2.0000     -10.025518      -272.8082
   6   2.0000     -10.023780      -272.7609
   7   2.0000     -10.020070      -272.6600
   8   2.0000     -10.013028      -272.4683
   9   2.0000      -1.010667       -27.5016
  10   2.0000      -0.806458       -21.9448
  11   2.0000      -0.736090       -20.0300
  12   2.0000      -0.710183       -19.3251
  13   2.0000      -0.695941       -18.9375
  14   2.0000      -0.594450       -16.1758
  15   2.0000      -0.575359       -15.6563
  16   2.0000      -0.537600       -14.6288
  17   2.0000      -0.477919       -13.0048
  18   2.0000      -0.458688       -12.4815
  19   2.0000      -0.436374       -11.8743
  20   2.0000      -0.428908       -11.6712
  21   2.0000      -0.411225       -11.1900
  22   2.0000      -0.397160       -10.8073
  23   2.0000      -0.391778       -10.6608
  24   2.0000      -0.374773       -10.1981
  25   2.0000      -0.356546        -9.7021
  26   2.0000      -0.346967        -9.4415
  27   2.0000      -0.342202        -9.3118
  28   2.0000      -0.330045        -8.9810
  29   2.0000      -0.329202        -8.9580
  30   2.0000      -0.311733        -8.4827
  31   2.0000      -0.290591        -7.9074
  32   2.0000      -0.270144        -7.3510
  33   2.0000      -0.268254        -7.2996
  34   2.0000      -0.209703        -5.7063
  35   0.0000      -0.045077        -1.2266
  36   0.0000       0.065381         1.7791
  37   0.0000       0.096750         2.6327
  38   0.0000       0.108842         2.9617
  39   0.0000       0.111348         3.0299

MULLIKEN ATOMIC CHARGES
-----------------------
   0 C :   -0.528636
   1 C :    0.215290
   2 O :   -0.345763
   3 C :    0.075290
   4 C :   -0.410515
   5 C :   -0.236610
   6 C :   -0.316461
   7 C :   -0.324075
   8 C :   -0.332791
   9 H :    0.179666
  10 H :    0.164709
  11 H :    0.158700
  12 H :    0.153189
  13 H :    0.147724
  14 H :    0.158806
  15 H :    0.154999
  16 H :    0.150770
  17 H :    0.149007
  18 H :    0.141924
  19 H :    0.195837
  20 H :    0.144226
  21 H :    0.149051
  22 H :    0.155662
Sum of atomic charges:   -0.0000000

LOEWDIN ATOMIC CHARGES
----------------------
   0 C :   -0.385936
   1 C :    0.222712
   2 O :   -0.468263
   3 C :   -0.206164
   4 C :   -0.278349
   5 C :   -0.297406
   6 C :   -0.300926
   7 C :   -0.297554
   8 C :   -0.279543
   9 H :    0.173593
  10 H :    0.174074
  11 H :    0.169741
  12 H :    0.174591
  13 H :    0.155721
  14 H :    0.161887
  15 H :    0.161598
  16 H :    0.155725
  17 H :    0.155588
  18 H :    0.152253
  19 H :    0.177969
  20 H :    0.153575
  21 H :    0.167625
  22 H :    0.157489

  Mayer bond orders larger than 0.100000
B(  0-C ,  1-C ) :   0.9165 B(  0-C ,  9-H ) :   0.9899 B(  0-C , 10-H ) :   0.9487
B(  0-C , 11-H ) :   0.9523 B(  1-C ,  2-O ) :   1.9467 B(  1-C ,  3-C ) :   0.8412
B(  3-C ,  4-C ) :   0.8771 B(  3-C ,  8-C ) :   0.9411 B(  3-C , 12-H ) :   0.9146
B(  4-C ,  5-C ) :   0.8905 B(  4-C , 13-H ) :   0.9585 B(  4-C , 14-H ) :   0.9873
B(  5-C ,  6-C ) :   0.9017 B(  5-C , 15-H ) :   0.9788 B(  5-C , 16-H ) :   0.9381
B(  6-C ,  7-C ) :   0.9075 B(  6-C , 17-H ) :   0.9434 B(  6-C , 18-H ) :   1.0069
B(  7-C ,  8-C ) :   0.8973 B(  7-C , 19-H ) :   0.9877 B(  7-C , 20-H ) :   0.9420
B(  8-C , 21-H ) :   0.9464 B(  8-C , 22-H ) :   0.9888

Dispersion correction           -0.007603111
FINAL SINGLE POINT ENERGY      -388.406068086016

DIPOLE MOMENT
-------------

Method             : SCF
Type of density    : Electron Density
Multiplicity       :   1
Irrep              :   0
Energy             :  -388.4084743496853207 Eh
Relativity type    :
Basis              : AO
                                X                 Y                 Z
Electronic contribution:     -3.623963141       1.040983826       2.952698945
Nuclear contribution   :      3.702758593      -1.162621571      -3.981975205
                        -----------------------------------------
Total Dipole Moment    :      0.078795452      -0.121637745      -1.029276260
                        -----------------------------------------
Magnitude (a.u.)       :      1.039429692
Magnitude (Debye)      :      2.642020311

Rotational constants in cm-1:             0.086632             0.044139             0.038235
Rotational constants in MHz :          2597.151267          1323.247152          1146.261238

                             ****ORCA TERMINATED NORMALLY****
TOTAL RUN TIME: 0 days 0 hours 0 minutes 42 seconds 42 msec
