                         Program Version 6.0.0  -   RELEASE  -
|  1> ! r2SCAN-3c DEF2-TZVP FREQ
|  2> * xyzfile 0 1 censo.xyz
|  3>
|  4>                          ****END OF INPUT****

CARTESIAN COORDINATES (ANGSTROEM)
---------------------------------
  C     -0.987369    0.711534    0.000067
  C     -0.986738   -0.712410    0.000137
  C      0.330889   -1.122856    0.000094
  N      1.117304    0.000493    0.000091
  C      0.329894    1.123148    0.000059
  H     -1.852446    1.359736    0.000053
  H     -1.851239   -1.361382    0.000167
  H      0.766571   -2.111420    0.000111
  H      2.125614    0.000942    0.000051
  H      0.764702    2.112097    0.000035

 Total Charge           Charge          ....    0
 Multiplicity           Mult            ....    1
 Number of Electrons    NEL             ....   36
 Basis Dimension        Dim             ....  185

ORBITAL ENERGIES
----------------

  NO   OCC          E(Eh)            E(eV)
   0   2.0000     -14.206564      -386.5803
   1   2.0000     -10.048510      -273.4339
   2   2.0000     -10.048500      -273.4336
   3   2.0000     -10.014350      -272.5043
   4   2.0000     -10.014024      -272.4954
   5   2.0000      -0.938936       -25.5497
   6   2.0000      -0.735714       -20.0198
   7   2.0000      -0.684268       -18.6199
   8   2.0000      -0.555398       -15.1131
   9   2.0000      -0.530448       -14.4342
  10   2.0000      -0.509090       -13.8530
  11   2.0000      -0.395227       -10.7547
  12   2.0000      -0.389479       -10.5983
  13   2.0000      -0.376826       -10.2540
  14   2.0000      -0.353744        -9.6259
  15   2.0000      -0.341011        -9.2794
  16   2.0000      -0.222253        -6.0478
  17   2.0000      -0.192116        -5.2277
  18   0.0000       0.009261         0.2520
  19   0.0000       0.044621         1.2142
  20   0.0000       0.050368         1.3706
  21   0.0000       0.099213         2.6997
  22   0.0000       0.117234         3.1901

MULLIKEN ATOMIC CHARGES
-----------------------
   0 C :   -0.179919
   1 C :   -0.179912
   2 C :   -0.066634
   3 N :   -0.215818
   4 C :   -0.066628
   5 H :    0.108672
   6 H :    0.108673
   7 H :    0.131663
   8 H :    0.228240
   9 H :    0.131662
Sum of atomic charges:   -0.0000000

LOEWDIN ATOMIC CHARGES
----------------------
   0 C :   -0.202010
   1 C :   -0.202011
   2 C :   -0.242068
   3 N :    0.176100
   4 C :   -0.242067
   5 H :    0.134432
   6 H :    0.134432
   7 H :    0.128238
   8 H :    0.186715
   9 H :    0.128238

  Mayer bond orders larger than 0.100000
B(  0-C ,  1-C ) :   1.3065 B(  0-C ,  4-C ) :   1.5703 B(  0-C ,  5-H ) :   0.9830
B(  1-C ,  2-C ) :   1.5703 B(  1-C ,  6-H ) :   0.9829 B(  2-C ,  3-N ) :   1.1665
B(  2-C ,  4-C ) :   0.1073 B(  2-C ,  7-H ) :   0.9594 B(  3-N ,  4-C ) :   1.1665
B(  3-N ,  8-H ) :   0.9215 B(  4-C ,  9-H ) :   0.9594

Dispersion correction           -0.002309992
FINAL SINGLE POINT ENERGY      -210.128442936832

DIPOLE MOMENT
-------------

Method             : SCF
Type of density    : Electron Density
Multiplicity       :   1
Irrep              :   0
Energy             :  -210.1311461081937466 Eh
Relativity type    :
Basis              : AO
                                X                 Y                 Z
Electronic contribution:      0.792371498       0.000353335       0.000002966
Nuclear contribution   :     -0.025752480      -0.000013822      -0.000026769
                        -----------------------------------------
Total Dipole Moment    :      0.766619018       0.000339513      -0.000023803
                        -----------------------------------------
Magnitude (a.u.)       :      0.766619093
Magnitude (Debye)      :      1.948590878

VIBRATIONAL FREQUENCIES
-----------------------

Scaling factor for frequencies =  1.000000000  (already applied!)

     0:       0.00 cm**-1
     1:       0.00 cm**-1
     2:       0.00 cm**-1
     3:       0.00 cm**-1
     4:       0.00 cm**-1
     5:       0.00 cm**-1
     6:     508.94 cm**-1
     7:     633.16 cm**-1
     8:     651.20 cm**-1
     9:     673.61 cm**-1
    10:     723.71 cm**-1
    11:     814.85 cm**-1
    12:     860.71 cm**-1
    13:     882.61 cm**-1
    14:     903.64 cm**-1
    15:    1033.00 cm**-1
    16:    1064.51 cm**-1
    17:    1093.47 cm**-1
    18:    1165.85 cm**-1
    19:    1166.28 cm**-1
    20:    1306.88 cm**-1
    21:    1404.96 cm**-1
    22:    1451.36 cm**-1
    23:    1492.32 cm**-1
    24:    1562.82 cm**-1
    25:    3217.86 cm**-1
    26:    3228.23 cm**-1
    27:    3242.40 cm**-1
    28:    3248.48 cm**-1
    29:    3623.61 cm**-1

IR SPECTRUM
-----------

 Mode   freq       eps      Int      T**2         TX        TY        TZ
       cm**-1   L/(mol*cm) km/mol    a.u.
----------------------------------------------------------------------------
  6:    508.94   0.012285   62.08  0.007533  ( 0.000002  0.000003  0.086791)
  7:    633.16   0.000000    0.00  0.000000  (-0.000008 -0.000005 -0.000004)
  8:    651.20   0.000014    0.07  0.000007  (-0.000006  0.000001 -0.002584)
  9:    673.61   0.000000    0.00  0.000000  ( 0.000004 -0.000006  0.000001)
 10:    723.71   0.032554  164.51  0.014037  (-0.000003 -0.000000  0.118479)
 11:    814.85   0.000711    3.59  0.000272  ( 0.000003 -0.000005  0.016503)
 12:    860.71   0.000000    0.00  0.000000  ( 0.000010  0.000002 -0.000006)
 13:    882.61   0.000251    1.27  0.000089  (-0.000005  0.009427 -0.000003)
 14:    903.64   0.000043    0.22  0.000015  (-0.003834 -0.000003  0.000002)
 15:   1033.00   0.005959   30.11  0.001800  (-0.042427 -0.000023  0.000001)
 16:   1064.51   0.005598   28.29  0.001641  (-0.000019  0.040511 -0.000002)
 17:   1093.47   0.001535    7.76  0.000438  (-0.020928 -0.000007  0.000000)
 18:   1165.85   0.000402    2.03  0.000108  ( 0.010379  0.000065 -0.000000)
 19:   1166.28   0.000546    2.76  0.000146  (-0.000053  0.012088  0.000000)
 20:   1306.88   0.000266    1.34  0.000064  (-0.000003  0.007971  0.000000)
 21:   1404.96   0.000704    3.56  0.000156  (-0.012506 -0.000006  0.000001)
 22:   1451.36   0.001157    5.84  0.000249  (-0.000004  0.015769 -0.000000)
 23:   1492.32   0.001376    6.95  0.000288  ( 0.016960  0.000007 -0.000000)
 24:   1562.82   0.000681    3.44  0.000136  ( 0.000003 -0.011665 -0.000000)
 25:   3217.86   0.000429    2.17  0.000042  ( 0.000005  0.006448 -0.000000)
 26:   3228.23   0.000624    3.15  0.000060  (-0.007768  0.000000  0.000000)
 27:   3242.40   0.000556    2.81  0.000054  (-0.000004  0.007315 -0.000000)
 28:   3248.48   0.000002    0.01  0.000000  ( 0.000480 -0.000006  0.000000)
 29:   3623.61   0.012612   63.73  0.001086  (-0.032956 -0.000015  0.000001)

--------------------------
THERMOCHEMISTRY AT 298.15K
--------------------------

Temperature         ...   298.15 K
Pressure            ...     1.00 atm
Total Mass          ...    67.09 AMU
Quasi RRHO          ...     True
Cut-Off Frequency   ...     1.00 cm^-1

Throughout the following assumptions are being made:
  (1) The electronic state is orbitally nondegenerate
  (2) There are no thermally accessible electronically excited states
  (3) Hindered rotations indicated by low frequency modes are not
      treated as such but are treated as vibrations and this may
      cause some error
  (4) All equations used are the standard statistical mechanics
      equations for an ideal gas
  (5) All vibrations are strictly harmonic

freq.     508.94  E(vib)   ...       0.14
freq.     633.16  E(vib)   ...       0.09
freq.     651.20  E(vib)   ...       0.08
freq.     673.61  E(vib)   ...       0.08
freq.     723.71  E(vib)   ...       0.06
freq.     814.85  E(vib)   ...       0.05
freq.     860.71  E(vib)   ...       0.04
freq.     882.61  E(vib)   ...       0.04
freq.     903.64  E(vib)   ...       0.03
freq.    1033.00  E(vib)   ...       0.02
freq.    1064.51  E(vib)   ...       0.02
freq.    1093.47  E(vib)   ...       0.02
freq.    1165.85  E(vib)   ...       0.01
freq.    1166.28  E(vib)   ...       0.01
freq.    1306.88  E(vib)   ...       0.01
freq.    1404.96  E(vib)   ...       0.00
freq.    1451.36  E(vib)   ...       0.00
freq.    1492.32  E(vib)   ...       0.00
freq.    1562.82  E(vib)   ...       0.00
freq.    3217.86  E(vib)   ...       0.00
freq.    3228.23  E(vib)   ...       0.00
freq.    3242.40  E(vib)   ...       0.00
freq.    3248.48  E(vib)   ...       0.00
freq.    3623.61  E(vib)   ...       0.00

------------
INNER ENERGY
------------

The inner energy is: U= E(el) + E(ZPE) + E(vib) + E(rot) + E(trans)
    E(el)   - is the total energy from the electronic structure calculation
              = E(kin-el) + E(nuc-el) + E(el-el) + E(nuc-nuc)
    E(ZPE)  - the the zero temperature vibrational energy from the frequency calculation
    E(vib)  - the the finite temperature correction to E(ZPE) due to population
              of excited vibrational states
    E(rot)  - is the rotational thermal energy
    E(trans)- is the translational thermal energy

Summary of contributions to the inner energy U:
Electronic energy                ...   -210.12844294 Eh
Zero point energy                ...      0.08191033 Eh      51.40 kcal/mol
Thermal vibrational correction   ...      0.00112719 Eh       0.71 kcal/mol
Thermal rotational correction    ...      0.00141627 Eh       0.89 kcal/mol
Thermal translational correction ...      0.00141627 Eh       0.89 kcal/mol
-----------------------------------------------------------------------
Total thermal energy                   -210.04257287 Eh

Summary of corrections to the electronic energy:
(perhaps to be used in another calculation)
Total thermal correction                  0.00395973 Eh       2.48 kcal/mol
Non-thermal (ZPE) correction              0.08191033 Eh      51.40 kcal/mol
-----------------------------------------------------------------------
Total correction                          0.08587006 Eh      53.88 kcal/mol

--------
ENTHALPY
--------

The enthalpy is H = U + kB*T
                kB is Boltzmann's constant
Total thermal energy              ...   -210.04257287 Eh
Thermal Enthalpy correction       ...      0.00094421 Eh       0.59 kcal/mol
-----------------------------------------------------------------------
Total Enthalpy                    ...   -210.04162867 Eh

Note: Rotational entropy computed according to Herzberg
Infrared and Raman Spectra, Chapter V,1, Van Nostrand Reinhold, 1945
Point Group:  C2v, Symmetry Number:   2
Rotational constants in cm-1:     0.305425     0.300164     0.151386

Vibrational entropy computed according to the QRRHO of S. Grimme
Chem.Eur.J. 2012 18 9955 using a reference frequency of 100.0 cm-1

-------
ENTROPY
-------

The entropy contributions are T*S = T*(S(el)+S(vib)+S(rot)+S(trans))
     S(el)   - electronic entropy
     S(vib)  - vibrational entropy
     S(rot)  - rotational entropy
     S(trans)- translational entropy
The entropies will be listed as multiplied by the temperature to get
units of energy

Electronic entropy                ...      0.00000000 Eh      0.00 kcal/mol
Vibrational entropy               ...      0.00145463 Eh      0.91 kcal/mol
Rotational entropy                ...      0.01087567 Eh      6.82 kcal/mol
Translational entropy             ...      0.01830598 Eh     11.49 kcal/mol
-----------------------------------------------------------------------
Final entropy term                ...      0.03063629 Eh     19.22 kcal/mol

In case the symmetry of your molecule has not been determined correctly
or in case you have a reason to use a different symmetry number we print
out the resulting rotational entropy values for sn=1,12:

 non-linear molecules -----------------------------------
|  sn= 1 | S(rot)=       0.01153013 Eh      7.24 kcal/mol|
|  sn= 2 | S(rot)=       0.01087567 Eh      6.82 kcal/mol|
|  sn= 3 | S(rot)=       0.01049284 Eh      6.58 kcal/mol|
|  sn= 4 | S(rot)=       0.01022122 Eh      6.41 kcal/mol|
|  sn= 5 | S(rot)=       0.01001053 Eh      6.28 kcal/mol|
|  sn= 6 | S(rot)=       0.00983838 Eh      6.17 kcal/mol|
|  sn= 7 | S(rot)=       0.00969284 Eh      6.08 kcal/mol|
|  sn= 8 | S(rot)=       0.00956676 Eh      6.00 kcal/mol|
|  sn= 9 | S(rot)=       0.00945555 Eh      5.93 kcal/mol|
|  sn=10 | S(rot)=       0.00935607 Eh      5.87 kcal/mol|
|  sn=11 | S(rot)=       0.00926608 Eh      5.81 kcal/mol|
|  sn=12 | S(rot)=       0.00918393 Eh      5.76 kcal/mol|
 linear molecules ---------------------------------------
|  Dinfh | S(rot)=       0.00710835 Eh      4.46 kcal/mol|
|  Cinfv | S(rot)=       0.00776280 Eh      4.87 kcal/mol|
 --------------------------------------------------------

-------------------
GIBBS FREE ENERGY
-------------------

The Gibbs free energy is G = H - T*S

Total enthalpy                    ...   -210.04162867 Eh
Total entropy correction          ...     -0.03063629 Eh    -19.22 kcal/mol
-----------------------------------------------------------------------
Final Gibbs free energy         ...   -210.07226495 Eh

For completeness - the Gibbs free energy minus the electronic energy
G-E(el)                           ...      0.05617798 Eh     35.25 kcal/mol

                             ****ORCA TERMINATED NORMALLY****
TOTAL RUN TIME: 0 days 0 hours 3 minutes 36 seconds 448 msec
