                         Program Version 6.0.0  -   RELEASE  -
|  1> ! r2SCAN-3c DEF2-TZVP FREQ
|  2> * xyzfile 0 1 vacuum_censo.xyz
|  3>
|  4>                          ****END OF INPUT****

CARTESIAN COORDINATES (ANGSTROEM)
---------------------------------
  C     -0.982954    0.710491    0.000024
  C     -0.983108   -0.710299   -0.000036
  C      0.330086   -1.124355    0.000053
  N      1.118371   -0.000127    0.000127
  C      0.330327    1.124268    0.000133
  H     -1.847382    1.357131   -0.000034
  H     -1.847672   -1.356753   -0.000145
  H      0.762482   -2.113316    0.000026
  H      2.122848   -0.000247    0.000406
  H      0.762924    2.113141    0.000203

 Total Charge           Charge          ....    0
 Multiplicity           Mult            ....    1
 Number of Electrons    NEL             ....   36
 Basis Dimension        Dim             ....  185

ORBITAL ENERGIES
----------------

  NO   OCC          E(Eh)            E(eV)
   0   2.0000     -14.205816      -386.5599
   1   2.0000     -10.048188      -273.4251
   2   2.0000     -10.048179      -273.4249
   3   2.0000     -10.013416      -272.4789
   4   2.0000     -10.013080      -272.4698
   5   2.0000      -0.938515       -25.5383
   6   2.0000      -0.736584       -20.0435
   7   2.0000      -0.684562       -18.6279
   8   2.0000      -0.555836       -15.1251
   9   2.0000      -0.530212       -14.4278
  10   2.0000      -0.509627       -13.8677
  11   2.0000      -0.395218       -10.7544
  12   2.0000      -0.389662       -10.6032
  13   2.0000      -0.376603       -10.2479
  14   2.0000      -0.353803        -9.6275
  15   2.0000      -0.341654        -9.2969
  16   2.0000      -0.222379        -6.0513
  17   2.0000      -0.192474        -5.2375
  18   0.0000       0.009166         0.2494
  19   0.0000       0.045725         1.2442
  20   0.0000       0.051400         1.3987
  21   0.0000       0.099128         2.6974
  22   0.0000       0.117478         3.1967

MULLIKEN ATOMIC CHARGES
-----------------------
   0 C :   -0.178888
   1 C :   -0.178897
   2 C :   -0.066454
   3 N :   -0.215873
   4 C :   -0.066460
   5 H :    0.108102
   6 H :    0.108102
   7 H :    0.131769
   8 H :    0.226829
   9 H :    0.131769
Sum of atomic charges:   -0.0000000

LOEWDIN ATOMIC CHARGES
----------------------
   0 C :   -0.202636
   1 C :   -0.202636
   2 C :   -0.240543
   3 N :    0.176502
   4 C :   -0.240544
   5 H :    0.134452
   6 H :    0.134452
   7 H :    0.128208
   8 H :    0.184537
   9 H :    0.128208

  Mayer bond orders larger than 0.100000
B(  0-C ,  1-C ) :   1.3056 B(  0-C ,  4-C ) :   1.5725 B(  0-C ,  5-H ) :   0.9834
B(  1-C ,  2-C ) :   1.5725 B(  1-C ,  6-H ) :   0.9834 B(  2-C ,  3-N ) :   1.1654
B(  2-C ,  4-C ) :   0.1083 B(  2-C ,  7-H ) :   0.9596 B(  3-N ,  4-C ) :   1.1654
B(  3-N ,  8-H ) :   0.9227 B(  4-C ,  9-H ) :   0.9596

Dispersion correction           -0.002310786
FINAL SINGLE POINT ENERGY      -210.128504705728

DIPOLE MOMENT
-------------

Method             : SCF
Type of density    : Electron Density
Multiplicity       :   1
Irrep              :   0
Energy             :  -210.1312005577501054 Eh
Relativity type    :
Basis              : AO
                                X                 Y                 Z
Electronic contribution:      0.793119922      -0.000079840       0.000021821
Nuclear contribution   :     -0.033247842      -0.000004596       0.000126817
                        -----------------------------------------
Total Dipole Moment    :      0.759872079      -0.000084436       0.000148638
                        -----------------------------------------
Magnitude (a.u.)       :      0.759872098
Magnitude (Debye)      :      1.931441380

VIBRATIONAL FREQUENCIES
-----------------------

Scaling factor for frequencies =  1.000000000  (already applied!)

     0:       0.00 cm**-1
     1:       0.00 cm**-1
     2:       0.00 cm**-1
     3:       0.00 cm**-1
     4:       0.00 cm**-1
     5:       0.00 cm**-1
     6:     469.18 cm**-1
     7:     630.82 cm**-1
     8:     645.11 cm**-1
     9:     668.10 cm**-1
    10:     716.99 cm**-1
    11:     810.26 cm**-1
    12:     857.12 cm**-1
    13:     882.21 cm**-1
    14:     903.79 cm**-1
    15:    1032.51 cm**-1
    16:    1064.01 cm**-1
    17:    1092.34 cm**-1
    18:    1159.33 cm**-1
    19:    1169.40 cm**-1
    20:    1304.22 cm**-1
    21:    1415.01 cm**-1
    22:    1443.85 cm**-1
    23:    1492.99 cm**-1
    24:    1567.30 cm**-1
    25:    3230.16 cm**-1
    26:    3239.78 cm**-1
    27:    3252.21 cm**-1
    28:    3259.14 cm**-1
    29:    3668.40 cm**-1

IR SPECTRUM
-----------

 Mode   freq       eps      Int      T**2         TX        TY        TZ
       cm**-1   L/(mol*cm) km/mol    a.u.
----------------------------------------------------------------------------
  6:    469.18   0.013227   66.85  0.008798  ( 0.000006 -0.000001  0.093796)
  7:    630.82   0.000000    0.00  0.000000  (-0.000007 -0.000000 -0.000001)
  8:    645.11   0.000054    0.27  0.000026  ( 0.000006  0.000004  0.005128)
  9:    668.10   0.000000    0.00  0.000000  ( 0.000002 -0.000023 -0.000001)
 10:    716.99   0.031816  160.79  0.013848  ( 0.000033  0.000005  0.117677)
 11:    810.26   0.000493    2.49  0.000190  (-0.000002 -0.000003  0.013784)
 12:    857.12   0.000000    0.00  0.000000  (-0.000005  0.000001  0.000002)
 13:    882.21   0.000260    1.31  0.000092  ( 0.000002  0.009594  0.000001)
 14:    903.79   0.000035    0.18  0.000012  (-0.003489  0.000000 -0.000004)
 15:   1032.51   0.006438   32.54  0.001946  (-0.044111  0.000007 -0.000005)
 16:   1064.01   0.005696   28.79  0.001671  ( 0.000006  0.040874  0.000002)
 17:   1092.34   0.001199    6.06  0.000343  (-0.018509  0.000001 -0.000002)
 18:   1159.33   0.000450    2.28  0.000121  ( 0.000001 -0.011009 -0.000000)
 19:   1169.40   0.000347    1.76  0.000093  (-0.009627 -0.000001 -0.000001)
 20:   1304.22   0.000224    1.13  0.000054  ( 0.000001  0.007318  0.000000)
 21:   1415.01   0.000649    3.28  0.000143  ( 0.011965 -0.000001  0.000001)
 22:   1443.85   0.001292    6.53  0.000279  ( 0.000002  0.016708  0.000001)
 23:   1492.99   0.001444    7.30  0.000302  ( 0.017371 -0.000002  0.000002)
 24:   1567.30   0.000502    2.54  0.000100  (-0.000001 -0.009999 -0.000000)
 25:   3230.16   0.000395    1.99  0.000038  (-0.000003  0.006175  0.000000)
 26:   3239.78   0.000625    3.16  0.000060  (-0.007758  0.000000 -0.000001)
 27:   3252.21   0.000582    2.94  0.000056  (-0.000002 -0.007476 -0.000000)
 28:   3259.14   0.000021    0.11  0.000002  ( 0.001426  0.000002 -0.000000)
 29:   3668.40   0.012572   63.54  0.001070  ( 0.032703 -0.000004  0.000008)

--------------------------
THERMOCHEMISTRY AT 298.15K
--------------------------

Temperature         ...   298.15 K
Pressure            ...     1.00 atm
Total Mass          ...    67.09 AMU
Quasi RRHO          ...     True
Cut-Off Frequency   ...     1.00 cm^-1

Throughout the following assumptions are being made:
  (1) The electronic state is orbitally nondegenerate
  (2) There are no thermally accessible electronically excited states
  (3) Hindered rotations indicated by low frequency modes are not
      treated as such but are treated as vibrations and this may
      cause some error
  (4) All equations used are the standard statistical mechanics
      equations for an ideal gas
  (5) All vibrations are strictly harmonic

freq.     469.18  E(vib)   ...       0.16
freq.     630.82  E(vib)   ...       0.09
freq.     645.11  E(vib)   ...       0.09
freq.     668.10  E(vib)   ...       0.08
freq.     716.99  E(vib)   ...       0.07
freq.     810.26  E(vib)   ...       0.05
freq.     857.12  E(vib)   ...       0.04
freq.     882.21  E(vib)   ...       0.04
freq.     903.79  E(vib)   ...       0.03
freq.    1032.51  E(vib)   ...       0.02
freq.    1064.01  E(vib)   ...       0.02
freq.    1092.34  E(vib)   ...       0.02
freq.    1159.33  E(vib)   ...       0.01
freq.    1169.40  E(vib)   ...       0.01
freq.    1304.22  E(vib)   ...       0.01
freq.    1415.01  E(vib)   ...       0.00
freq.    1443.85  E(vib)   ...       0.00
freq.    1492.99  E(vib)   ...       0.00
freq.    1567.30  E(vib)   ...       0.00
freq.    3230.16  E(vib)   ...       0.00
freq.    3239.78  E(vib)   ...       0.00
freq.    3252.21  E(vib)   ...       0.00
freq.    3259.14  E(vib)   ...       0.00
freq.    3668.40  E(vib)   ...       0.00

------------
INNER ENERGY
------------

The inner energy is: U= E(el) + E(ZPE) + E(vib) + E(rot) + E(trans)
    E(el)   - is the total energy from the electronic structure calculation
              = E(kin-el) + E(nuc-el) + E(el-el) + E(nuc-nuc)
    E(ZPE)  - the the zero temperature vibrational energy from the frequency calculation
    E(vib)  - the the finite temperature correction to E(ZPE) due to population
              of excited vibrational states
    E(rot)  - is the rotational thermal energy
    E(trans)- is the translational thermal energy

Summary of contributions to the inner energy U:
Electronic energy                ...   -210.12850471 Eh
Zero point energy                ...      0.08195532 Eh      51.43 kcal/mol
Thermal vibrational correction   ...      0.00116916 Eh       0.73 kcal/mol
Thermal rotational correction    ...      0.00141627 Eh       0.89 kcal/mol
Thermal translational correction ...      0.00141627 Eh       0.89 kcal/mol
-----------------------------------------------------------------------
Total thermal energy                   -210.04254769 Eh

Summary of corrections to the electronic energy:
(perhaps to be used in another calculation)
Total thermal correction                  0.00400170 Eh       2.51 kcal/mol
Non-thermal (ZPE) correction              0.08195532 Eh      51.43 kcal/mol
-----------------------------------------------------------------------
Total correction                          0.08595702 Eh      53.94 kcal/mol

--------
ENTHALPY
--------

The enthalpy is H = U + kB*T
                kB is Boltzmann's constant
Total thermal energy              ...   -210.04254769 Eh
Thermal Enthalpy correction       ...      0.00094421 Eh       0.59 kcal/mol
-----------------------------------------------------------------------
Total Enthalpy                    ...   -210.04160348 Eh

Note: Rotational entropy computed according to Herzberg
Infrared and Raman Spectra, Chapter V,1, Van Nostrand Reinhold, 1945
Point Group:  Cs, Symmetry Number:   1
Rotational constants in cm-1:     0.305372     0.301305     0.151663

Vibrational entropy computed according to the QRRHO of S. Grimme
Chem.Eur.J. 2012 18 9955 using a reference frequency of 100.0 cm-1

-------
ENTROPY
-------

The entropy contributions are T*S = T*(S(el)+S(vib)+S(rot)+S(trans))
     S(el)   - electronic entropy
     S(vib)  - vibrational entropy
     S(rot)  - rotational entropy
     S(trans)- translational entropy
The entropies will be listed as multiplied by the temperature to get
units of energy

Electronic entropy                ...      0.00000000 Eh      0.00 kcal/mol
Vibrational entropy               ...      0.00152030 Eh      0.95 kcal/mol
Rotational entropy                ...      0.01152756 Eh      7.23 kcal/mol
Translational entropy             ...      0.01830598 Eh     11.49 kcal/mol
-----------------------------------------------------------------------
Final entropy term                ...      0.03135384 Eh     19.67 kcal/mol

In case the symmetry of your molecule has not been determined correctly
or in case you have a reason to use a different symmetry number we print
out the resulting rotational entropy values for sn=1,12:

 non-linear molecules -----------------------------------
|  sn= 1 | S(rot)=       0.01152756 Eh      7.23 kcal/mol|
|  sn= 2 | S(rot)=       0.01087310 Eh      6.82 kcal/mol|
|  sn= 3 | S(rot)=       0.01049027 Eh      6.58 kcal/mol|
|  sn= 4 | S(rot)=       0.01021865 Eh      6.41 kcal/mol|
|  sn= 5 | S(rot)=       0.01000796 Eh      6.28 kcal/mol|
|  sn= 6 | S(rot)=       0.00983581 Eh      6.17 kcal/mol|
|  sn= 7 | S(rot)=       0.00969027 Eh      6.08 kcal/mol|
|  sn= 8 | S(rot)=       0.00956419 Eh      6.00 kcal/mol|
|  sn= 9 | S(rot)=       0.00945298 Eh      5.93 kcal/mol|
|  sn=10 | S(rot)=       0.00935350 Eh      5.87 kcal/mol|
|  sn=11 | S(rot)=       0.00926351 Eh      5.81 kcal/mol|
|  sn=12 | S(rot)=       0.00918136 Eh      5.76 kcal/mol|
 linear molecules ---------------------------------------
|  Dinfh | S(rot)=       0.00710662 Eh      4.46 kcal/mol|
|  Cinfv | S(rot)=       0.00776108 Eh      4.87 kcal/mol|
 --------------------------------------------------------

-------------------
GIBBS FREE ENERGY
-------------------

The Gibbs free energy is G = H - T*S

Total enthalpy                    ...   -210.04160348 Eh
Total entropy correction          ...     -0.03135384 Eh    -19.67 kcal/mol
-----------------------------------------------------------------------
Final Gibbs free energy         ...   -210.07295732 Eh

For completeness - the Gibbs free energy minus the electronic energy
G-E(el)                           ...      0.05554739 Eh     34.86 kcal/mol

                             ****ORCA TERMINATED NORMALLY****
TOTAL RUN TIME: 0 days 0 hours 3 minutes 37 seconds 283 msec
