                         Program Version 6.0.1  -  RELEASE   -
|  1> ! pbe def2-sv(p) def2/J RI DEFGRID1 loosescf d4 GCP(DFT/SV(P)) printgap
|  2> %output
|  3>     printlevel normal
|  4> end
|  5> * xyz 0 1
|  6> C -1.5875894475 1.6948214297 0.3659922151
|  7> C -1.5875113797 0.238845237 0.824667846
|  8> C -2.2502809269 -0.6803147804 -0.2140014424
|  9> C -0.1765132019 -0.2226662875 1.1670066112
| 10> Br 1.0193620536 -0.1901246786 -0.3791671766
| 11> H -1.1338359364 2.33747683 1.1185826855
| 12> H -1.0294076008 1.8017372601 -0.5619332084
| 13> H -2.6060453436 2.0350115432 0.1958131586
| 14> H -2.1469045595 0.1794760159 1.7672388151
| 15> H -1.5605136671 -1.4456333967 -0.5621578699
| 16> H -2.5709286128 -0.1109220338 -1.0823907589
| 17> H -3.1211838797 -1.1803684482 0.2018116759
| 18> H -0.1709926295 -1.2520153963 1.5245073633
| 19> H 0.2841070839 0.4253533057 1.9122804981
| 20> *
| 21>
| 22>                          ****END OF INPUT****

CARTESIAN COORDINATES (ANGSTROEM)
---------------------------------
  C     -1.587589    1.694821    0.365992
  C     -1.587511    0.238845    0.824668
  C     -2.250281   -0.680315   -0.214001
  C     -0.176513   -0.222666    1.167007
  Br     1.019362   -0.190125   -0.379167
  H     -1.133836    2.337477    1.118583
  H     -1.029408    1.801737   -0.561933
  H     -2.606045    2.035012    0.195813
  H     -2.146905    0.179476    1.767239
  H     -1.560514   -1.445633   -0.562158
  H     -2.570929   -0.110922   -1.082391
  H     -3.121184   -1.180368    0.201812
  H     -0.170993   -1.252015    1.524507
  H      0.284107    0.425353    1.912280

 Total Charge           Charge          ....    0
 Multiplicity           Mult            ....    1
 Number of Electrons    NEL             ....   68
 Basis Dimension        Dim             ....  106

ORBITAL ENERGIES
----------------

  NO   OCC          E(Eh)            E(eV)
   0   2.0000    -480.920094    -13086.5011
   1   2.0000     -61.762225     -1680.6356
   2   2.0000     -55.692802     -1515.4782
   3   2.0000     -55.689763     -1515.3955
   4   2.0000     -55.689691     -1515.3935
   5   2.0000      -9.936875      -270.3961
   6   2.0000      -9.910142      -269.6687
   7   2.0000      -9.876379      -268.7499
   8   2.0000      -9.876028      -268.7404
   9   2.0000      -8.387334      -228.2309
  10   2.0000      -6.269078      -170.5903
  11   2.0000      -6.255095      -170.2098
  12   2.0000      -6.254850      -170.2031
  13   2.0000      -2.470237       -67.2186
  14   2.0000      -2.466887       -67.1274
  15   2.0000      -2.466682       -67.1218
  16   2.0000      -2.456159       -66.8355
  17   2.0000      -2.456157       -66.8354
  18   2.0000      -0.756831       -20.5944
  19   2.0000      -0.693954       -18.8834
  20   2.0000      -0.615976       -16.7616
  21   2.0000      -0.602114       -16.3843
  22   2.0000      -0.500891       -13.6299
  23   2.0000      -0.429161       -11.6781
  24   2.0000      -0.414100       -11.2682
  25   2.0000      -0.395775       -10.7696
  26   2.0000      -0.350321        -9.5327
  27   2.0000      -0.346784        -9.4365
  28   2.0000      -0.332673        -9.0525
  29   2.0000      -0.307216        -8.3598
  30   2.0000      -0.298841        -8.1319
  31   2.0000      -0.290054        -7.8928
  32   2.0000      -0.234348        -6.3769
  33   2.0000      -0.231433        -6.2976
  34   0.0000      -0.018920        -0.5148
  35   0.0000       0.029685         0.8078
  36   0.0000       0.073769         2.0074
  37   0.0000       0.079207         2.1553
  38   0.0000       0.085987         2.3398

MULLIKEN ATOMIC CHARGES
-----------------------
   0 C :   -0.258741
   1 C :   -0.165922
   2 C :   -0.248663
   3 C :   -0.212655
   4 Br:   -0.124236
   5 H :    0.096951
   6 H :    0.119492
   7 H :    0.106824
   8 H :    0.090604
   9 H :    0.113323
  10 H :    0.104227
  11 H :    0.101341
  12 H :    0.141189
  13 H :    0.136266
Sum of atomic charges:    0.0000000

LOEWDIN ATOMIC CHARGES
----------------------
   0 C :   -0.336933
   1 C :   -0.174062
   2 C :   -0.339465
   3 C :   -0.270187
   4 Br:    0.017273
   5 H :    0.116715
   6 H :    0.119763
   7 H :    0.119937
   8 H :    0.126080
   9 H :    0.121085
  10 H :    0.124475
  11 H :    0.122665
  12 H :    0.126505
  13 H :    0.126146

  Mayer bond orders larger than 0.100000
B(  0-C ,  1-C ) :   1.1254 B(  0-C ,  5-H ) :   0.9510 B(  0-C ,  6-H ) :   0.9378
B(  0-C ,  7-H ) :   0.9489 B(  1-C ,  2-C ) :   1.0784 B(  1-C ,  3-C ) :   1.0766
B(  1-C ,  8-H ) :   0.8962 B(  2-C ,  9-H ) :   0.9508 B(  2-C , 10-H ) :   0.9575
B(  2-C , 11-H ) :   0.9512 B(  3-C ,  4-Br) :   1.0313 B(  3-C , 12-H ) :   0.9257
B(  3-C , 13-H ) :   0.9237

Dispersion correction           -0.011333573
FINAL SINGLE POINT ENERGY     -2730.882380289029

DIPOLE MOMENT
-------------

Method             : SCF
Type of density    : Electron Density
Multiplicity       :   1
Irrep              :   0
Energy             : -2730.9358004776936468 Eh
Relativity type    :
Basis              : AO
                                X                 Y                 Z
Electronic contribution:     22.121754535      -4.373888505      -7.248869476
Nuclear contribution   :    -22.651545902       4.382935590       7.755277000
                        -----------------------------------------
Total Dipole Moment    :     -0.529791367       0.009047085       0.506407524
                        -----------------------------------------
Magnitude (a.u.)       :      0.732945648
Magnitude (Debye)      :      1.862999781

Rotational constants in cm-1:             0.184439             0.057273             0.053412
Rotational constants in MHz :          5529.332774          1717.009631          1601.264938

                             ****ORCA TERMINATED NORMALLY****
TOTAL RUN TIME: 0 days 0 hours 0 minutes 6 seconds 418 msec
