                         Program Version 6.0.1  -  RELEASE   -
|  1> ! r2scan-3c def2/J RI DEFGRID2 scfconv6 printgap
|  2> %output
|  3>     printlevel normal
|  4> end
|  5> * xyz 0 1
|  6> C -2.6331259653 -0.6088023115 -0.7600142235
|  7> C -1.8523120464 -0.5706620339 0.5546491271
|  8> C -0.3852014411 -0.3849603623 0.2952739866
|  9> C 0.4791371235 -1.4649801073 0.2212610082
| 10> C 1.82685327 -1.2961232521 -0.0485587775
| 11> C 2.3298728895 -0.024335921 -0.2495173954
| 12> C 1.485062635 1.0691277546 -0.1809938887
| 13> C 0.1336490813 0.8968531683 0.0854084612
| 14> O -0.7171236213 1.9620182804 0.1559505836
| 15> H -2.2764870852 -1.4212696027 -1.3898261657
| 16> H -2.5046767924 0.3274877917 -1.2969304704
| 17> H -3.6932990504 -0.7559921638 -0.5674201221
| 18> H -2.0124370476 -1.501957941 1.1013351502
| 19> H -2.2179172963 0.2594086904 1.1610361926
| 20> H 0.0850708061 -2.4582919585 0.3819536476
| 21> H 2.4804069667 -2.1537707774 -0.1002556917
| 22> H 3.3788447934 0.1225967692 -0.459460195
| 23> H 1.8738136556 2.0679049586 -0.3364930796
| 24> H -0.2218636293 2.7772081946 0.0135436845
| 25> *
| 26>
| 27>                          ****END OF INPUT****

CARTESIAN COORDINATES (ANGSTROEM)
---------------------------------
  C     -2.633126   -0.608802   -0.760014
  C     -1.852312   -0.570662    0.554649
  C     -0.385201   -0.384960    0.295274
  C      0.479137   -1.464980    0.221261
  C      1.826853   -1.296123   -0.048559
  C      2.329873   -0.024336   -0.249517
  C      1.485063    1.069128   -0.180994
  C      0.133649    0.896853    0.085408
  O     -0.717124    1.962018    0.155951
  H     -2.276487   -1.421270   -1.389826
  H     -2.504677    0.327488   -1.296930
  H     -3.693299   -0.755992   -0.567420
  H     -2.012437   -1.501958    1.101335
  H     -2.217917    0.259409    1.161036
  H      0.085071   -2.458292    0.381954
  H      2.480407   -2.153771   -0.100256
  H      3.378845    0.122597   -0.459460
  H      1.873814    2.067905   -0.336493
  H     -0.221864    2.777208    0.013544

 Total Charge           Charge          ....    0
 Multiplicity           Mult            ....    1
 Number of Electrons    NEL             ....   66
 Basis Dimension        Dim             ....  226

ORBITAL ENERGIES
----------------

  NO   OCC          E(Eh)            E(eV)
   0   2.0000     -18.986189      -516.6405
   1   2.0000     -10.093072      -274.6464
   2   2.0000     -10.035329      -273.0752
   3   2.0000     -10.033215      -273.0177
   4   2.0000     -10.032586      -273.0005
   5   2.0000     -10.030072      -272.9321
   6   2.0000     -10.028149      -272.8798
   7   2.0000     -10.024618      -272.7837
   8   2.0000     -10.014686      -272.5135
   9   2.0000      -1.030523       -28.0419
  10   2.0000      -0.823643       -22.4125
  11   2.0000      -0.755181       -20.5495
  12   2.0000      -0.707752       -19.2589
  13   2.0000      -0.688609       -18.7380
  14   2.0000      -0.599302       -16.3078
  15   2.0000      -0.593350       -16.1459
  16   2.0000      -0.544600       -14.8193
  17   2.0000      -0.511716       -13.9245
  18   2.0000      -0.459440       -12.5020
  19   2.0000      -0.446590       -12.1523
  20   2.0000      -0.409951       -11.1553
  21   2.0000      -0.398117       -10.8333
  22   2.0000      -0.392482       -10.6800
  23   2.0000      -0.381548       -10.3824
  24   2.0000      -0.366450        -9.9716
  25   2.0000      -0.343843        -9.3564
  26   2.0000      -0.334075        -9.0906
  27   2.0000      -0.327959        -8.9242
  28   2.0000      -0.310693        -8.4544
  29   2.0000      -0.301990        -8.2176
  30   2.0000      -0.293288        -7.9808
  31   2.0000      -0.229242        -6.2380
  32   2.0000      -0.202152        -5.5008
  33   0.0000      -0.028892        -0.7862
  34   0.0000      -0.013697        -0.3727
  35   0.0000       0.054727         1.4892
  36   0.0000       0.086189         2.3453
  37   0.0000       0.094219         2.5638

MULLIKEN ATOMIC CHARGES
-----------------------
   0 C :   -0.485519
   1 C :   -0.274871
   2 C :    0.050077
   3 C :   -0.197264
   4 C :   -0.193205
   5 C :   -0.133634
   6 C :   -0.336074
   7 C :    0.345779
   8 O :   -0.410308
   9 H :    0.145470
  10 H :    0.160613
  11 H :    0.146290
  12 H :    0.143427
  13 H :    0.158788
  14 H :    0.148766
  15 H :    0.144762
  16 H :    0.146483
  17 H :    0.132880
  18 H :    0.307542
Sum of atomic charges:   -0.0000000

LOEWDIN ATOMIC CHARGES
----------------------
   0 C :   -0.402898
   1 C :   -0.275891
   2 C :   -0.074367
   3 C :   -0.150554
   4 C :   -0.186525
   5 C :   -0.161349
   6 C :   -0.170317
   7 C :    0.186783
   8 O :   -0.509198
   9 H :    0.152176
  10 H :    0.158125
  11 H :    0.148924
  12 H :    0.159153
  13 H :    0.173525
  14 H :    0.169910
  15 H :    0.166363
  16 H :    0.167366
  17 H :    0.167294
  18 H :    0.281480

  Mayer bond orders larger than 0.100000
B(  0-C ,  1-C ) :   0.9109 B(  0-C ,  9-H ) :   0.9780 B(  0-C , 10-H ) :   0.9814
B(  0-C , 11-H ) :   0.9743 B(  1-C ,  2-C ) :   0.7801 B(  1-C , 12-H ) :   0.9871
B(  1-C , 13-H ) :   0.9932 B(  2-C ,  3-C ) :   1.3798 B(  2-C ,  7-C ) :   1.5230
B(  3-C ,  4-C ) :   1.4247 B(  3-C , 14-H ) :   0.9383 B(  4-C ,  5-C ) :   1.4439
B(  4-C , 15-H ) :   0.9446 B(  5-C ,  6-C ) :   1.3991 B(  5-C , 16-H ) :   0.9403
B(  6-C ,  7-C ) :   1.2860 B(  6-C , 17-H ) :   0.9550 B(  7-C ,  8-O ) :   0.9485
B(  8-O , 18-H ) :   0.8860

Dispersion correction           -0.006242916
FINAL SINGLE POINT ENERGY      -386.001990753549

DIPOLE MOMENT
-------------

Method             : SCF
Type of density    : Electron Density
Multiplicity       :   1
Irrep              :   0
Energy             :  -386.0025602413126080 Eh
Relativity type    :
Basis              : AO
                                X                 Y                 Z
Electronic contribution:      5.005957087       2.886790030       1.319287137
Nuclear contribution   :     -4.803304665      -2.538386633      -1.397921619
                        -----------------------------------------
Total Dipole Moment    :      0.202652422       0.348403398      -0.078634483
                        -----------------------------------------
Magnitude (a.u.)       :      0.410653520
Magnitude (Debye)      :      1.043798295

Rotational constants in cm-1:             0.088743             0.048745             0.034132
Rotational constants in MHz :          2660.440467          1461.337125          1023.242314

                             ****ORCA TERMINATED NORMALLY****
TOTAL RUN TIME: 0 days 0 hours 0 minutes 23 seconds 828 msec
