                         Program Version 6.0.1  -  RELEASE   -
|  1> ! pbe def2-sv(p) def2/J RI DEFGRID1 loosescf d4 GCP(DFT/SV(P)) printgap
|  2> %output
|  3>     printlevel normal
|  4> end
|  5> * xyz 0 1
|  6> C -2.2821947627 -0.8885819684 0.7752859641
|  7> C -0.8346684112 -0.3832519128 0.7557574762
|  8> H -0.544912275 -0.0855718572 1.77143832
|  9> C -0.645767496 0.8183218167 -0.1868718805
| 10> H -0.8489681231 0.4872689065 -1.2177184957
| 11> C 0.8133285329 1.3147401697 -0.1130846884
| 12> H 0.8504826063 2.1334466998 0.6111053319
| 13> C 1.7554191306 0.190764752 0.3695144215
| 14> H 2.742783128 0.3721756147 -0.0812643411
| 15> C 1.2402134319 -1.1577312696 -0.1577286993
| 16> H 1.9020200289 -1.9803970299 0.1707471419
| 17> O -0.0284872109 -1.484787297 0.327594577
| 18> O 1.2487512842 -1.0751250794 -1.5601164214
| 19> O 1.829215688 0.2084813022 1.7698733549
| 20> O 1.2533509853 1.8376539514 -1.3316591929
| 21> O -1.4888804353 1.884025504 0.1613416086
| 22> O -2.7783037827 -1.1421659713 -0.5138353775
| 23> H -2.9301475894 -0.1314191525 1.2198669569
| 24> H -2.3199569703 -1.7947258193 1.393564831
| 25> H 0.881846755 -1.8903836791 -1.9225344674
| 26> H 2.4615250267 -0.4548249091 2.0694680311
| 27> H 1.2773490326 1.1162290582 -1.9754609231
| 28> H -2.3881621082 1.6684490919 -0.1107186578
| 29> H -2.2018253908 -1.8007565366 -0.9186788451
| 30> *
| 31>
| 32>                          ****END OF INPUT****

CARTESIAN COORDINATES (ANGSTROEM)
---------------------------------
  C     -2.282195   -0.888582    0.775286
  C     -0.834668   -0.383252    0.755757
  H     -0.544912   -0.085572    1.771438
  C     -0.645767    0.818322   -0.186872
  H     -0.848968    0.487269   -1.217718
  C      0.813329    1.314740   -0.113085
  H      0.850483    2.133447    0.611105
  C      1.755419    0.190765    0.369514
  H      2.742783    0.372176   -0.081264
  C      1.240213   -1.157731   -0.157729
  H      1.902020   -1.980397    0.170747
  O     -0.028487   -1.484787    0.327595
  O      1.248751   -1.075125   -1.560116
  O      1.829216    0.208481    1.769873
  O      1.253351    1.837654   -1.331659
  O     -1.488880    1.884026    0.161342
  O     -2.778304   -1.142166   -0.513835
  H     -2.930148   -0.131419    1.219867
  H     -2.319957   -1.794726    1.393565
  H      0.881847   -1.890384   -1.922534
  H      2.461525   -0.454825    2.069468
  H      1.277349    1.116229   -1.975461
  H     -2.388162    1.668449   -0.110719
  H     -2.201825   -1.800757   -0.918679

 Total Charge           Charge          ....    0
 Multiplicity           Mult            ....    1
 Number of Electrons    NEL             ....   96
 Basis Dimension        Dim             ....  192

ORBITAL ENERGIES
----------------

  NO   OCC          E(Eh)            E(eV)
   0   2.0000     -18.781714      -511.0764
   1   2.0000     -18.780079      -511.0319
   2   2.0000     -18.765584      -510.6375
   3   2.0000     -18.754763      -510.3431
   4   2.0000     -18.747058      -510.1334
   5   2.0000     -18.734174      -509.7828
   6   2.0000      -9.997550      -272.0472
   7   2.0000      -9.946976      -270.6710
   8   2.0000      -9.936871      -270.3960
   9   2.0000      -9.935498      -270.3586
  10   2.0000      -9.934068      -270.3197
  11   2.0000      -9.934007      -270.3181
  12   2.0000      -0.994281       -27.0558
  13   2.0000      -0.943806       -25.6823
  14   2.0000      -0.939154       -25.5557
  15   2.0000      -0.928837       -25.2749
  16   2.0000      -0.921246       -25.0684
  17   2.0000      -0.912058       -24.8183
  18   2.0000      -0.699362       -19.0306
  19   2.0000      -0.693154       -18.8617
  20   2.0000      -0.626589       -17.0504
  21   2.0000      -0.585899       -15.9431
  22   2.0000      -0.569138       -15.4870
  23   2.0000      -0.522364       -14.2142
  24   2.0000      -0.504284       -13.7223
  25   2.0000      -0.485053       -13.1990
  26   2.0000      -0.475269       -12.9327
  27   2.0000      -0.464773       -12.6471
  28   2.0000      -0.451220       -12.2783
  29   2.0000      -0.443093       -12.0572
  30   2.0000      -0.417851       -11.3703
  31   2.0000      -0.395849       -10.7716
  32   2.0000      -0.378703       -10.3050
  33   2.0000      -0.372761       -10.1433
  34   2.0000      -0.360850        -9.8192
  35   2.0000      -0.358204        -9.7472
  36   2.0000      -0.343372        -9.3436
  37   2.0000      -0.319579        -8.6962
  38   2.0000      -0.301753        -8.2111
  39   2.0000      -0.294106        -8.0030
  40   2.0000      -0.283481        -7.7139
  41   2.0000      -0.272741        -7.4217
  42   2.0000      -0.258190        -7.0257
  43   2.0000      -0.248334        -6.7575
  44   2.0000      -0.233172        -6.3449
  45   2.0000      -0.220436        -5.9984
  46   2.0000      -0.214598        -5.8395
  47   2.0000      -0.202906        -5.5214
  48   0.0000       0.004170         0.1135
  49   0.0000       0.013059         0.3554
  50   0.0000       0.028251         0.7687
  51   0.0000       0.053363         1.4521
  52   0.0000       0.064562         1.7568

MULLIKEN ATOMIC CHARGES
-----------------------
   0 C :    0.052733
   1 C :   -0.000229
   2 H :    0.075163
   3 C :    0.062931
   4 H :    0.025804
   5 C :    0.124941
   6 H :    0.081814
   7 C :   -0.005177
   8 H :    0.080015
   9 C :    0.159459
  10 H :    0.052908
  11 O :   -0.320476
  12 O :   -0.403259
  13 O :   -0.400958
  14 O :   -0.424528
  15 O :   -0.405828
  16 O :   -0.436591
  17 H :    0.087370
  18 H :    0.087426
  19 H :    0.302828
  20 H :    0.302851
  21 H :    0.299240
  22 H :    0.308408
  23 H :    0.293155
Sum of atomic charges:   -0.0000000

LOEWDIN ATOMIC CHARGES
----------------------
   0 C :   -0.132939
   1 C :   -0.084266
   2 H :    0.116462
   3 C :   -0.078218
   4 H :    0.096123
   5 C :   -0.054728
   6 H :    0.130107
   7 C :   -0.089724
   8 H :    0.111557
   9 C :   -0.010145
  10 H :    0.089297
  11 O :   -0.151004
  12 O :   -0.317349
  13 O :   -0.304003
  14 O :   -0.309438
  15 O :   -0.309078
  16 O :   -0.335899
  17 H :    0.114022
  18 H :    0.105370
  19 H :    0.285167
  20 H :    0.288599
  21 H :    0.272993
  22 H :    0.288731
  23 H :    0.278362

  Mayer bond orders larger than 0.100000
B(  0-C ,  1-C ) :   1.0356 B(  0-C , 16-O ) :   1.0571 B(  0-C , 17-H ) :   0.9145
B(  0-C , 18-H ) :   0.9204 B(  1-C ,  2-H ) :   0.8559 B(  1-C ,  3-C ) :   1.0430
B(  1-C , 11-O ) :   0.9504 B(  3-C ,  4-H ) :   0.8396 B(  3-C ,  5-C ) :   1.0255
B(  3-C , 15-O ) :   1.0885 B(  5-C ,  6-H ) :   0.8526 B(  5-C ,  7-C ) :   1.0018
B(  5-C , 14-O ) :   1.0508 B(  7-C ,  8-H ) :   0.8869 B(  7-C ,  9-C ) :   1.0198
B(  7-C , 13-O ) :   1.0333 B(  9-C , 10-H ) :   0.8943 B(  9-C , 11-O ) :   1.0860
B(  9-C , 12-O ) :   1.0962 B( 12-O , 19-H ) :   0.8387 B( 13-O , 20-H ) :   0.8454
B( 14-O , 21-H ) :   0.8342 B( 15-O , 22-H ) :   0.8417 B( 16-O , 23-H ) :   0.8441

Dispersion correction           -0.025183561
FINAL SINGLE POINT ENERGY      -685.692708123641

DIPOLE MOMENT
-------------

Method             : SCF
Type of density    : Electron Density
Multiplicity       :   1
Irrep              :   0
Energy             :  -685.8244451938392103 Eh
Relativity type    :
Basis              : AO
                                X                 Y                 Z
Electronic contribution:      1.441586061       0.514089999      -1.000579411
Nuclear contribution   :     -1.048314096      -2.211180657       0.930388867
                        -----------------------------------------
Total Dipole Moment    :      0.393271966      -1.697090658      -0.070190543
                        -----------------------------------------
Magnitude (a.u.)       :      1.743475337
Magnitude (Debye)      :      4.431562125

Rotational constants in cm-1:             0.040773             0.027078             0.023544
Rotational constants in MHz :          1222.338185           811.768358           705.842810

                             ****ORCA TERMINATED NORMALLY****
TOTAL RUN TIME: 0 days 0 hours 0 minutes 10 seconds 372 msec
