                         Program Version 6.0.1  -  RELEASE   -
|  1> ! r2scan-3c def2/J RI DEFGRID2 scfconv6 printgap
|  2> %output
|  3>     printlevel normal
|  4> end
|  5> * xyz 0 1
|  6> C -1.3803934936 -0.8513372147 0.3898835009
|  7> C -0.5844265671 0.0909614004 -0.513780898
|  8> C -0.6613152818 1.5256815597 0.001204079
|  9> C 0.8819511926 -0.3574926304 -0.6283503048
| 10> O 1.5815520625 -0.3363817585 0.5910914722
| 11> H -2.4377110492 -0.6000874841 0.3540779344
| 12> H -1.0545030822 -0.7648263753 1.425327882
| 13> H -1.2647593156 -1.8852618206 0.0689641059
| 14> H -1.0096115922 0.0470351357 -1.5223560617
| 15> H -0.1440651285 1.6063464062 0.9545461031
| 16> H -1.6965464595 1.8293014028 0.1374082615
| 17> H -0.1887995097 2.2079124488 -0.7011975145
| 18> H 0.920185848 -1.3640623271 -1.0729648528
| 19> H 1.4253052956 0.3265268103 -1.2846091653
| 20> H 1.130147573 -0.9230122019 1.2078993025
| 21> *
| 22>
| 23>                          ****END OF INPUT****

CARTESIAN COORDINATES (ANGSTROEM)
---------------------------------
  C     -1.380393   -0.851337    0.389884
  C     -0.584427    0.090961   -0.513781
  C     -0.661315    1.525682    0.001204
  C      0.881951   -0.357493   -0.628350
  O      1.581552   -0.336382    0.591091
  H     -2.437711   -0.600087    0.354078
  H     -1.054503   -0.764826    1.425328
  H     -1.264759   -1.885262    0.068964
  H     -1.009612    0.047035   -1.522356
  H     -0.144065    1.606346    0.954546
  H     -1.696546    1.829301    0.137408
  H     -0.188800    2.207912   -0.701198
  H      0.920186   -1.364062   -1.072965
  H      1.425305    0.326527   -1.284609
  H      1.130148   -0.923012    1.207899

 Total Charge           Charge          ....    0
 Multiplicity           Mult            ....    1
 Number of Electrons    NEL             ....   42
 Basis Dimension        Dim             ....  150

ORBITAL ENERGIES
----------------

  NO   OCC          E(Eh)            E(eV)
   0   2.0000     -18.947270      -515.5814
   1   2.0000     -10.071150      -274.0499
   2   2.0000     -10.036523      -273.1077
   3   2.0000     -10.024788      -272.7884
   4   2.0000     -10.013420      -272.4790
   5   2.0000      -0.987317       -26.8662
   6   2.0000      -0.766447       -20.8561
   7   2.0000      -0.656043       -17.8518
   8   2.0000      -0.642265       -17.4769
   9   2.0000      -0.537626       -14.6296
  10   2.0000      -0.463911       -12.6237
  11   2.0000      -0.443762       -12.0754
  12   2.0000      -0.416640       -11.3374
  13   2.0000      -0.397011       -10.8032
  14   2.0000      -0.362910        -9.8753
  15   2.0000      -0.352112        -9.5815
  16   2.0000      -0.333067        -9.0632
  17   2.0000      -0.312102        -8.4927
  18   2.0000      -0.304266        -8.2795
  19   2.0000      -0.284415        -7.7393
  20   2.0000      -0.234481        -6.3806
  21   0.0000       0.053423         1.4537
  22   0.0000       0.097213         2.6453
  23   0.0000       0.126774         3.4497
  24   0.0000       0.134348         3.6558
  25   0.0000       0.136187         3.7058

MULLIKEN ATOMIC CHARGES
-----------------------
   0 C :   -0.524781
   1 C :    0.020234
   2 C :   -0.503193
   3 C :   -0.178459
   4 O :   -0.428531
   5 H :    0.154594
   6 H :    0.139950
   7 H :    0.153163
   8 H :    0.140946
   9 H :    0.168516
  10 H :    0.141510
  11 H :    0.144096
  12 H :    0.133164
  13 H :    0.141236
  14 H :    0.297555
Sum of atomic charges:    0.0000000

LOEWDIN ATOMIC CHARGES
----------------------
   0 C :   -0.421829
   1 C :   -0.241568
   2 C :   -0.413661
   3 C :    0.003550
   4 O :   -0.618010
   5 H :    0.158106
   6 H :    0.149847
   7 H :    0.155299
   8 H :    0.159501
   9 H :    0.162839
  10 H :    0.151642
  11 H :    0.155117
  12 H :    0.157174
  13 H :    0.178386
  14 H :    0.263606

  Mayer bond orders larger than 0.100000
B(  0-C ,  1-C ) :   0.8878 B(  0-C ,  5-H ) :   0.9684 B(  0-C ,  6-H ) :   0.9832
B(  0-C ,  7-H ) :   0.9752 B(  1-C ,  2-C ) :   0.9168 B(  1-C ,  3-C ) :   0.9149
B(  1-C ,  8-H ) :   0.9392 B(  2-C ,  9-H ) :   0.9797 B(  2-C , 10-H ) :   0.9748
B(  2-C , 11-H ) :   0.9714 B(  3-C ,  4-O ) :   0.9467 B(  3-C , 12-H ) :   0.9781
B(  3-C , 13-H ) :   0.9784 B(  4-O , 14-H ) :   0.8937

Dispersion correction           -0.003296857
FINAL SINGLE POINT ENERGY      -233.599995896381

DIPOLE MOMENT
-------------

Method             : SCF
Type of density    : Electron Density
Multiplicity       :   1
Irrep              :   0
Energy             :  -233.6052903824507041 Eh
Relativity type    :
Basis              : AO
                                X                 Y                 Z
Electronic contribution:      3.467094234      -0.733199992       0.281476480
Nuclear contribution   :     -4.029732431       0.445206598      -0.397363039
                        -----------------------------------------
Total Dipole Moment    :     -0.562638197      -0.287993394      -0.115886559
                        -----------------------------------------
Magnitude (a.u.)       :      0.642597565
Magnitude (Debye)      :      1.633353205

Rotational constants in cm-1:             0.209633             0.133357             0.106647
Rotational constants in MHz :          6284.627800          3997.956513          3197.191158

                             ****ORCA TERMINATED NORMALLY****
TOTAL RUN TIME: 0 days 0 hours 0 minutes 12 seconds 571 msec
