                         Program Version 6.0.1  -  RELEASE   -
|  1> ! r2scan-3c def2/J RI DEFGRID2 scfconv6 printgap
|  2> %output
|  3>     printlevel normal
|  4> end
|  5> * xyz 0 1
|  6> C -4.2206847908 -0.3099191959 -0.0719050252
|  7> C -2.7365691058 -0.1117523878 -0.020171586
|  8> C -2.127346082 0.8853441822 -0.772515331
|  9> C -0.7617995544 1.089461248 -0.706691225
| 10> C 0.0289847921 0.2816753677 0.1008723399
| 11> C -0.5748658177 -0.7107742267 0.8650486631
| 12> C -1.9427581683 -0.9008186001 0.8035975916
| 13> C 1.4932438745 0.5649025933 0.2210668446
| 14> O 1.893434177 1.6228265014 0.6739391105
| 15> N 2.3378722024 -0.416326697 -0.1801679998
| 16> C 3.7614819773 -0.2336270173 -0.0230095629
| 17> C 1.9413877342 -1.6359994015 -0.8341121091
| 18> H -4.6128156497 -0.0528469417 -1.0532574214
| 19> H -4.4842574554 -1.3399454891 0.1568922101
| 20> H -4.705824988 0.3335109021 0.6628429166
| 21> H -2.7312682449 1.5130868947 -1.4120761757
| 22> H -0.2978487701 1.8756571835 -1.2834201151
| 23> H 0.0275725973 -1.3276112691 1.5164822324
| 24> H -2.4018742134 -1.6730232637 1.4045710178
| 25> H 3.9253610119 0.7174344396 0.4798238123
| 26> H 4.2574982877 -0.2193459424 -0.9967624844
| 27> H 4.1815247759 -1.0437761247 0.5775211491
| 28> H 2.1470466642 -2.5009527573 -0.1956743922
| 29> H 2.5082731777 -1.7537390234 -1.7619365124
| 30> H 0.8808726704 -1.6153633219 -1.0719022291
| 31> *
| 32>
| 33>                          ****END OF INPUT****

CARTESIAN COORDINATES (ANGSTROEM)
---------------------------------
  C     -4.220685   -0.309919   -0.071905
  C     -2.736569   -0.111752   -0.020172
  C     -2.127346    0.885344   -0.772515
  C     -0.761800    1.089461   -0.706691
  C      0.028985    0.281675    0.100872
  C     -0.574866   -0.710774    0.865049
  C     -1.942758   -0.900819    0.803598
  C      1.493244    0.564903    0.221067
  O      1.893434    1.622827    0.673939
  N      2.337872   -0.416327   -0.180168
  C      3.761482   -0.233627   -0.023010
  C      1.941388   -1.635999   -0.834112
  H     -4.612816   -0.052847   -1.053257
  H     -4.484257   -1.339945    0.156892
  H     -4.705825    0.333511    0.662843
  H     -2.731268    1.513087   -1.412076
  H     -0.297849    1.875657   -1.283420
  H      0.027573   -1.327611    1.516482
  H     -2.401874   -1.673023    1.404571
  H      3.925361    0.717434    0.479824
  H      4.257498   -0.219346   -0.996762
  H      4.181525   -1.043776    0.577521
  H      2.147047   -2.500953   -0.195674
  H      2.508273   -1.753739   -1.761937
  H      0.880873   -1.615363   -1.071902

 Total Charge           Charge          ....    0
 Multiplicity           Mult            ....    1
 Number of Electrons    NEL             ....   88
 Basis Dimension        Dim             ....  303

ORBITAL ENERGIES
----------------

  NO   OCC          E(Eh)            E(eV)
   0   2.0000     -18.905782      -514.4525
   1   2.0000     -14.192557      -386.1991
   2   2.0000     -10.121441      -275.4184
   3   2.0000     -10.066773      -273.9308
   4   2.0000     -10.056756      -273.6582
   5   2.0000     -10.048843      -273.4429
   6   2.0000     -10.044205      -273.3167
   7   2.0000     -10.041304      -273.2378
   8   2.0000     -10.038945      -273.1736
   9   2.0000     -10.037066      -273.1225
  10   2.0000     -10.035880      -273.0902
  11   2.0000     -10.031971      -272.9838
  12   2.0000      -0.999229       -27.1904
  13   2.0000      -0.905316       -24.6349
  14   2.0000      -0.835311       -22.7300
  15   2.0000      -0.755842       -20.5675
  16   2.0000      -0.721301       -19.6276
  17   2.0000      -0.696245       -18.9458
  18   2.0000      -0.681351       -18.5405
  19   2.0000      -0.649567       -17.6756
  20   2.0000      -0.584088       -15.8938
  21   2.0000      -0.568194       -15.4613
  22   2.0000      -0.522825       -14.2268
  23   2.0000      -0.494864       -13.4659
  24   2.0000      -0.454701       -12.3730
  25   2.0000      -0.446015       -12.1367
  26   2.0000      -0.437655       -11.9092
  27   2.0000      -0.433100       -11.7852
  28   2.0000      -0.413139       -11.2421
  29   2.0000      -0.397872       -10.8266
  30   2.0000      -0.394112       -10.7243
  31   2.0000      -0.375256       -10.2112
  32   2.0000      -0.372925       -10.1478
  33   2.0000      -0.369635       -10.0583
  34   2.0000      -0.364321        -9.9137
  35   2.0000      -0.353985        -9.6324
  36   2.0000      -0.340436        -9.2637
  37   2.0000      -0.329912        -8.9774
  38   2.0000      -0.322846        -8.7851
  39   2.0000      -0.310625        -8.4525
  40   2.0000      -0.242748        -6.6055
  41   2.0000      -0.236345        -6.4313
  42   2.0000      -0.214955        -5.8492
  43   2.0000      -0.208079        -5.6621
  44   0.0000      -0.042189        -1.1480
  45   0.0000      -0.037241        -1.0134
  46   0.0000       0.012653         0.3443
  47   0.0000       0.063969         1.7407
  48   0.0000       0.081518         2.2182

MULLIKEN ATOMIC CHARGES
-----------------------
   0 C :   -0.543994
   1 C :    0.238245
   2 C :   -0.217055
   3 C :   -0.185582
   4 C :    0.066869
   5 C :   -0.202033
   6 C :   -0.219953
   7 C :    0.220875
   8 O :   -0.441578
   9 N :    0.073970
  10 C :   -0.414365
  11 C :   -0.399899
  12 H :    0.152376
  13 H :    0.151006
  14 H :    0.173452
  15 H :    0.146008
  16 H :    0.153366
  17 H :    0.146445
  18 H :    0.145428
  19 H :    0.201882
  20 H :    0.143851
  21 H :    0.139041
  22 H :    0.156183
  23 H :    0.141967
  24 H :    0.173496
Sum of atomic charges:    0.0000000

LOEWDIN ATOMIC CHARGES
----------------------
   0 C :   -0.389458
   1 C :   -0.094354
   2 C :   -0.157877
   3 C :   -0.119847
   4 C :   -0.042298
   5 C :   -0.138860
   6 C :   -0.160983
   7 C :    0.346647
   8 O :   -0.462994
   9 N :   -0.839109
  10 C :   -0.112166
  11 C :   -0.106739
  12 H :    0.161620
  13 H :    0.160817
  14 H :    0.167988
  15 H :    0.169904
  16 H :    0.179034
  17 H :    0.174528
  18 H :    0.169311
  19 H :    0.211117
  20 H :    0.171884
  21 H :    0.172167
  22 H :    0.169446
  23 H :    0.173514
  24 H :    0.196708

  Mayer bond orders larger than 0.100000
B(  0-C ,  1-C ) :   0.7855 B(  0-C , 12-H ) :   0.9890 B(  0-C , 13-H ) :   0.9900
B(  0-C , 14-H ) :   0.9670 B(  1-C ,  2-C ) :   1.3881 B(  1-C ,  6-C ) :   1.3941
B(  2-C ,  3-C ) :   1.4262 B(  2-C , 15-H ) :   0.9469 B(  3-C ,  4-C ) :   1.4216
B(  3-C , 16-H ) :   0.9574 B(  4-C ,  5-C ) :   1.4171 B(  4-C ,  7-C ) :   0.8810
B(  4-C ,  8-O ) :  -0.1034 B(  5-C ,  6-C ) :   1.4412 B(  5-C , 17-H ) :   0.9481
B(  6-C , 18-H ) :   0.9434 B(  7-C ,  8-O ) :   1.8918 B(  7-C ,  9-N ) :   1.2090
B(  9-N , 10-C ) :   0.9296 B(  9-N , 11-C ) :   0.9249 B( 10-C , 19-H ) :   0.9555
B( 10-C , 20-H ) :   0.9569 B( 10-C , 21-H ) :   0.9517 B( 11-C , 22-H ) :   0.9588
B( 11-C , 23-H ) :   0.9534 B( 11-C , 24-H ) :   0.9550

Dispersion correction           -0.009190393
FINAL SINGLE POINT ENERGY      -518.740767671450

DIPOLE MOMENT
-------------

Method             : SCF
Type of density    : Electron Density
Multiplicity       :   1
Irrep              :   0
Energy             :  -518.7474837947546575 Eh
Relativity type    :
Basis              : AO
                                X                 Y                 Z
Electronic contribution:      0.857800445       5.290447366       2.177776113
Nuclear contribution   :     -1.184124222      -6.626957373      -2.783832146
                        -----------------------------------------
Total Dipole Moment    :     -0.326323778      -1.336510007      -0.606056033
                        -----------------------------------------
Magnitude (a.u.)       :      1.503346308
Magnitude (Debye)      :      3.821202640

Rotational constants in cm-1:             0.079800             0.016970             0.015607
Rotational constants in MHz :          2392.358625           508.760631           467.882428

                             ****ORCA TERMINATED NORMALLY****
TOTAL RUN TIME: 0 days 0 hours 0 minutes 44 seconds 169 msec
