                         Program Version 6.0.1  -  RELEASE   -
|  1> ! r2scan-3c def2/J RI DEFGRID2 scfconv6 printgap
|  2> %output
|  3>     printlevel normal
|  4> end
|  5> * xyz 0 1
|  6> C 2.873598878 -0.744214901 -0.1106410839
|  7> C 1.9947167367 0.4814351743 0.1001874596
|  8> C 0.5125471503 0.2307627131 0.0447614607
|  9> C -0.362873052 1.2977810907 0.2414884763
| 10> C -1.726567199 1.0743175289 0.1911302764
| 11> N -2.262571547 -0.1140210033 -0.0369039078
| 12> C -1.437224648 -1.1275125115 -0.2240875496
| 13> C -0.055020634 -1.0143001868 -0.1944777115
| 14> H 2.6800577591 -1.4961175358 0.6511764773
| 15> H 3.9214929797 -0.459280399 -0.0473111317
| 16> H 2.7002346792 -1.182234187 -1.0910596475
| 17> H 2.2381618342 1.2335016038 -0.6569380234
| 18> H 2.2254424203 0.9267195742 1.0730304347
| 19> H 0.0219052772 2.289099712 0.4318236043
| 20> H -2.4303563043 1.8830891857 0.3405368743
| 21> H -1.9088897955 -2.0845174296 -0.4081154776
| 22> H 0.5541767203 -1.8884625915 -0.3566076856
| 23> *
| 24>
| 25>                          ****END OF INPUT****

CARTESIAN COORDINATES (ANGSTROEM)
---------------------------------
  C      2.873599   -0.744215   -0.110641
  C      1.994717    0.481435    0.100187
  C      0.512547    0.230763    0.044761
  C     -0.362873    1.297781    0.241488
  C     -1.726567    1.074318    0.191130
  N     -2.262572   -0.114021   -0.036904
  C     -1.437225   -1.127513   -0.224088
  C     -0.055021   -1.014300   -0.194478
  H      2.680058   -1.496118    0.651176
  H      3.921493   -0.459280   -0.047311
  H      2.700235   -1.182234   -1.091060
  H      2.238162    1.233502   -0.656938
  H      2.225442    0.926720    1.073030
  H      0.021905    2.289100    0.431824
  H     -2.430356    1.883089    0.340537
  H     -1.908890   -2.084517   -0.408115
  H      0.554177   -1.888463   -0.356608

 Total Charge           Charge          ....    0
 Multiplicity           Mult            ....    1
 Number of Electrons    NEL             ....   58
 Basis Dimension        Dim             ....  202

ORBITAL ENERGIES
----------------

  NO   OCC          E(Eh)            E(eV)
   0   2.0000     -14.148093      -384.9892
   1   2.0000     -10.062928      -273.8262
   2   2.0000     -10.062480      -273.8140
   3   2.0000     -10.060160      -273.7509
   4   2.0000     -10.047124      -273.3961
   5   2.0000     -10.039219      -273.1810
   6   2.0000     -10.038896      -273.1723
   7   2.0000     -10.031459      -272.9699
   8   2.0000      -0.911869       -24.8132
   9   2.0000      -0.798810       -21.7367
  10   2.0000      -0.730000       -19.8643
  11   2.0000      -0.724223       -19.7071
  12   2.0000      -0.627013       -17.0619
  13   2.0000      -0.598493       -16.2858
  14   2.0000      -0.559216       -15.2170
  15   2.0000      -0.481709       -13.1080
  16   2.0000      -0.455668       -12.3993
  17   2.0000      -0.435858       -11.8603
  18   2.0000      -0.434997       -11.8369
  19   2.0000      -0.399965       -10.8836
  20   2.0000      -0.387916       -10.5557
  21   2.0000      -0.372694       -10.1415
  22   2.0000      -0.356689        -9.7060
  23   2.0000      -0.336328        -9.1519
  24   2.0000      -0.330538        -8.9944
  25   2.0000      -0.317983        -8.6528
  26   2.0000      -0.256394        -6.9768
  27   2.0000      -0.245162        -6.6712
  28   2.0000      -0.219850        -5.9824
  29   0.0000      -0.048445        -1.3183
  30   0.0000      -0.037506        -1.0206
  31   0.0000       0.080662         2.1949
  32   0.0000       0.097691         2.6583
  33   0.0000       0.099429         2.7056

MULLIKEN ATOMIC CHARGES
-----------------------
   0 C :   -0.495948
   1 C :   -0.312594
   2 C :    0.127036
   3 C :   -0.127585
   4 C :   -0.121337
   5 N :   -0.172454
   6 C :   -0.143967
   7 C :   -0.105106
   8 H :    0.157831
   9 H :    0.152649
  10 H :    0.156822
  11 H :    0.163042
  12 H :    0.162441
  13 H :    0.148100
  14 H :    0.131199
  15 H :    0.130802
  16 H :    0.149068
Sum of atomic charges:    0.0000000

LOEWDIN ATOMIC CHARGES
----------------------
   0 C :   -0.418550
   1 C :   -0.286797
   2 C :   -0.055046
   3 C :   -0.145426
   4 C :    0.080129
   5 N :   -0.621493
   6 C :    0.082119
   7 C :   -0.150922
   8 H :    0.154485
   9 H :    0.155043
  10 H :    0.154291
  11 H :    0.170026
  12 H :    0.169800
  13 H :    0.171766
  14 H :    0.183697
  15 H :    0.183667
  16 H :    0.173211

  Mayer bond orders larger than 0.100000
B(  0-C ,  1-C ) :   0.8541 B(  0-C ,  8-H ) :   0.9822 B(  0-C ,  9-H ) :   0.9692
B(  0-C , 10-H ) :   0.9806 B(  1-C ,  2-C ) :   0.8611 B(  1-C , 11-H ) :   0.9744
B(  1-C , 12-H ) :   0.9770 B(  2-C ,  3-C ) :   1.3351 B(  2-C ,  5-N ) :   0.1008
B(  2-C ,  7-C ) :   1.4141 B(  3-C ,  4-C ) :   1.3826 B(  3-C , 13-H ) :   0.9466
B(  4-C ,  5-N ) :   1.4563 B(  4-C , 14-H ) :   0.9929 B(  5-N ,  6-C ) :   1.4827
B(  6-C ,  7-C ) :   1.3299 B(  6-C , 15-H ) :   0.9993 B(  7-C , 16-H ) :   0.9353

Dispersion correction           -0.005238553
FINAL SINGLE POINT ENERGY      -326.816093500361

DIPOLE MOMENT
-------------

Method             : SCF
Type of density    : Electron Density
Multiplicity       :   1
Irrep              :   0
Energy             :  -326.8187045006478115 Eh
Relativity type    :
Basis              : AO
                                X                 Y                 Z
Electronic contribution:     -8.249518366       0.877768251       0.093792753
Nuclear contribution   :      9.371367598      -0.730709868      -0.059742811
                        -----------------------------------------
Total Dipole Moment    :      1.121849231       0.147058384       0.034049941
                        -----------------------------------------
Magnitude (a.u.)       :      1.131959038
Magnitude (Debye)      :      2.877211220

Rotational constants in cm-1:             0.169865             0.049662             0.038985
Rotational constants in MHz :          5092.438608          1488.820834          1168.734180

                             ****ORCA TERMINATED NORMALLY****
TOTAL RUN TIME: 0 days 0 hours 0 minutes 25 seconds 245 msec
