                         Program Version 6.0.1  -  RELEASE   -
|  1> ! pbe def2-sv(p) def2/J RI DEFGRID1 loosescf d4 GCP(DFT/SV(P)) printgap
|  2> %output
|  3>     printlevel normal
|  4> end
|  5> * xyz 0 1
|  6> C -2.0019088415 -0.575509213 -0.7121927363
|  7> C -1.2161997538 -0.0954484522 0.5327695831
|  8> H -1.9113785026 -0.07373547 1.3829520434
|  9> C -0.6425692778 1.3166584659 0.313120319
| 10> H -1.3847618984 1.9160512661 -0.2367040395
| 11> C 0.6669588147 1.2988267262 -0.517090695
| 12> H 1.0995190603 2.3049514577 -0.4433894564
| 13> C 1.6542987546 0.2856173699 0.0843654973
| 14> H 2.4984641672 0.1555610421 -0.6023852807
| 15> C 0.9454657512 -1.0810098623 0.220995035
| 16> H 1.5868649848 -1.7600618722 0.8056916854
| 17> O -0.2290313984 -1.0055861789 0.9755638697
| 18> O 0.7190376218 -1.5968209017 -1.0647877116
| 19> O 2.1865927689 0.707318701 1.3039450246
| 20> O 0.42399821 1.041776295 -1.8734319178
| 21> O -0.3262242111 1.9303071643 1.5450605096
| 22> O -2.0495452058 -1.9886396458 -0.7126216619
| 23> H -1.5281249274 -0.2086955958 -1.630011896
| 24> H -3.0124548868 -0.1516405341 -0.6530561431
| 25> H -0.021970263 -2.2213819041 -0.989303408
| 26> H 1.4595469589 1.0542991928 1.8432334741
| 27> H 0.5615816675 0.0903748547 -2.0186818131
| 28> H -1.1095193721 1.9503579601 2.1064233915
| 29> H -2.6656085807 -2.2787164016 -1.3926197711
| 30> *
| 31>
| 32>                          ****END OF INPUT****

CARTESIAN COORDINATES (ANGSTROEM)
---------------------------------
  C     -2.001909   -0.575509   -0.712193
  C     -1.216200   -0.095448    0.532770
  H     -1.911379   -0.073735    1.382952
  C     -0.642569    1.316658    0.313120
  H     -1.384762    1.916051   -0.236704
  C      0.666959    1.298827   -0.517091
  H      1.099519    2.304951   -0.443389
  C      1.654299    0.285617    0.084365
  H      2.498464    0.155561   -0.602385
  C      0.945466   -1.081010    0.220995
  H      1.586865   -1.760062    0.805692
  O     -0.229031   -1.005586    0.975564
  O      0.719038   -1.596821   -1.064788
  O      2.186593    0.707319    1.303945
  O      0.423998    1.041776   -1.873432
  O     -0.326224    1.930307    1.545061
  O     -2.049545   -1.988640   -0.712622
  H     -1.528125   -0.208696   -1.630012
  H     -3.012455   -0.151641   -0.653056
  H     -0.021970   -2.221382   -0.989303
  H      1.459547    1.054299    1.843233
  H      0.561582    0.090375   -2.018682
  H     -1.109519    1.950358    2.106423
  H     -2.665609   -2.278716   -1.392620

 Total Charge           Charge          ....    0
 Multiplicity           Mult            ....    1
 Number of Electrons    NEL             ....   96
 Basis Dimension        Dim             ....  192

ORBITAL ENERGIES
----------------

  NO   OCC          E(Eh)            E(eV)
   0   2.0000     -18.776244      -510.9276
   1   2.0000     -18.775533      -510.9082
   2   2.0000     -18.770574      -510.7733
   3   2.0000     -18.767866      -510.6996
   4   2.0000     -18.743502      -510.0366
   5   2.0000     -18.734425      -509.7896
   6   2.0000      -9.980153      -271.5738
   7   2.0000      -9.956969      -270.9429
   8   2.0000      -9.952790      -270.8292
   9   2.0000      -9.947677      -270.6901
  10   2.0000      -9.940383      -270.4916
  11   2.0000      -9.934289      -270.3258
  12   2.0000      -0.990782       -26.9606
  13   2.0000      -0.952993       -25.9322
  14   2.0000      -0.946191       -25.7472
  15   2.0000      -0.926523       -25.2120
  16   2.0000      -0.916320       -24.9343
  17   2.0000      -0.910627       -24.7794
  18   2.0000      -0.712073       -19.3765
  19   2.0000      -0.683456       -18.5978
  20   2.0000      -0.630981       -17.1699
  21   2.0000      -0.587862       -15.9965
  22   2.0000      -0.574838       -15.6421
  23   2.0000      -0.518394       -14.1062
  24   2.0000      -0.511144       -13.9089
  25   2.0000      -0.496416       -13.5082
  26   2.0000      -0.478354       -13.0167
  27   2.0000      -0.463127       -12.6023
  28   2.0000      -0.438009       -11.9188
  29   2.0000      -0.426096       -11.5947
  30   2.0000      -0.414847       -11.2886
  31   2.0000      -0.407354       -11.0847
  32   2.0000      -0.404581       -11.0092
  33   2.0000      -0.377194       -10.2640
  34   2.0000      -0.361439        -9.8353
  35   2.0000      -0.357139        -9.7183
  36   2.0000      -0.341273        -9.2865
  37   2.0000      -0.330220        -8.9857
  38   2.0000      -0.324161        -8.8209
  39   2.0000      -0.302306        -8.2262
  40   2.0000      -0.279721        -7.6116
  41   2.0000      -0.266548        -7.2531
  42   2.0000      -0.250600        -6.8192
  43   2.0000      -0.246794        -6.7156
  44   2.0000      -0.240645        -6.5483
  45   2.0000      -0.233472        -6.3531
  46   2.0000      -0.214319        -5.8319
  47   2.0000      -0.198485        -5.4010
  48   0.0000       0.003537         0.0962
  49   0.0000       0.008519         0.2318
  50   0.0000       0.044146         1.2013
  51   0.0000       0.059133         1.6091
  52   0.0000       0.068584         1.8663

MULLIKEN ATOMIC CHARGES
-----------------------
   0 C :   -0.030956
   1 C :    0.061853
   2 H :    0.060240
   3 C :    0.036304
   4 H :    0.076566
   5 C :    0.044667
   6 H :    0.086131
   7 C :    0.022772
   8 H :    0.088017
   9 C :    0.189106
  10 H :    0.072725
  11 O :   -0.298482
  12 O :   -0.433750
  13 O :   -0.422039
  14 O :   -0.416937
  15 O :   -0.420316
  16 O :   -0.430073
  17 H :    0.086265
  18 H :    0.082018
  19 H :    0.311307
  20 H :    0.300734
  21 H :    0.314314
  22 H :    0.307923
  23 H :    0.311611
Sum of atomic charges:   -0.0000000

LOEWDIN ATOMIC CHARGES
----------------------
   0 C :   -0.154896
   1 C :   -0.066546
   2 H :    0.110981
   3 C :   -0.075329
   4 H :    0.108386
   5 C :   -0.065505
   6 H :    0.117692
   7 C :   -0.086591
   8 H :    0.121160
   9 C :   -0.003107
  10 H :    0.102201
  11 O :   -0.129146
  12 O :   -0.323528
  13 O :   -0.314120
  14 O :   -0.318109
  15 O :   -0.306931
  16 O :   -0.329495
  17 H :    0.101146
  18 H :    0.106898
  19 H :    0.277816
  20 H :    0.271643
  21 H :    0.272553
  22 H :    0.289544
  23 H :    0.293281

  Mayer bond orders larger than 0.100000
B(  0-C ,  1-C ) :   1.0395 B(  0-C , 16-O ) :   1.0492 B(  0-C , 17-H ) :   0.8983
B(  0-C , 18-H ) :   0.9088 B(  1-C ,  2-H ) :   0.8974 B(  1-C ,  3-C ) :   0.9852
B(  1-C , 11-O ) :   1.0419 B(  3-C ,  4-H ) :   0.8950 B(  3-C ,  5-C ) :   0.9633
B(  3-C , 15-O ) :   0.9995 B(  5-C ,  6-H ) :   0.9027 B(  5-C ,  7-C ) :   1.0043
B(  5-C , 14-O ) :   1.0883 B(  7-C ,  8-H ) :   0.8965 B(  7-C ,  9-C ) :   0.9632
B(  7-C , 13-O ) :   1.0755 B(  9-C , 10-H ) :   0.9054 B(  9-C , 11-O ) :   1.0610
B(  9-C , 12-O ) :   1.0587 B( 12-O , 19-H ) :   0.7875 B( 12-O , 21-H ) :   0.1118
B( 13-O , 20-H ) :   0.8124 B( 14-O , 21-H ) :   0.7873 B( 15-O , 22-H ) :   0.8419
B( 16-O , 19-H ) :   0.1055 B( 16-O , 23-H ) :   0.8449

Dispersion correction           -0.026569683
FINAL SINGLE POINT ENERGY      -685.698538615577

DIPOLE MOMENT
-------------

Method             : SCF
Type of density    : Electron Density
Multiplicity       :   1
Irrep              :   0
Energy             :  -685.8341384453345881 Eh
Relativity type    :
Basis              : AO
                                X                 Y                 Z
Electronic contribution:      2.276236413      -0.989567253       1.611079779
Nuclear contribution   :     -4.143330714       0.715794121      -1.712261695
                        -----------------------------------------
Total Dipole Moment    :     -1.867094301      -0.273773132      -0.101181916
                        -----------------------------------------
Magnitude (a.u.)       :      1.889769996
Magnitude (Debye)      :      4.803413596

Rotational constants in cm-1:             0.043555             0.029108             0.026026
Rotational constants in MHz :          1305.732244           872.630094           780.247876

                             ****ORCA TERMINATED NORMALLY****
TOTAL RUN TIME: 0 days 0 hours 0 minutes 20 seconds 236 msec
