                         Program Version 6.0.1  -  RELEASE   -
|  1> ! r2scan-3c def2/J RI DEFGRID2 scfconv6 printgap
|  2> %output
|  3>     printlevel normal
|  4> end
|  5> * xyz 0 1
|  6> C 2.7476321799 0.0242080257 0.728027634
|  7> C 1.9712268361 -0.0022629742 -0.5902532578
|  8> C 0.4952757236 -0.0272954377 -0.3263022451
|  9> C -0.1972421366 -1.2223496983 -0.1706312653
| 10> C -1.5520034602 -1.1908721769 0.1139842672
| 11> C -2.1688808633 0.0446747155 0.2366790469
| 12> N -1.5247999917 1.1899139348 0.0925265517
| 13> C -0.2335432393 1.1492376397 -0.1796740759
| 14> H 2.4803488759 0.9056976775 1.3065377616
| 15> H 3.818061446 0.044244416 0.5375022633
| 16> H 2.5170607938 -0.8575721464 1.3221098116
| 17> H 2.2591508708 -0.8874758164 -1.1615632866
| 18> H 2.2255083288 0.8832264176 -1.1762713643
| 19> H 0.3206601707 -2.1662182809 -0.275350371
| 20> H -2.1157604771 -2.1030607268 0.2370401413
| 21> H -3.2249406035 0.1262601204 0.4582957809
| 22> H 0.2486817485 2.1128630415 -0.2917405923
| 23> *
| 24>
| 25>                          ****END OF INPUT****

CARTESIAN COORDINATES (ANGSTROEM)
---------------------------------
  C      2.747632    0.024208    0.728028
  C      1.971227   -0.002263   -0.590253
  C      0.495276   -0.027295   -0.326302
  C     -0.197242   -1.222350   -0.170631
  C     -1.552003   -1.190872    0.113984
  C     -2.168881    0.044675    0.236679
  N     -1.524800    1.189914    0.092527
  C     -0.233543    1.149238   -0.179674
  H      2.480349    0.905698    1.306538
  H      3.818061    0.044244    0.537502
  H      2.517061   -0.857572    1.322110
  H      2.259151   -0.887476   -1.161563
  H      2.225508    0.883226   -1.176271
  H      0.320660   -2.166218   -0.275350
  H     -2.115760   -2.103061    0.237040
  H     -3.224941    0.126260    0.458296
  H      0.248682    2.112863   -0.291741

 Total Charge           Charge          ....    0
 Multiplicity           Mult            ....    1
 Number of Electrons    NEL             ....   58
 Basis Dimension        Dim             ....  202

ORBITAL ENERGIES
----------------

  NO   OCC          E(Eh)            E(eV)
   0   2.0000     -14.151582      -385.0841
   1   2.0000     -10.062093      -273.8035
   2   2.0000     -10.061875      -273.7975
   3   2.0000     -10.050180      -273.4793
   4   2.0000     -10.049541      -273.4619
   5   2.0000     -10.043162      -273.2883
   6   2.0000     -10.043152      -273.2881
   7   2.0000     -10.028845      -272.8987
   8   2.0000      -0.913571       -24.8595
   9   2.0000      -0.792750       -21.5718
  10   2.0000      -0.751716       -20.4552
  11   2.0000      -0.706762       -19.2320
  12   2.0000      -0.617900       -16.8139
  13   2.0000      -0.600224       -16.3329
  14   2.0000      -0.564251       -15.3540
  15   2.0000      -0.490207       -13.3392
  16   2.0000      -0.465002       -12.6534
  17   2.0000      -0.435116       -11.8401
  18   2.0000      -0.409285       -11.1372
  19   2.0000      -0.403161       -10.9706
  20   2.0000      -0.382902       -10.4193
  21   2.0000      -0.371109       -10.0984
  22   2.0000      -0.357973        -9.7409
  23   2.0000      -0.346141        -9.4190
  24   2.0000      -0.326619        -8.8878
  25   2.0000      -0.314757        -8.5650
  26   2.0000      -0.267533        -7.2800
  27   2.0000      -0.237934        -6.4745
  28   2.0000      -0.219844        -5.9823
  29   0.0000      -0.051787        -1.4092
  30   0.0000      -0.037591        -1.0229
  31   0.0000       0.075993         2.0679
  32   0.0000       0.096793         2.6339
  33   0.0000       0.099165         2.6984

MULLIKEN ATOMIC CHARGES
-----------------------
   0 C :   -0.453460
   1 C :   -0.334364
   2 C :    0.283037
   3 C :   -0.233294
   4 C :   -0.098560
   5 C :   -0.106297
   6 N :   -0.167121
   7 C :   -0.204769
   8 H :    0.151624
   9 H :    0.150195
  10 H :    0.148659
  11 H :    0.147088
  12 H :    0.151281
  13 H :    0.150290
  14 H :    0.148129
  15 H :    0.132686
  16 H :    0.134875
Sum of atomic charges:   -0.0000000

LOEWDIN ATOMIC CHARGES
----------------------
   0 C :   -0.403930
   1 C :   -0.288393
   2 C :   -0.075210
   3 C :   -0.124574
   4 C :   -0.144029
   5 C :    0.072094
   6 N :   -0.613611
   7 C :    0.081120
   8 H :    0.155261
   9 H :    0.150640
  10 H :    0.153885
  11 H :    0.162259
  12 H :    0.164244
  13 H :    0.170924
  14 H :    0.169546
  15 H :    0.183842
  16 H :    0.185933

  Mayer bond orders larger than 0.100000
B(  0-C ,  1-C ) :   0.9271 B(  0-C ,  8-H ) :   0.9765 B(  0-C ,  9-H ) :   0.9716
B(  0-C , 10-H ) :   0.9774 B(  1-C ,  2-C ) :   0.8028 B(  1-C , 11-H ) :   0.9893
B(  1-C , 12-H ) :   0.9870 B(  2-C ,  3-C ) :   1.3651 B(  2-C ,  7-C ) :   1.2876
B(  3-C ,  4-C ) :   1.4318 B(  3-C , 13-H ) :   0.9448 B(  4-C ,  5-C ) :   1.3583
B(  4-C , 14-H ) :   0.9377 B(  5-C ,  6-N ) :   1.4632 B(  5-C , 15-H ) :   0.9835
B(  6-N ,  7-C ) :   1.5094 B(  7-C , 16-H ) :   0.9982

Dispersion correction           -0.005274601
FINAL SINGLE POINT ENERGY      -326.816109038080

DIPOLE MOMENT
-------------

Method             : SCF
Type of density    : Electron Density
Multiplicity       :   1
Irrep              :   0
Energy             :  -326.8185546573026841 Eh
Relativity type    :
Basis              : AO
                                X                 Y                 Z
Electronic contribution:     -7.369783120       1.084677781      -0.969099935
Nuclear contribution   :      7.993064232      -1.815432106       0.897921949
                        -----------------------------------------
Total Dipole Moment    :      0.623281112      -0.730754325      -0.071177986
                        -----------------------------------------
Magnitude (a.u.)       :      0.963092693
Magnitude (Debye)      :      2.447987080

Rotational constants in cm-1:             0.156024             0.050704             0.042190
Rotational constants in MHz :          4677.473366          1520.073131          1264.821201

                             ****ORCA TERMINATED NORMALLY****
TOTAL RUN TIME: 0 days 0 hours 0 minutes 26 seconds 166 msec
