                         Program Version 6.0.1  -  RELEASE   -
|  1> ! pbe def2-sv(p) def2/J RI DEFGRID1 loosescf d4 GCP(DFT/SV(P)) printgap
|  2> %output
|  3>     printlevel normal
|  4> end
|  5> * xyz 0 1
|  6> C -2.3395027702 -1.0160167361 0.4085079877
|  7> C -1.8082412953 0.3962472585 0.1888536773
|  8> C -0.5658872633 0.4967854921 -0.7032461471
|  9> C 0.8118169578 0.130832566 -0.113653448
| 10> C 1.8691545622 0.5845678522 -1.1295605543
| 11> C 1.0619329667 0.858949077 1.2085465422
| 12> C 0.9732727549 -1.3763140753 0.0963471798
| 13> H -3.3270975619 -0.9733419532 0.86437645
| 14> H -2.4244661826 -1.5439259455 -0.5387665264
| 15> H -1.6959164238 -1.5924390452 1.065494413
| 16> H -2.5968240603 0.9746742181 -0.3011510751
| 17> H -1.6186141435 0.8702367076 1.1522569071
| 18> H -0.4996314416 1.5364526984 -1.0364712451
| 19> H -0.7308134508 -0.1145650691 -1.5942701309
| 20> H 2.8680551113 0.3290837265 -0.7823833378
| 21> H 1.708353074 0.100972234 -2.0908173168
| 22> H 1.826435966 1.6616766421 -1.2772592227
| 23> H 2.0904404035 0.7066696419 1.5290435066
| 24> H 0.4090292337 0.4850418647 1.9929480222
| 25> H 0.8934872446 1.9277991134 1.0959245087
| 26> H 0.362926446 -1.7298125335 0.9211102445
| 27> H 0.6934603442 -1.9229261723 -0.8012064732
| 28> H 2.0108361616 -1.6099733262 0.3279530994
| 29> *
| 30>
| 31>                          ****END OF INPUT****

CARTESIAN COORDINATES (ANGSTROEM)
---------------------------------
  C     -2.339503   -1.016017    0.408508
  C     -1.808241    0.396247    0.188854
  C     -0.565887    0.496785   -0.703246
  C      0.811817    0.130833   -0.113653
  C      1.869155    0.584568   -1.129561
  C      1.061933    0.858949    1.208547
  C      0.973273   -1.376314    0.096347
  H     -3.327098   -0.973342    0.864376
  H     -2.424466   -1.543926   -0.538767
  H     -1.695916   -1.592439    1.065494
  H     -2.596824    0.974674   -0.301151
  H     -1.618614    0.870237    1.152257
  H     -0.499631    1.536453   -1.036471
  H     -0.730813   -0.114565   -1.594270
  H      2.868055    0.329084   -0.782383
  H      1.708353    0.100972   -2.090817
  H      1.826436    1.661677   -1.277259
  H      2.090440    0.706670    1.529044
  H      0.409029    0.485042    1.992948
  H      0.893487    1.927799    1.095925
  H      0.362926   -1.729813    0.921110
  H      0.693460   -1.922926   -0.801206
  H      2.010836   -1.609973    0.327953

 Total Charge           Charge          ....    0
 Multiplicity           Mult            ....    1
 Number of Electrons    NEL             ....   58
 Basis Dimension        Dim             ....  130

ORBITAL ENERGIES
----------------

  NO   OCC          E(Eh)            E(eV)
   0   2.0000      -9.901389      -269.4305
   1   2.0000      -9.878891      -268.8183
   2   2.0000      -9.876482      -268.7527
   3   2.0000      -9.868663      -268.5400
   4   2.0000      -9.868480      -268.5350
   5   2.0000      -9.867250      -268.5015
   6   2.0000      -9.867108      -268.4977
   7   2.0000      -0.744320       -20.2540
   8   2.0000      -0.686002       -18.6671
   9   2.0000      -0.611891       -16.6504
  10   2.0000      -0.609602       -16.5881
  11   2.0000      -0.600240       -16.3334
  12   2.0000      -0.523417       -14.2429
  13   2.0000      -0.463885       -12.6230
  14   2.0000      -0.418812       -11.3964
  15   2.0000      -0.406487       -11.0611
  16   2.0000      -0.394460       -10.7338
  17   2.0000      -0.372859       -10.1460
  18   2.0000      -0.369629       -10.0581
  19   2.0000      -0.351967        -9.5775
  20   2.0000      -0.334812        -9.1107
  21   2.0000      -0.330866        -9.0033
  22   2.0000      -0.318941        -8.6788
  23   2.0000      -0.307022        -8.3545
  24   2.0000      -0.295009        -8.0276
  25   2.0000      -0.292623        -7.9627
  26   2.0000      -0.273692        -7.4475
  27   2.0000      -0.266547        -7.2531
  28   2.0000      -0.259237        -7.0542
  29   0.0000       0.027458         0.7472
  30   0.0000       0.061859         1.6833
  31   0.0000       0.067577         1.8389
  32   0.0000       0.070060         1.9064
  33   0.0000       0.084059         2.2874

MULLIKEN ATOMIC CHARGES
-----------------------
   0 C :   -0.281731
   1 C :   -0.161749
   2 C :   -0.115608
   3 C :   -0.253010
   4 C :   -0.208524
   5 C :   -0.222658
   6 C :   -0.209189
   7 H :    0.098708
   8 H :    0.094204
   9 H :    0.106620
  10 H :    0.079658
  11 H :    0.086031
  12 H :    0.071405
  13 H :    0.071032
  14 H :    0.091817
  15 H :    0.092011
  16 H :    0.091623
  17 H :    0.091937
  18 H :    0.103249
  19 H :    0.092868
  20 H :    0.102236
  21 H :    0.089922
  22 H :    0.089146
Sum of atomic charges:   -0.0000000

LOEWDIN ATOMIC CHARGES
----------------------
   0 C :   -0.342986
   1 C :   -0.234847
   2 C :   -0.208891
   3 C :   -0.106298
   4 C :   -0.315507
   5 C :   -0.317666
   6 C :   -0.317393
   7 H :    0.118121
   8 H :    0.116107
   9 H :    0.114872
  10 H :    0.117255
  11 H :    0.115418
  12 H :    0.113896
  13 H :    0.111590
  14 H :    0.113529
  15 H :    0.115221
  16 H :    0.113966
  17 H :    0.117079
  18 H :    0.115047
  19 H :    0.116054
  20 H :    0.114310
  21 H :    0.115652
  22 H :    0.115472

  Mayer bond orders larger than 0.100000
B(  0-C ,  1-C ) :   1.1650 B(  0-C ,  7-H ) :   0.9488 B(  0-C ,  8-H ) :   0.9526
B(  0-C ,  9-H ) :   0.9456 B(  1-C ,  2-C ) :   1.1308 B(  1-C , 10-H ) :   0.9221
B(  1-C , 11-H ) :   0.9153 B(  2-C ,  3-C ) :   1.0506 B(  2-C , 12-H ) :   0.9122
B(  2-C , 13-H ) :   0.9158 B(  3-C ,  4-C ) :   1.0723 B(  3-C ,  5-C ) :   1.0756
B(  3-C ,  6-C ) :   1.0832 B(  4-C , 14-H ) :   0.9457 B(  4-C , 15-H ) :   0.9494
B(  4-C , 16-H ) :   0.9464 B(  5-C , 17-H ) :   0.9466 B(  5-C , 18-H ) :   0.9395
B(  5-C , 19-H ) :   0.9479 B(  6-C , 20-H ) :   0.9370 B(  6-C , 21-H ) :   0.9465
B(  6-C , 22-H ) :   0.9442

Dispersion correction           -0.019600392
FINAL SINGLE POINT ENERGY      -275.659312796701

DIPOLE MOMENT
-------------

Method             : SCF
Type of density    : Electron Density
Multiplicity       :   1
Irrep              :   0
Energy             :  -275.7361903469437721 Eh
Relativity type    :
Basis              : AO
                                X                 Y                 Z
Electronic contribution:      0.006125938       0.860859238      -0.479006455
Nuclear contribution   :     -0.028463142      -0.839070197       0.494206392
                        -----------------------------------------
Total Dipole Moment    :     -0.022337204       0.021789041       0.015199937
                        -----------------------------------------
Magnitude (a.u.)       :      0.034709525
Magnitude (Debye)      :      0.088224600

Rotational constants in cm-1:             0.125922             0.054438             0.052244
Rotational constants in MHz :          3775.057418          1632.002857          1566.245424

                             ****ORCA TERMINATED NORMALLY****
TOTAL RUN TIME: 0 days 0 hours 0 minutes 14 seconds 547 msec
