                         Program Version 6.0.1  -  RELEASE   -
|  1> ! pbe def2-sv(p) def2/J RI DEFGRID1 loosescf d4 GCP(DFT/SV(P)) printgap
|  2> %output
|  3>     printlevel normal
|  4> end
|  5> * xyz 0 1
|  6> C -2.2769319382 -0.9631996662 -0.3294205675
|  7> C -1.165264188 -0.2025717877 0.4048535876
|  8> H -1.5854420556 0.2430995823 1.3140942913
|  9> C -0.5719033384 0.9120974106 -0.4549979986
| 10> H -0.4168923461 0.5451207375 -1.4855501628
| 11> C 0.7896946325 1.325858984 0.126988975
| 12> H 0.6764323169 1.5894562463 1.1837166199
| 13> C 1.7722077484 0.153408436 0.0261164241
| 14> H 2.2482360521 0.1669362692 -0.9687052468
| 15> C 1.0114916281 -1.192737549 0.1247417715
| 16> H 1.6289755828 -1.9073839576 0.6970750644
| 17> O -0.1711182508 -1.1283015069 0.8585416521
| 18> O 0.816467889 -1.6476935348 -1.1842358757
| 19> O 2.7249606735 0.301937808 1.0417429484
| 20> O 1.2438388419 2.4956820604 -0.501495476
| 21> O -1.4532971148 2.0015809379 -0.471371542
| 22> O -2.818915632 -1.9766916596 0.4750594416
| 23> H -1.8740839765 -1.3873884059 -1.2624686959
| 24> H -3.082484214 -0.2699289199 -0.5772819458
| 25> H 0.3128892845 -2.4715305711 -1.1627391712
| 26> H 3.409574882 -0.3707432782 0.9535980834
| 27> H 1.5105546381 2.2894946268 -1.4062490923
| 28> H -0.9121163657 2.8046897141 -0.5192649993
| 29> H -2.0917169396 -2.3617249314 0.9815728147
| 30> *
| 31>
| 32>                          ****END OF INPUT****

CARTESIAN COORDINATES (ANGSTROEM)
---------------------------------
  C     -2.276932   -0.963200   -0.329421
  C     -1.165264   -0.202572    0.404854
  H     -1.585442    0.243100    1.314094
  C     -0.571903    0.912097   -0.454998
  H     -0.416892    0.545121   -1.485550
  C      0.789695    1.325859    0.126989
  H      0.676432    1.589456    1.183717
  C      1.772208    0.153408    0.026116
  H      2.248236    0.166936   -0.968705
  C      1.011492   -1.192738    0.124742
  H      1.628976   -1.907384    0.697075
  O     -0.171118   -1.128302    0.858542
  O      0.816468   -1.647694   -1.184236
  O      2.724961    0.301938    1.041743
  O      1.243839    2.495682   -0.501495
  O     -1.453297    2.001581   -0.471372
  O     -2.818916   -1.976692    0.475059
  H     -1.874084   -1.387388   -1.262469
  H     -3.082484   -0.269929   -0.577282
  H      0.312889   -2.471531   -1.162739
  H      3.409575   -0.370743    0.953598
  H      1.510555    2.289495   -1.406249
  H     -0.912116    2.804690   -0.519265
  H     -2.091717   -2.361725    0.981573

 Total Charge           Charge          ....    0
 Multiplicity           Mult            ....    1
 Number of Electrons    NEL             ....   96
 Basis Dimension        Dim             ....  192

ORBITAL ENERGIES
----------------

  NO   OCC          E(Eh)            E(eV)
   0   2.0000     -18.784542      -511.1534
   1   2.0000     -18.777588      -510.9641
   2   2.0000     -18.770165      -510.7622
   3   2.0000     -18.764188      -510.5995
   4   2.0000     -18.747632      -510.1490
   5   2.0000     -18.738469      -509.8997
   6   2.0000      -9.999916      -272.1116
   7   2.0000      -9.955944      -270.9150
   8   2.0000      -9.951339      -270.7897
   9   2.0000      -9.945806      -270.6391
  10   2.0000      -9.943759      -270.5834
  11   2.0000      -9.926383      -270.1106
  12   2.0000      -0.996924       -27.1277
  13   2.0000      -0.958966       -26.0948
  14   2.0000      -0.941618       -25.6227
  15   2.0000      -0.931576       -25.3495
  16   2.0000      -0.920283       -25.0422
  17   2.0000      -0.912962       -24.8430
  18   2.0000      -0.712177       -19.3793
  19   2.0000      -0.700172       -19.0526
  20   2.0000      -0.622355       -16.9351
  21   2.0000      -0.593123       -16.1397
  22   2.0000      -0.576330       -15.6827
  23   2.0000      -0.537693       -14.6314
  24   2.0000      -0.516750       -14.0615
  25   2.0000      -0.484896       -13.1947
  26   2.0000      -0.472366       -12.8537
  27   2.0000      -0.465281       -12.6610
  28   2.0000      -0.450081       -12.2473
  29   2.0000      -0.435894       -11.8613
  30   2.0000      -0.420627       -11.4458
  31   2.0000      -0.404652       -11.0112
  32   2.0000      -0.395803       -10.7703
  33   2.0000      -0.386472       -10.5164
  34   2.0000      -0.369178       -10.0459
  35   2.0000      -0.358330        -9.7506
  36   2.0000      -0.336889        -9.1672
  37   2.0000      -0.321434        -8.7467
  38   2.0000      -0.309365        -8.4183
  39   2.0000      -0.293066        -7.9747
  40   2.0000      -0.289834        -7.8868
  41   2.0000      -0.273430        -7.4404
  42   2.0000      -0.267230        -7.2717
  43   2.0000      -0.249225        -6.7818
  44   2.0000      -0.240204        -6.5363
  45   2.0000      -0.227888        -6.2011
  46   2.0000      -0.217063        -5.9066
  47   2.0000      -0.206765        -5.6264
  48   0.0000       0.011358         0.3091
  49   0.0000       0.014652         0.3987
  50   0.0000       0.021490         0.5848
  51   0.0000       0.041893         1.1400
  52   0.0000       0.053700         1.4612

MULLIKEN ATOMIC CHARGES
-----------------------
   0 C :    0.083139
   1 C :    0.028194
   2 H :    0.079846
   3 C :    0.027161
   4 H :    0.052031
   5 C :    0.032962
   6 H :    0.081638
   7 C :    0.082466
   8 H :    0.056782
   9 C :    0.152815
  10 H :    0.050202
  11 O :   -0.324387
  12 O :   -0.399167
  13 O :   -0.399831
  14 O :   -0.411589
  15 O :   -0.411406
  16 O :   -0.434244
  17 H :    0.050905
  18 H :    0.098696
  19 H :    0.307444
  20 H :    0.301749
  21 H :    0.301599
  22 H :    0.300561
  23 H :    0.292434
Sum of atomic charges:    0.0000000

LOEWDIN ATOMIC CHARGES
----------------------
   0 C :   -0.131547
   1 C :   -0.066915
   2 H :    0.122504
   3 C :   -0.083556
   4 H :    0.098847
   5 C :   -0.071735
   6 H :    0.129401
   7 C :   -0.080900
   8 H :    0.104216
   9 C :   -0.009990
  10 H :    0.093339
  11 O :   -0.142367
  12 O :   -0.314707
  13 O :   -0.306947
  14 O :   -0.300543
  15 O :   -0.320627
  16 O :   -0.340213
  17 H :    0.088233
  18 H :    0.122631
  19 H :    0.285999
  20 H :    0.286496
  21 H :    0.285808
  22 H :    0.279475
  23 H :    0.273098

  Mayer bond orders larger than 0.100000
B(  0-C ,  1-C ) :   1.0871 B(  0-C , 16-O ) :   1.0777 B(  0-C , 17-H ) :   0.8935
B(  0-C , 18-H ) :   0.9134 B(  1-C ,  2-H ) :   0.8734 B(  1-C ,  3-C ) :   0.9713
B(  1-C , 11-O ) :   0.9339 B(  3-C ,  4-H ) :   0.8651 B(  3-C ,  5-C ) :   1.0369
B(  3-C , 15-O ) :   1.0982 B(  5-C ,  6-H ) :   0.8504 B(  5-C ,  7-C ) :   1.0167
B(  5-C , 14-O ) :   1.0187 B(  7-C ,  8-H ) :   0.8720 B(  7-C ,  9-C ) :   0.9779
B(  7-C , 13-O ) :   1.1016 B(  9-C , 10-H ) :   0.8963 B(  9-C , 11-O ) :   1.0950
B(  9-C , 12-O ) :   1.0806 B( 12-O , 19-H ) :   0.8307 B( 13-O , 20-H ) :   0.8466
B( 14-O , 21-H ) :   0.8467 B( 15-O , 22-H ) :   0.8196 B( 16-O , 23-H ) :   0.8397

Dispersion correction           -0.024512027
FINAL SINGLE POINT ENERGY      -685.690272608415

DIPOLE MOMENT
-------------

Method             : SCF
Type of density    : Electron Density
Multiplicity       :   1
Irrep              :   0
Energy             :  -685.8216809944035504 Eh
Relativity type    :
Basis              : AO
                                X                 Y                 Z
Electronic contribution:      1.466981034       0.439880021       1.517017344
Nuclear contribution   :     -0.160120946      -1.059352043      -2.109715898
                        -----------------------------------------
Total Dipole Moment    :      1.306860088      -0.619472022      -0.592698553
                        -----------------------------------------
Magnitude (a.u.)       :      1.562984469
Magnitude (Debye)      :      3.972790798

Rotational constants in cm-1:             0.042572             0.025995             0.018925
Rotational constants in MHz :          1276.261884           779.295790           567.362421

                             ****ORCA TERMINATED NORMALLY****
TOTAL RUN TIME: 0 days 0 hours 0 minutes 7 seconds 968 msec
