                         Program Version 6.0.1  -  RELEASE   -
|  1> ! r2scan-3c def2/J RI DEFGRID2 scfconv6 printgap
|  2> %output
|  3>     printlevel normal
|  4> end
|  5> * xyz 0 1
|  6> C -3.8004311549 0.7045289093 -0.0007957941
|  7> O -2.3867004423 0.8180954464 0.0003440805
|  8> C -1.7087253464 -0.3432929207 0.0002571837
|  9> O -2.2560311468 -1.4202431879 -0.0002370542
| 10> C -0.2443290052 -0.1485309791 0.0005146767
| 11> C 0.5728877568 -1.2769155713 0.0003886761
| 12> C 1.9453117556 -1.146246827 7.30449e-05
| 13> C 2.5236194228 0.1208243338 -0.0001084513
| 14> C 1.708876011 1.2530333028 0.0001892724
| 15> C 0.3381754888 1.1185738251 0.0004645966
| 16> O 3.8655951127 0.2999972622 -0.0006465845
| 17> H -4.1379338443 0.1676271706 -0.8900225194
| 18> H -4.1876471443 1.7202551923 0.0025306358
| 19> H -4.1389356959 0.1612829777 0.8841601141
| 20> H 0.1092289943 -2.2515358367 0.0003615688
| 21> H 2.5772175032 -2.0246567283 -0.0001558878
| 22> H 2.1774674201 2.2242141486 0.0002281494
| 23> H -0.2930695809 1.9926955076 0.0008046191
| 24> H 4.3163422215 -0.553791761 -0.0010584494
| 25> *
| 26>
| 27>                          ****END OF INPUT****

CARTESIAN COORDINATES (ANGSTROEM)
---------------------------------
  C     -3.800431    0.704529   -0.000796
  O     -2.386700    0.818095    0.000344
  C     -1.708725   -0.343293    0.000257
  O     -2.256031   -1.420243   -0.000237
  C     -0.244329   -0.148531    0.000515
  C      0.572888   -1.276916    0.000389
  C      1.945312   -1.146247    0.000073
  C      2.523619    0.120824   -0.000108
  C      1.708876    1.253033    0.000189
  C      0.338175    1.118574    0.000465
  O      3.865595    0.299997   -0.000647
  H     -4.137934    0.167627   -0.890023
  H     -4.187647    1.720255    0.002531
  H     -4.138936    0.161283    0.884160
  H      0.109229   -2.251536    0.000362
  H      2.577218   -2.024657   -0.000156
  H      2.177467    2.224214    0.000228
  H     -0.293070    1.992696    0.000805
  H      4.316342   -0.553792   -0.001058

 Total Charge           Charge          ....    0
 Multiplicity           Mult            ....    1
 Number of Electrons    NEL             ....   80
 Basis Dimension        Dim             ....  264

ORBITAL ENERGIES
----------------

  NO   OCC          E(Eh)            E(eV)
   0   2.0000     -19.001618      -517.0603
   1   2.0000     -18.996583      -516.9233
   2   2.0000     -18.928408      -515.0682
   3   2.0000     -10.152445      -276.2621
   4   2.0000     -10.113988      -275.2156
   5   2.0000     -10.083545      -274.3872
   6   2.0000     -10.049930      -273.4725
   7   2.0000     -10.049840      -273.4700
   8   2.0000     -10.048412      -273.4312
   9   2.0000     -10.047747      -273.4131
  10   2.0000     -10.042490      -273.2700
  11   2.0000      -1.071081       -29.1456
  12   2.0000      -1.047846       -28.5133
  13   2.0000      -0.978620       -26.6296
  14   2.0000      -0.837878       -22.7998
  15   2.0000      -0.743071       -20.2200
  16   2.0000      -0.733374       -19.9561
  17   2.0000      -0.689215       -18.7545
  18   2.0000      -0.616962       -16.7884
  19   2.0000      -0.593065       -16.1381
  20   2.0000      -0.540840       -14.7170
  21   2.0000      -0.530467       -14.4347
  22   2.0000      -0.504098       -13.7172
  23   2.0000      -0.456121       -12.4117
  24   2.0000      -0.450367       -12.2551
  25   2.0000      -0.435948       -11.8628
  26   2.0000      -0.420388       -11.4393
  27   2.0000      -0.406419       -11.0592
  28   2.0000      -0.401668       -10.9299
  29   2.0000      -0.399044       -10.8585
  30   2.0000      -0.375235       -10.2107
  31   2.0000      -0.370620       -10.0851
  32   2.0000      -0.352935        -9.6038
  33   2.0000      -0.328088        -8.9277
  34   2.0000      -0.318813        -8.6754
  35   2.0000      -0.314023        -8.5450
  36   2.0000      -0.273592        -7.4448
  37   2.0000      -0.251100        -6.8328
  38   2.0000      -0.240852        -6.5539
  39   2.0000      -0.220620        -6.0034
  40   0.0000      -0.065199        -1.7742
  41   0.0000      -0.043753        -1.1906
  42   0.0000       0.033913         0.9228
  43   0.0000       0.047366         1.2889
  44   0.0000       0.063693         1.7332

MULLIKEN ATOMIC CHARGES
-----------------------
   0 C :   -0.297591
   1 O :   -0.169963
   2 C :    0.351508
   3 O :   -0.426942
   4 C :    0.079938
   5 C :   -0.225235
   6 C :   -0.327133
   7 C :    0.451963
   8 C :   -0.300809
   9 C :   -0.172875
  10 O :   -0.400775
  11 H :    0.160410
  12 H :    0.148517
  13 H :    0.160615
  14 H :    0.181599
  15 H :    0.139454
  16 H :    0.157785
  17 H :    0.173166
  18 H :    0.316368
Sum of atomic charges:    0.0000000

LOEWDIN ATOMIC CHARGES
----------------------
   0 C :   -0.043998
   1 O :   -0.615574
   2 C :    0.379565
   3 O :   -0.429942
   4 C :   -0.054531
   5 C :   -0.093367
   6 C :   -0.166788
   7 C :    0.197479
   8 C :   -0.139686
   9 C :   -0.100407
  10 O :   -0.479475
  11 H :    0.176543
  12 H :    0.174732
  13 H :    0.176661
  14 H :    0.191410
  15 H :    0.171201
  16 H :    0.182040
  17 H :    0.189333
  18 H :    0.284805

  Mayer bond orders larger than 0.100000
B(  0-C ,  1-O ) :   0.8480 B(  0-C , 11-H ) :   0.9627 B(  0-C , 12-H ) :   0.9711
B(  0-C , 13-H ) :   0.9628 B(  1-O ,  2-C ) :   1.1447 B(  1-O ,  4-C ) :  -0.1249
B(  2-C ,  3-O ) :   1.8594 B(  2-C ,  4-C ) :   1.0399 B(  4-C ,  5-C ) :   1.4784
B(  4-C ,  9-C ) :   1.3603 B(  5-C ,  6-C ) :   1.3799 B(  5-C , 14-H ) :   0.9343
B(  6-C ,  7-C ) :   1.3016 B(  6-C , 15-H ) :   0.9321 B(  7-C ,  8-C ) :   1.3876
B(  7-C , 10-O ) :   0.9361 B(  8-C ,  9-C ) :   1.3586 B(  8-C , 10-O ) :   0.1038
B(  8-C , 16-H ) :   0.9532 B(  9-C , 17-H ) :   0.9503 B( 10-O , 18-H ) :   0.8802

Dispersion correction           -0.006363889
FINAL SINGLE POINT ENERGY      -535.250113182019

DIPOLE MOMENT
-------------

Method             : SCF
Type of density    : Electron Density
Multiplicity       :   1
Irrep              :   0
Energy             :  -535.2534669093126922 Eh
Relativity type    :
Basis              : AO
                                X                 Y                 Z
Electronic contribution:      3.925103585      -1.111805446       0.002575737
Nuclear contribution   :     -3.367657735       1.342824682      -0.002964890
                        -----------------------------------------
Total Dipole Moment    :      0.557445850       0.231019237      -0.000389154
                        -----------------------------------------
Magnitude (a.u.)       :      0.603420181
Magnitude (Debye)      :      1.533772210

Rotational constants in cm-1:             0.116539             0.019435             0.016710
Rotational constants in MHz :          3493.737786           582.650174           500.940854

                             ****ORCA TERMINATED NORMALLY****
TOTAL RUN TIME: 0 days 0 hours 0 minutes 35 seconds 46 msec
