                         Program Version 6.0.1  -  RELEASE   -
|  1> ! pbe def2-sv(p) def2/J RI DEFGRID1 loosescf d4 GCP(DFT/SV(P)) printgap
|  2> %output
|  3>     printlevel normal
|  4> end
|  5> * xyz 0 1
|  6> C -2.3280251349 -0.9344673881 -0.4164670065
|  7> C -0.9605071706 -0.5051572961 0.1265344639
|  8> H -0.9346735373 -0.7402494703 1.2026863343
|  9> C -0.7231478038 1.0164744941 -0.0338841816
| 10> H -1.3709104866 1.4198144722 -0.8294566615
| 11> C 0.7407376527 1.2541360717 -0.470129758
| 12> H 1.0090001562 2.3053648619 -0.3082693037
| 13> C 1.669250588 0.3588782248 0.3753565303
| 14> H 2.7098567687 0.5091125195 0.0657785691
| 15> C 1.3082713539 -1.133015569 0.1037077935
| 16> H 1.2766273917 -1.6722485918 1.0630079467
| 17> O 0.0434143847 -1.2318068319 -0.5460010946
| 18> O 2.2394464981 -1.7801522481 -0.6756214722
| 19> O 1.6199204819 0.6921312623 1.7341757075
| 20> O 0.8934540271 1.0182575041 -1.8441283195
| 21> O -1.0304416573 1.6244211644 1.2042887882
| 22> O -3.3754611264 -0.4810921182 0.3937955024
| 23> H -2.3825927477 -2.0248907813 -0.4216323993
| 24> H -2.4390481046 -0.57533548 -1.4509155419
| 25> H 2.2907644611 -1.3539715565 -1.5413736686
| 26> H 0.697064374 0.8163280654 2.0031611001
| 27> H 0.5479159583 0.130670117 -2.0265699327
| 28> H -0.8778054581 2.5751494643 1.1453067752
| 29> H -3.2256865513 0.4447216556 0.6201179583
| 30> *
| 31>
| 32>                          ****END OF INPUT****

CARTESIAN COORDINATES (ANGSTROEM)
---------------------------------
  C     -2.328025   -0.934467   -0.416467
  C     -0.960507   -0.505157    0.126534
  H     -0.934674   -0.740249    1.202686
  C     -0.723148    1.016474   -0.033884
  H     -1.370910    1.419814   -0.829457
  C      0.740738    1.254136   -0.470130
  H      1.009000    2.305365   -0.308269
  C      1.669251    0.358878    0.375357
  H      2.709857    0.509113    0.065779
  C      1.308271   -1.133016    0.103708
  H      1.276627   -1.672249    1.063008
  O      0.043414   -1.231807   -0.546001
  O      2.239446   -1.780152   -0.675621
  O      1.619920    0.692131    1.734176
  O      0.893454    1.018258   -1.844128
  O     -1.030442    1.624421    1.204289
  O     -3.375461   -0.481092    0.393796
  H     -2.382593   -2.024891   -0.421632
  H     -2.439048   -0.575335   -1.450916
  H      2.290764   -1.353972   -1.541374
  H      0.697064    0.816328    2.003161
  H      0.547916    0.130670   -2.026570
  H     -0.877805    2.575149    1.145307
  H     -3.225687    0.444722    0.620118

 Total Charge           Charge          ....    0
 Multiplicity           Mult            ....    1
 Number of Electrons    NEL             ....   96
 Basis Dimension        Dim             ....  192

ORBITAL ENERGIES
----------------

  NO   OCC          E(Eh)            E(eV)
   0   2.0000     -18.797371      -511.5025
   1   2.0000     -18.792527      -511.3707
   2   2.0000     -18.767554      -510.6911
   3   2.0000     -18.766397      -510.6596
   4   2.0000     -18.756367      -510.3867
   5   2.0000     -18.752440      -510.2798
   6   2.0000      -9.993027      -271.9241
   7   2.0000      -9.966740      -271.2088
   8   2.0000      -9.961948      -271.0784
   9   2.0000      -9.957654      -270.9615
  10   2.0000      -9.944909      -270.6147
  11   2.0000      -9.942875      -270.5594
  12   2.0000      -1.001237       -27.2451
  13   2.0000      -0.971736       -26.4423
  14   2.0000      -0.945624       -25.7317
  15   2.0000      -0.938067       -25.5261
  16   2.0000      -0.930622       -25.3235
  17   2.0000      -0.928422       -25.2636
  18   2.0000      -0.715735       -19.4761
  19   2.0000      -0.691352       -18.8126
  20   2.0000      -0.629016       -17.1164
  21   2.0000      -0.607776       -16.5384
  22   2.0000      -0.579833       -15.7781
  23   2.0000      -0.543752       -14.7962
  24   2.0000      -0.523127       -14.2350
  25   2.0000      -0.509582       -13.8664
  26   2.0000      -0.482115       -13.1190
  27   2.0000      -0.478034       -13.0080
  28   2.0000      -0.462003       -12.5717
  29   2.0000      -0.447776       -12.1846
  30   2.0000      -0.429796       -11.6954
  31   2.0000      -0.405591       -11.0367
  32   2.0000      -0.389736       -10.6053
  33   2.0000      -0.383909       -10.4467
  34   2.0000      -0.367584       -10.0025
  35   2.0000      -0.363753        -9.8982
  36   2.0000      -0.344649        -9.3784
  37   2.0000      -0.336529        -9.1574
  38   2.0000      -0.322737        -8.7821
  39   2.0000      -0.314549        -8.5593
  40   2.0000      -0.291248        -7.9253
  41   2.0000      -0.283440        -7.7128
  42   2.0000      -0.270989        -7.3740
  43   2.0000      -0.267322        -7.2742
  44   2.0000      -0.252090        -6.8597
  45   2.0000      -0.234915        -6.3923
  46   2.0000      -0.224184        -6.1004
  47   2.0000      -0.205323        -5.5871
  48   0.0000      -0.010326        -0.2810
  49   0.0000       0.013038         0.3548
  50   0.0000       0.027406         0.7458
  51   0.0000       0.043097         1.1727
  52   0.0000       0.049106         1.3362

MULLIKEN ATOMIC CHARGES
-----------------------
   0 C :    0.086860
   1 C :   -0.015399
   2 H :    0.077449
   3 C :   -0.025594
   4 H :    0.077638
   5 C :    0.023652
   6 H :    0.071444
   7 C :    0.035057
   8 H :    0.083861
   9 C :    0.181182
  10 H :    0.074673
  11 O :   -0.304400
  12 O :   -0.367509
  13 O :   -0.421393
  14 O :   -0.419117
  15 O :   -0.410785
  16 O :   -0.430983
  17 H :    0.099701
  18 H :    0.073116
  19 H :    0.295185
  20 H :    0.298153
  21 H :    0.300576
  22 H :    0.313661
  23 H :    0.302971
Sum of atomic charges:    0.0000000

LOEWDIN ATOMIC CHARGES
----------------------
   0 C :   -0.117151
   1 C :   -0.076744
   2 H :    0.112200
   3 C :   -0.094416
   4 H :    0.106147
   5 C :   -0.083135
   6 H :    0.113491
   7 C :   -0.094725
   8 H :    0.121280
   9 C :   -0.002495
  10 H :    0.107948
  11 O :   -0.155469
  12 O :   -0.279322
  13 O :   -0.315218
  14 O :   -0.313464
  15 O :   -0.306458
  16 O :   -0.326749
  17 H :    0.119737
  18 H :    0.094760
  19 H :    0.280547
  20 H :    0.268201
  21 H :    0.267747
  22 H :    0.292679
  23 H :    0.280611

  Mayer bond orders larger than 0.100000
B(  0-C ,  1-C ) :   1.0553 B(  0-C , 16-O ) :   1.0786 B(  0-C , 17-H ) :   0.9183
B(  0-C , 18-H ) :   0.9077 B(  1-C ,  2-H ) :   0.8661 B(  1-C ,  3-C ) :   0.9771
B(  1-C , 11-O ) :   1.0206 B(  3-C ,  4-H ) :   0.8868 B(  3-C ,  5-C ) :   0.9922
B(  3-C , 15-O ) :   1.0152 B(  5-C ,  6-H ) :   0.8929 B(  5-C ,  7-C ) :   0.9705
B(  5-C , 14-O ) :   1.0441 B(  7-C ,  8-H ) :   0.8972 B(  7-C ,  9-C ) :   0.9297
B(  7-C , 13-O ) :   1.0738 B(  9-C , 10-H ) :   0.8944 B(  9-C , 11-O ) :   0.9653
B(  9-C , 12-O ) :   1.1584 B( 12-O , 19-H ) :   0.8374 B( 13-O , 20-H ) :   0.8119
B( 14-O , 21-H ) :   0.8148 B( 15-O , 20-H ) :   0.1002 B( 15-O , 22-H ) :   0.8361
B( 16-O , 23-H ) :   0.8417

Dispersion correction           -0.025210515
FINAL SINGLE POINT ENERGY      -685.688988044128

DIPOLE MOMENT
-------------

Method             : SCF
Type of density    : Electron Density
Multiplicity       :   1
Irrep              :   0
Energy             :  -685.8229520023214718 Eh
Relativity type    :
Basis              : AO
                                X                 Y                 Z
Electronic contribution:      2.149677594      -0.701293722       0.127742814
Nuclear contribution   :     -2.526796186       1.718696241      -0.444646123
                        -----------------------------------------
Total Dipole Moment    :     -0.377118592       1.017402519      -0.316903310
                        -----------------------------------------
Magnitude (a.u.)       :      1.130377824
Magnitude (Debye)      :      2.873192093

Rotational constants in cm-1:             0.042850             0.025495             0.021675
Rotational constants in MHz :          1284.618765           764.309382           649.797304

                             ****ORCA TERMINATED NORMALLY****
TOTAL RUN TIME: 0 days 0 hours 0 minutes 9 seconds 200 msec
