                         Program Version 6.0.1  -  RELEASE   -
|  1> ! r2scan-3c def2/J RI DEFGRID2 scfconv6 printgap
|  2> %output
|  3>     printlevel normal
|  4> end
|  5> * xyz 0 1
|  6> C -1.1897664601 0.9025479327 1.0331490225
|  7> C -0.5109352412 0.2192914243 0.0344331838
|  8> C -1.2252567328 -0.5763889205 -0.8602235053
|  9> C -2.6118640131 -0.6763332389 -0.760110913
| 10> C -3.2894186073 0.0196552061 0.2408845334
| 11> C -2.5677804102 0.806975073 1.1382307342
| 12> Cl -3.3900085584 1.6617265321 2.3768864052
| 13> Cl -4.9933235 -0.0997334361 0.363960395
| 14> Cl -3.4853461255 -1.6543618429 -1.8619225219
| 15> Cl -0.3931249808 -1.4595183939 -2.0738405316
| 16> C 0.9596357265 0.330997749 -0.0822122593
| 17> C 1.5458672782 1.0297277235 -1.1373110526
| 18> C 2.9224015543 1.126400657 -1.2586399768
| 19> C 3.7364147063 0.5184665582 -0.3155914393
| 20> C 3.1796444957 -0.1830282177 0.7544125883
| 21> C 1.7922187177 -0.2685873374 0.8608353819
| 22> Cl 1.09225974 -1.1441977314 2.1605254052
| 23> Cl 4.1847367139 -0.9330851431 1.922370751
| 24> Cl 5.439192433 0.6331144622 -0.4657339479
| 25> Cl 0.5396558307 1.804498352 -2.2929702298
| 26> H -0.6415649581 1.5169367538 1.7290707001
| 27> H 3.3602472555 1.6697237964 -2.0799133179
| 28> *
| 29>
| 30>                          ****END OF INPUT****

CARTESIAN COORDINATES (ANGSTROEM)
---------------------------------
  C     -1.189766    0.902548    1.033149
  C     -0.510935    0.219291    0.034433
  C     -1.225257   -0.576389   -0.860224
  C     -2.611864   -0.676333   -0.760111
  C     -3.289419    0.019655    0.240885
  C     -2.567780    0.806975    1.138231
  Cl    -3.390009    1.661727    2.376886
  Cl    -4.993323   -0.099733    0.363960
  Cl    -3.485346   -1.654362   -1.861923
  Cl    -0.393125   -1.459518   -2.073841
  C      0.959636    0.330998   -0.082212
  C      1.545867    1.029728   -1.137311
  C      2.922402    1.126401   -1.258640
  C      3.736415    0.518467   -0.315591
  C      3.179644   -0.183028    0.754413
  C      1.792219   -0.268587    0.860835
  Cl     1.092260   -1.144198    2.160525
  Cl     4.184737   -0.933085    1.922371
  Cl     5.439192    0.633114   -0.465734
  Cl     0.539656    1.804498   -2.292970
  H     -0.641565    1.516937    1.729071
  H      3.360247    1.669724   -2.079913

 Total Charge           Charge          ....    0
 Multiplicity           Mult            ....    1
 Number of Electrons    NEL             ....  210
 Basis Dimension        Dim             ....  454

ORBITAL ENERGIES
----------------

  NO   OCC          E(Eh)            E(eV)
   0   2.0000    -101.248629     -2755.1153
   1   2.0000    -101.247757     -2755.0915
   2   2.0000    -101.246160     -2755.0481
   3   2.0000    -101.245668     -2755.0347
   4   2.0000    -101.244904     -2755.0139
   5   2.0000    -101.244695     -2755.0082
   6   2.0000    -101.243780     -2754.9833
   7   2.0000    -101.243115     -2754.9652
   8   2.0000     -10.142772      -275.9989
   9   2.0000     -10.140957      -275.9495
  10   2.0000     -10.139513      -275.9102
  11   2.0000     -10.138932      -275.8944
  12   2.0000     -10.138715      -275.8885
  13   2.0000     -10.136771      -275.8356
  14   2.0000     -10.135244      -275.7940
  15   2.0000     -10.134049      -275.7615
  16   2.0000     -10.099252      -274.8146
  17   2.0000     -10.096201      -274.7316
  18   2.0000     -10.083804      -274.3943
  19   2.0000     -10.081041      -274.3191
  20   2.0000      -9.404510      -255.9097
  21   2.0000      -9.403682      -255.8872
  22   2.0000      -9.401941      -255.8398
  23   2.0000      -9.401677      -255.8326
  24   2.0000      -9.400715      -255.8065
  25   2.0000      -9.400519      -255.8011
  26   2.0000      -9.399688      -255.7785
  27   2.0000      -9.399032      -255.7607
  28   2.0000      -7.151070      -194.5905
  29   2.0000      -7.150207      -194.5670
  30   2.0000      -7.148617      -194.5238
  31   2.0000      -7.148084      -194.5093
  32   2.0000      -7.147389      -194.4903
  33   2.0000      -7.147190      -194.4849
  34   2.0000      -7.146239      -194.4591
  35   2.0000      -7.145542      -194.4401
  36   2.0000      -7.140872      -194.3130
  37   2.0000      -7.139965      -194.2883
  38   2.0000      -7.139820      -194.2844
  39   2.0000      -7.139110      -194.2651
  40   2.0000      -7.138239      -194.2414
  41   2.0000      -7.137899      -194.2321
  42   2.0000      -7.137267      -194.2149
  43   2.0000      -7.137209      -194.2133
  44   2.0000      -7.137052      -194.2091
  45   2.0000      -7.136846      -194.2035
  46   2.0000      -7.135947      -194.1790
  47   2.0000      -7.135945      -194.1789
  48   2.0000      -7.135758      -194.1738
  49   2.0000      -7.135288      -194.1611
  50   2.0000      -7.135099      -194.1559
  51   2.0000      -7.134505      -194.1397
  52   2.0000      -0.935644       -25.4602
  53   2.0000      -0.926038       -25.1988
  54   2.0000      -0.889276       -24.1984
  55   2.0000      -0.879718       -23.9384
  56   2.0000      -0.877504       -23.8781
  57   2.0000      -0.859508       -23.3884
  58   2.0000      -0.840020       -22.8581
  59   2.0000      -0.831123       -22.6160
  60   2.0000      -0.815654       -22.1951
  61   2.0000      -0.802886       -21.8476
  62   2.0000      -0.759549       -20.6684
  63   2.0000      -0.723701       -19.6929
  64   2.0000      -0.716487       -19.4966
  65   2.0000      -0.702186       -19.1075
  66   2.0000      -0.630459       -17.1557
  67   2.0000      -0.607946       -16.5431
  68   2.0000      -0.605674       -16.4812
  69   2.0000      -0.581669       -15.8280
  70   2.0000      -0.523231       -14.2378
  71   2.0000      -0.522514       -14.2183
  72   2.0000      -0.510832       -13.9005
  73   2.0000      -0.499678       -13.5969
  74   2.0000      -0.473795       -12.8926
  75   2.0000      -0.461182       -12.5494
  76   2.0000      -0.446237       -12.1427
  77   2.0000      -0.444957       -12.1079
  78   2.0000      -0.443940       -12.0802
  79   2.0000      -0.436544       -11.8790
  80   2.0000      -0.434790       -11.8312
  81   2.0000      -0.418505       -11.3881
  82   2.0000      -0.401420       -10.9232
  83   2.0000      -0.397340       -10.8122
  84   2.0000      -0.389658       -10.6031
  85   2.0000      -0.381257       -10.3745
  86   2.0000      -0.372292       -10.1306
  87   2.0000      -0.368366       -10.0238
  88   2.0000      -0.354863        -9.6563
  89   2.0000      -0.333968        -9.0877
  90   2.0000      -0.328793        -8.9469
  91   2.0000      -0.326305        -8.8792
  92   2.0000      -0.323819        -8.8116
  93   2.0000      -0.320264        -8.7148
  94   2.0000      -0.318116        -8.6564
  95   2.0000      -0.310270        -8.4429
  96   2.0000      -0.307196        -8.3592
  97   2.0000      -0.303858        -8.2684
  98   2.0000      -0.301266        -8.1979
  99   2.0000      -0.290128        -7.8948
 100   2.0000      -0.285280        -7.7629
 101   2.0000      -0.259996        -7.0749
 102   2.0000      -0.248897        -6.7728
 103   2.0000      -0.244423        -6.6511
 104   2.0000      -0.240553        -6.5458
 105   0.0000      -0.089922        -2.4469
 106   0.0000      -0.080458        -2.1894
 107   0.0000      -0.073284        -1.9942
 108   0.0000      -0.067621        -1.8401
 109   0.0000      -0.063134        -1.7180

MULLIKEN ATOMIC CHARGES
-----------------------
   0 C :   -0.266979
   1 C :    0.103654
   2 C :    0.068205
   3 C :    0.014090
   4 C :    0.073875
   5 C :    0.105675
   6 Cl:   -0.086920
   7 Cl:   -0.059690
   8 Cl:   -0.059541
   9 Cl:   -0.062904
  10 C :    0.083002
  11 C :    0.197107
  12 C :   -0.410453
  13 C :    0.191091
  14 C :   -0.021745
  15 C :    0.061274
  16 Cl:   -0.057563
  17 Cl:   -0.061713
  18 Cl:   -0.079766
  19 Cl:   -0.085394
  20 H :    0.175953
  21 H :    0.178741
Sum of atomic charges:   -0.0000000

LOEWDIN ATOMIC CHARGES
----------------------
   0 C :   -0.137437
   1 C :   -0.096677
   2 C :   -0.168672
   3 C :   -0.190194
   4 C :   -0.193310
   5 C :   -0.180567
   6 Cl:    0.175343
   7 Cl:    0.191264
   8 Cl:    0.192028
   9 Cl:    0.202911
  10 C :   -0.105846
  11 C :   -0.148243
  12 C :   -0.171639
  13 C :   -0.173298
  14 C :   -0.201479
  15 C :   -0.151879
  16 Cl:    0.207907
  17 Cl:    0.187337
  18 Cl:    0.182009
  19 Cl:    0.194723
  20 H :    0.193013
  21 H :    0.192706

  Mayer bond orders larger than 0.100000
B(  0-C ,  1-C ) :   1.3750 B(  0-C ,  5-C ) :   1.3247 B(  0-C , 20-H ) :   0.9202
B(  1-C ,  2-C ) :   1.2745 B(  1-C ,  9-Cl) :  -0.1113 B(  1-C , 10-C ) :   0.7563
B(  1-C , 11-C ) :  -0.1183 B(  2-C ,  3-C ) :   1.0786 B(  2-C ,  9-Cl) :   1.2670
B(  3-C ,  4-C ) :   1.0984 B(  3-C ,  8-Cl) :   1.2840 B(  4-C ,  5-C ) :   1.2211
B(  4-C ,  7-Cl) :   1.2499 B(  5-C ,  6-Cl) :   1.0830 B( 10-C , 11-C ) :   1.3234
B( 10-C , 15-C ) :   1.2327 B( 11-C , 12-C ) :   1.2991 B( 11-C , 19-Cl) :   1.0272
B( 12-C , 13-C ) :   1.3058 B( 12-C , 21-H ) :   0.9198 B( 13-C , 14-C ) :   1.2209
B( 13-C , 18-Cl) :   1.0787 B( 14-C , 15-C ) :   1.0988 B( 14-C , 17-Cl) :   1.2511
B( 15-C , 16-Cl) :   1.2391

Dispersion correction           -0.017189584
FINAL SINGLE POINT ENERGY     -4139.794576796546

DIPOLE MOMENT
-------------

Method             : SCF
Type of density    : Electron Density
Multiplicity       :   1
Irrep              :   0
Energy             : -4139.7919947855807550 Eh
Relativity type    :
Basis              : AO
                                X                 Y                 Z
Electronic contribution:     -3.539072913      -4.237792638       0.432048510
Nuclear contribution   :      3.900814140       4.588973295      -0.502667834
                        -----------------------------------------
Total Dipole Moment    :      0.361741227       0.351180656      -0.070619324
                        -----------------------------------------
Magnitude (a.u.)       :      0.509089047
Magnitude (Debye)      :      1.294001521

Rotational constants in cm-1:             0.010437             0.003509             0.003156
Rotational constants in MHz :           312.882749           105.194866            94.625102

                             ****ORCA TERMINATED NORMALLY****
TOTAL RUN TIME: 0 days 0 hours 1 minutes 23 seconds 480 msec
