                         Program Version 6.0.1  -  RELEASE   -
|  1> ! pbe def2-sv(p) def2/J RI DEFGRID1 loosescf d4 GCP(DFT/SV(P)) printgap
|  2> %output
|  3>     printlevel normal
|  4> end
|  5> * xyz 0 1
|  6> C 2.7580835027 0.3561655074 0.644665241
|  7> C 1.9333812853 -0.2693569992 -0.4953308515
|  8> C 0.4570756851 -0.120446201 -0.2643726547
|  9> C -0.1495742433 1.134622335 -0.2580139849
| 10> C -1.5093250662 1.218911381 -0.0218832616
| 11> C -2.223016282 0.0503003236 0.2005242102
| 12> C -1.5300394949 -1.1484560208 0.1704506742
| 13> N -0.2305272102 -1.2341370007 -0.0551293576
| 14> H 2.1056148818 0.790719756 1.3987691128
| 15> H 3.412839015 1.1407420206 0.2743825978
| 16> H 3.3735745965 -0.3944428486 1.1319792224
| 17> H 2.149815053 -1.3332951212 -0.5832146668
| 18> H 2.1890830961 0.2083554718 -1.4433055016
| 19> H 0.4394310409 2.0217204156 -0.4373386163
| 20> H -2.0072485742 2.1784444795 -0.0125886393
| 21> H -3.285166546 0.0712367488 0.3890522127
| 22> H -2.0352514286 -2.0920892451 0.3339276064
| 23> *
| 24>
| 25>                          ****END OF INPUT****

CARTESIAN COORDINATES (ANGSTROEM)
---------------------------------
  C      2.758084    0.356166    0.644665
  C      1.933381   -0.269357   -0.495331
  C      0.457076   -0.120446   -0.264373
  C     -0.149574    1.134622   -0.258014
  C     -1.509325    1.218911   -0.021883
  C     -2.223016    0.050300    0.200524
  C     -1.530039   -1.148456    0.170451
  N     -0.230527   -1.234137   -0.055129
  H      2.105615    0.790720    1.398769
  H      3.412839    1.140742    0.274383
  H      3.373575   -0.394443    1.131979
  H      2.149815   -1.333295   -0.583215
  H      2.189083    0.208355   -1.443306
  H      0.439431    2.021720   -0.437339
  H     -2.007249    2.178444   -0.012589
  H     -3.285167    0.071237    0.389052
  H     -2.035251   -2.092089    0.333928

 Total Charge           Charge          ....    0
 Multiplicity           Mult            ....    1
 Number of Electrons    NEL             ....   58
 Basis Dimension        Dim             ....  130

ORBITAL ENERGIES
----------------

  NO   OCC          E(Eh)            E(eV)
   0   2.0000     -13.974655      -380.2697
   1   2.0000      -9.929246      -270.1885
   2   2.0000      -9.917725      -269.8750
   3   2.0000      -9.908451      -269.6227
   4   2.0000      -9.898951      -269.3642
   5   2.0000      -9.897427      -269.3227
   6   2.0000      -9.885451      -268.9968
   7   2.0000      -9.879441      -268.8333
   8   2.0000      -0.857405       -23.3312
   9   2.0000      -0.723186       -19.6789
  10   2.0000      -0.716308       -19.4917
  11   2.0000      -0.657680       -17.8964
  12   2.0000      -0.580352       -15.7922
  13   2.0000      -0.563643       -15.3375
  14   2.0000      -0.528079       -14.3698
  15   2.0000      -0.463625       -12.6159
  16   2.0000      -0.441100       -12.0029
  17   2.0000      -0.412252       -11.2179
  18   2.0000      -0.393620       -10.7109
  19   2.0000      -0.385040       -10.4775
  20   2.0000      -0.365868        -9.9558
  21   2.0000      -0.354862        -9.6563
  22   2.0000      -0.340475        -9.2648
  23   2.0000      -0.323902        -8.8138
  24   2.0000      -0.300886        -8.1875
  25   2.0000      -0.298126        -8.1124
  26   2.0000      -0.260140        -7.0788
  27   2.0000      -0.229990        -6.2583
  28   2.0000      -0.200026        -5.4430
  29   0.0000      -0.050686        -1.3792
  30   0.0000      -0.043008        -1.1703
  31   0.0000       0.040723         1.1081
  32   0.0000       0.056149         1.5279
  33   0.0000       0.075273         2.0483

MULLIKEN ATOMIC CHARGES
-----------------------
   0 C :   -0.295361
   1 C :   -0.091620
   2 C :   -0.097203
   3 C :   -0.082107
   4 C :   -0.010366
   5 C :   -0.076851
   6 C :   -0.053988
   7 N :   -0.053577
   8 H :    0.117078
   9 H :    0.101292
  10 H :    0.110881
  11 H :    0.090787
  12 H :    0.097889
  13 H :    0.049561
  14 H :    0.064474
  15 H :    0.062013
  16 H :    0.067098
Sum of atomic charges:   -0.0000000

LOEWDIN ATOMIC CHARGES
----------------------
   0 C :   -0.339853
   1 C :   -0.230491
   2 C :   -0.007405
   3 C :   -0.137257
   4 C :   -0.098287
   5 C :   -0.149626
   6 C :   -0.079289
   7 N :   -0.075078
   8 H :    0.121813
   9 H :    0.120174
  10 H :    0.126026
  11 H :    0.127836
  12 H :    0.127832
  13 H :    0.125925
  14 H :    0.126874
  15 H :    0.127307
  16 H :    0.113500

  Mayer bond orders larger than 0.100000
B(  0-C ,  1-C ) :   1.1091 B(  0-C ,  8-H ) :   0.9636 B(  0-C ,  9-H ) :   0.9556
B(  0-C , 10-H ) :   0.9575 B(  1-C ,  2-C ) :   1.0658 B(  1-C , 11-H ) :   0.9116
B(  1-C , 12-H ) :   0.9190 B(  2-C ,  3-C ) :   1.3560 B(  2-C ,  7-N ) :   1.5829
B(  3-C ,  4-C ) :   1.4253 B(  3-C , 13-H ) :   0.9464 B(  4-C ,  5-C ) :   1.4044
B(  4-C , 14-H ) :   0.9569 B(  5-C ,  6-C ) :   1.3835 B(  5-C , 15-H ) :   0.9489
B(  6-C ,  7-N ) :   1.5309 B(  6-C , 16-H ) :   0.9519

Dispersion correction           -0.016194156
FINAL SINGLE POINT ENERGY      -326.174029519454

DIPOLE MOMENT
-------------

Method             : SCF
Type of density    : Electron Density
Multiplicity       :   1
Irrep              :   0
Energy             :  -326.2232286218513195 Eh
Relativity type    :
Basis              : AO
                                X                 Y                 Z
Electronic contribution:     -6.106114431      -1.760857516      -0.974834158
Nuclear contribution   :      5.949249247       2.424395353       0.986335166
                        -----------------------------------------
Total Dipole Moment    :     -0.156865184       0.663537836       0.011501008
                        -----------------------------------------
Magnitude (a.u.)       :      0.681924790
Magnitude (Debye)      :      1.733315067

Rotational constants in cm-1:             0.157831             0.051394             0.041991
Rotational constants in MHz :          4731.660834          1540.738955          1258.848460

                             ****ORCA TERMINATED NORMALLY****
TOTAL RUN TIME: 0 days 0 hours 0 minutes 5 seconds 319 msec
