                         Program Version 6.0.1  -  RELEASE   -
|  1> ! pbe def2-sv(p) def2/J RI DEFGRID1 loosescf d4 GCP(DFT/SV(P)) printgap
|  2> %output
|  3>     printlevel normal
|  4> end
|  5> * xyz 0 1
|  6> C -4.4432730957 -1.2135517538 -0.367845938
|  7> N -3.3445996924 -0.7413021221 0.4353895305
|  8> C -2.2336556131 -0.198901453 -0.1073325402
|  9> O -2.006976316 -0.0883039161 -1.2830121227
| 10> O -1.3941438243 0.2033690741 0.8880821392
| 11> C -0.1838697342 0.7716568305 0.4851442119
| 12> C -0.0914286595 2.1303413514 0.3542290235
| 13> C 1.12745093 2.7189599482 -0.0115175938
| 14> C 2.2260832863 1.9430537506 -0.2489739613
| 15> C 2.1573465858 0.5394199573 -0.1288214713
| 16> C 0.9304011491 -0.0687439319 0.2465790019
| 17> C 0.8653304684 -1.4718400609 0.3656096738
| 18> C 1.9666540115 -2.2420805748 0.1176069405
| 19> C 3.1804480028 -1.6453356378 -0.2554309825
| 20> C 3.2736436212 -0.2870771315 -0.3743353847
| 21> H -4.6467871592 -2.2659039069 -0.1614803702
| 22> H -4.1544480716 -1.0994230292 -1.4112096897
| 23> H -5.3462325986 -0.6294208648 -0.1774170046
| 24> H -3.4270482009 -0.7505570529 1.4389107705
| 25> H -0.9621529402 2.743376776 0.5308967203
| 26> H 1.1817117815 3.7927332355 -0.1102149016
| 27> H 3.1649379834 2.3929886952 -0.5377786104
| 28> H -0.0698956809 -1.9281317102 0.6551931349
| 29> H 1.909738605 -3.3169363068 0.207721807
| 30> H 4.0405278445 -2.2699900298 -0.4478369781
| 31> H 4.2066503343 0.1768565146 -0.6609425682
| 32> *
| 33>
| 34>                          ****END OF INPUT****

CARTESIAN COORDINATES (ANGSTROEM)
---------------------------------
  C     -4.443273   -1.213552   -0.367846
  N     -3.344600   -0.741302    0.435390
  C     -2.233656   -0.198901   -0.107333
  O     -2.006976   -0.088304   -1.283012
  O     -1.394144    0.203369    0.888082
  C     -0.183870    0.771657    0.485144
  C     -0.091429    2.130341    0.354229
  C      1.127451    2.718960   -0.011518
  C      2.226083    1.943054   -0.248974
  C      2.157347    0.539420   -0.128821
  C      0.930401   -0.068744    0.246579
  C      0.865330   -1.471840    0.365610
  C      1.966654   -2.242081    0.117607
  C      3.180448   -1.645336   -0.255431
  C      3.273644   -0.287077   -0.374335
  H     -4.646787   -2.265904   -0.161480
  H     -4.154448   -1.099423   -1.411210
  H     -5.346233   -0.629421   -0.177417
  H     -3.427048   -0.750557    1.438911
  H     -0.962153    2.743377    0.530897
  H      1.181712    3.792733   -0.110215
  H      3.164938    2.392989   -0.537779
  H     -0.069896   -1.928132    0.655193
  H      1.909739   -3.316936    0.207722
  H      4.040528   -2.269990   -0.447837
  H      4.206650    0.176857   -0.660943

 Total Charge           Charge          ....    0
 Multiplicity           Mult            ....    1
 Number of Electrons    NEL             ....  106
 Basis Dimension        Dim             ....  232

ORBITAL ENERGIES
----------------

  NO   OCC          E(Eh)            E(eV)
   0   2.0000     -18.801546      -511.6161
   1   2.0000     -18.719024      -509.3705
   2   2.0000     -14.021442      -381.5428
   3   2.0000     -10.022555      -272.7276
   4   2.0000      -9.952360      -270.8175
   5   2.0000      -9.921886      -269.9882
   6   2.0000      -9.904904      -269.5261
   7   2.0000      -9.903647      -269.4919
   8   2.0000      -9.896424      -269.2954
   9   2.0000      -9.894661      -269.2474
  10   2.0000      -9.894579      -269.2452
  11   2.0000      -9.894264      -269.2366
  12   2.0000      -9.893970      -269.2286
  13   2.0000      -9.893868      -269.2258
  14   2.0000      -9.893699      -269.2212
  15   2.0000      -1.010425       -27.4951
  16   2.0000      -0.917131       -24.9564
  17   2.0000      -0.845126       -22.9971
  18   2.0000      -0.794858       -21.6292
  19   2.0000      -0.746473       -20.3126
  20   2.0000      -0.700061       -19.0496
  21   2.0000      -0.670239       -18.2381
  22   2.0000      -0.662415       -18.0252
  23   2.0000      -0.634043       -17.2532
  24   2.0000      -0.572471       -15.5777
  25   2.0000      -0.556621       -15.1464
  26   2.0000      -0.554744       -15.0954
  27   2.0000      -0.529649       -14.4125
  28   2.0000      -0.503462       -13.6999
  29   2.0000      -0.465902       -12.6778
  30   2.0000      -0.450951       -12.2710
  31   2.0000      -0.441792       -12.0218
  32   2.0000      -0.433776       -11.8036
  33   2.0000      -0.421473       -11.4689
  34   2.0000      -0.401979       -10.9384
  35   2.0000      -0.394591       -10.7374
  36   2.0000      -0.382479       -10.4078
  37   2.0000      -0.380635       -10.3576
  38   2.0000      -0.369222       -10.0470
  39   2.0000      -0.365419        -9.9436
  40   2.0000      -0.354688        -9.6515
  41   2.0000      -0.351660        -9.5691
  42   2.0000      -0.341202        -9.2846
  43   2.0000      -0.332874        -9.0580
  44   2.0000      -0.304324        -8.2811
  45   2.0000      -0.298797        -8.1307
  46   2.0000      -0.294741        -8.0203
  47   2.0000      -0.259314        -7.0563
  48   2.0000      -0.253146        -6.8884
  49   2.0000      -0.227234        -6.1834
  50   2.0000      -0.225541        -6.1373
  51   2.0000      -0.218021        -5.9326
  52   2.0000      -0.195444        -5.3183
  53   0.0000      -0.069392        -1.8883
  54   0.0000      -0.040681        -1.1070
  55   0.0000      -0.003457        -0.0941
  56   0.0000       0.026540         0.7222
  57   0.0000       0.033339         0.9072

MULLIKEN ATOMIC CHARGES
-----------------------
   0 C :   -0.177840
   1 N :   -0.295974
   2 C :    0.196939
   3 O :   -0.211365
   4 O :   -0.263316
   5 C :    0.171053
   6 C :   -0.113996
   7 C :   -0.042036
   8 C :   -0.110616
   9 C :    0.133285
  10 C :    0.131318
  11 C :   -0.133239
  12 C :   -0.039392
  13 C :   -0.036752
  14 C :   -0.132076
  15 H :    0.113744
  16 H :    0.140348
  17 H :    0.113425
  18 H :    0.230455
  19 H :    0.039397
  20 H :    0.055304
  21 H :    0.038454
  22 H :    0.046538
  23 H :    0.052343
  24 H :    0.053555
  25 H :    0.040444
Sum of atomic charges:    0.0000000

LOEWDIN ATOMIC CHARGES
----------------------
   0 C :   -0.258313
   1 N :   -0.180153
   2 C :    0.025938
   3 O :   -0.187552
   4 O :   -0.068455
   5 C :    0.050930
   6 C :   -0.129525
   7 C :   -0.118622
   8 C :   -0.114843
   9 C :   -0.020730
  10 C :   -0.028973
  11 C :   -0.106876
  12 C :   -0.120939
  13 C :   -0.122874
  14 C :   -0.109276
  15 H :    0.116686
  16 H :    0.138875
  17 H :    0.116023
  18 H :    0.236168
  19 H :    0.131151
  20 H :    0.126583
  21 H :    0.124625
  22 H :    0.126212
  23 H :    0.124673
  24 H :    0.124681
  25 H :    0.124585

  Mayer bond orders larger than 0.100000
B(  0-C ,  1-N ) :   1.0255 B(  0-C , 15-H ) :   0.9587 B(  0-C , 16-H ) :   0.9366
B(  0-C , 17-H ) :   0.9583 B(  1-N ,  2-C ) :   1.2165 B(  1-N , 18-H ) :   0.8602
B(  2-C ,  3-O ) :   2.0509 B(  2-C ,  4-O ) :   1.0530 B(  4-O ,  5-C ) :   1.0047
B(  5-C ,  6-C ) :   1.4957 B(  5-C , 10-C ) :   1.2457 B(  6-C ,  7-C ) :   1.2156
B(  6-C , 19-H ) :   0.9622 B(  7-C ,  8-C ) :   1.4453 B(  7-C , 20-H ) :   0.9608
B(  8-C ,  9-C ) :   1.2361 B(  8-C , 21-H ) :   0.9671 B(  9-C , 10-C ) :   1.2522
B(  9-C , 14-C ) :   1.2392 B( 10-C , 11-C ) :   1.2592 B( 11-C , 12-C ) :   1.4509
B( 11-C , 22-H ) :   0.9546 B( 12-C , 13-C ) :   1.2575 B( 12-C , 23-H ) :   0.9623
B( 13-C , 14-C ) :   1.4624 B( 13-C , 24-H ) :   0.9621 B( 14-C , 25-H ) :   0.9650

Dispersion correction           -0.032474956
FINAL SINGLE POINT ENERGY      -667.736203388103

DIPOLE MOMENT
-------------

Method             : SCF
Type of density    : Electron Density
Multiplicity       :   1
Irrep              :   0
Energy             :  -667.8116264923876315 Eh
Relativity type    :
Basis              : AO
                                X                 Y                 Z
Electronic contribution:      3.418525950       2.721605972       1.364183590
Nuclear contribution   :     -3.918051047      -2.961741208      -0.635933425
                        -----------------------------------------
Total Dipole Moment    :     -0.499525098      -0.240135236       0.728250164
                        -----------------------------------------
Magnitude (a.u.)       :      0.915171326
Magnitude (Debye)      :      2.326180647

Rotational constants in cm-1:             0.037210             0.014124             0.011031
Rotational constants in MHz :          1115.535147           423.413521           330.694079

                             ****ORCA TERMINATED NORMALLY****
TOTAL RUN TIME: 0 days 0 hours 0 minutes 17 seconds 828 msec
