                         Program Version 6.0.1  -  RELEASE   -
|  1> ! r2scan-3c def2/J RI DEFGRID2 scfconv6 printgap
|  2> %output
|  3>     printlevel normal
|  4> end
|  5> * xyz 0 1
|  6> C -0.7164327601 -0.6013971181 0.293932134
|  7> C 0.6955991063 -0.6138940371 -0.298415583
|  8> O 1.4108157518 0.5396436597 0.085197874
|  9> O -1.4367995969 0.5240670843 -0.1357243585
| 10> H -0.6483268584 -0.610268864 1.395340097
| 11> H -1.2734640685 -1.4836087113 -0.0277385619
| 12> H 0.6396706993 -0.5730603252 -1.3882777052
| 13> H 1.2229392023 -1.5288122893 0.0004268338
| 14> H 1.5378355726 0.5260520493 1.0411397535
| 15> H -0.8179154385 1.2668093505 -0.1654046108
| 16> *
| 17>
| 18>                          ****END OF INPUT****

CARTESIAN COORDINATES (ANGSTROEM)
---------------------------------
  C     -0.716433   -0.601397    0.293932
  C      0.695599   -0.613894   -0.298416
  O      1.410816    0.539644    0.085198
  O     -1.436800    0.524067   -0.135724
  H     -0.648327   -0.610269    1.395340
  H     -1.273464   -1.483609   -0.027739
  H      0.639671   -0.573060   -1.388278
  H      1.222939   -1.528812    0.000427
  H      1.537836    0.526052    1.041140
  H     -0.817915    1.266809   -0.165405

 Total Charge           Charge          ....    0
 Multiplicity           Mult            ....    1
 Number of Electrons    NEL             ....   34
 Basis Dimension        Dim             ....  116

ORBITAL ENERGIES
----------------

  NO   OCC          E(Eh)            E(eV)
   0   2.0000     -18.965400      -516.0748
   1   2.0000     -18.945567      -515.5351
   2   2.0000     -10.084733      -274.4195
   3   2.0000     -10.079909      -274.2883
   4   2.0000      -1.009013       -27.4566
   5   2.0000      -0.980587       -26.6831
   6   2.0000      -0.703690       -19.1484
   7   2.0000      -0.602219       -16.3872
   8   2.0000      -0.494472       -13.4553
   9   2.0000      -0.465032       -12.6542
  10   2.0000      -0.436429       -11.8758
  11   2.0000      -0.411873       -11.2076
  12   2.0000      -0.374922       -10.2022
  13   2.0000      -0.320385        -8.7181
  14   2.0000      -0.303871        -8.2688
  15   2.0000      -0.261810        -7.1242
  16   2.0000      -0.232880        -6.3370
  17   0.0000       0.047291         1.2868
  18   0.0000       0.089104         2.4247
  19   0.0000       0.112218         3.0536
  20   0.0000       0.126274         3.4361
  21   0.0000       0.142068         3.8659

MULLIKEN ATOMIC CHARGES
-----------------------
   0 C :   -0.122818
   1 C :   -0.153092
   2 O :   -0.440536
   3 O :   -0.421824
   4 H :    0.117712
   5 H :    0.133914
   6 H :    0.145600
   7 H :    0.126404
   8 H :    0.298804
   9 H :    0.315834
Sum of atomic charges:    0.0000000

LOEWDIN ATOMIC CHARGES
----------------------
   0 C :    0.003705
   1 C :    0.007160
   2 O :   -0.614285
   3 O :   -0.605314
   4 H :    0.152608
   5 H :    0.176467
   6 H :    0.181880
   7 H :    0.159908
   8 H :    0.265077
   9 H :    0.272795

  Mayer bond orders larger than 0.100000
B(  0-C ,  1-C ) :   0.9562 B(  0-C ,  3-O ) :   0.9286 B(  0-C ,  4-H ) :   0.9656
B(  0-C ,  5-H ) :   0.9646 B(  1-C ,  2-O ) :   0.9471 B(  1-C ,  6-H ) :   0.9663
B(  1-C ,  7-H ) :   0.9654 B(  2-O ,  8-H ) :   0.8955 B(  3-O ,  9-H ) :   0.8702

Dispersion correction           -0.001591089
FINAL SINGLE POINT ENERGY      -230.210503703007

DIPOLE MOMENT
-------------

Method             : SCF
Type of density    : Electron Density
Multiplicity       :   1
Irrep              :   0
Energy             :  -230.2165485842701003 Eh
Relativity type    :
Basis              : AO
                                X                 Y                 Z
Electronic contribution:     -0.144981022       1.801761188      -0.298539836
Nuclear contribution   :      0.619498595      -2.238541361       0.801839715
                        -----------------------------------------
Total Dipole Moment    :      0.474517573      -0.436780174       0.503299878
                        -----------------------------------------
Magnitude (a.u.)       :      0.818079834
Magnitude (Debye)      :      2.079393687

Rotational constants in cm-1:             0.516377             0.184377             0.154675
Rotational constants in MHz :         15480.592701          5527.487655          4637.046620

                             ****ORCA TERMINATED NORMALLY****
TOTAL RUN TIME: 0 days 0 hours 0 minutes 11 seconds 558 msec
