                         Program Version 6.0.1  -  RELEASE   -
|  1> ! pbe def2-sv(p) def2/J RI DEFGRID1 loosescf d4 GCP(DFT/SV(P)) printgap
|  2> %output
|  3>     printlevel normal
|  4> end
|  5> * xyz 0 1
|  6> C -2.0858614988 -1.2163399418 -0.2300443301
|  7> C -1.2699473379 -0.353321664 0.7520580375
|  8> H -1.8780975574 -0.187221524 1.6467408606
|  9> C -0.9425035374 1.0270702386 0.149752652
| 10> H -1.2281190069 1.0314092793 -0.9171366068
| 11> C 0.5671661624 1.2984596163 0.240478272
| 12> H 0.8512851799 1.3883993445 1.2968258352
| 13> C 1.2972088941 0.1156833028 -0.397084353
| 14> H 0.9123470432 -0.0385932486 -1.4152270749
| 15> C 0.9932002163 -1.1499326288 0.4473247144
| 16> H 1.8306161253 -1.3210486613 1.1435481847
| 17> O -0.1161438931 -1.0160251047 1.2639445435
| 18> O 0.854122078 -2.2831049936 -0.3901003107
| 19> O 2.6804968178 0.3191739921 -0.5349071405
| 20> O 0.9066865668 2.5315090515 -0.3421519789
| 21> O -1.6707483237 2.0085971406 0.8419780803
| 22> O -1.4925325796 -1.3408645386 -1.4934640641
| 23> H -3.050798339 -0.72899282 -0.3862057102
| 24> H -2.2471537754 -2.1995123254 0.2283001856
| 25> H 1.6914880046 -2.4354154021 -0.8418982396
| 26> H 2.9947172888 0.8756259834 0.1874477907
| 27> H 0.8034753073 2.4678806998 -1.2999829225
| 28> H -1.261824569 2.865055211 0.6574492899
| 29> H -0.6925663265 -1.8810968767 -1.3769388269
| 30> *
| 31>
| 32>                          ****END OF INPUT****

CARTESIAN COORDINATES (ANGSTROEM)
---------------------------------
  C     -2.085861   -1.216340   -0.230044
  C     -1.269947   -0.353322    0.752058
  H     -1.878098   -0.187222    1.646741
  C     -0.942504    1.027070    0.149753
  H     -1.228119    1.031409   -0.917137
  C      0.567166    1.298460    0.240478
  H      0.851285    1.388399    1.296826
  C      1.297209    0.115683   -0.397084
  H      0.912347   -0.038593   -1.415227
  C      0.993200   -1.149933    0.447325
  H      1.830616   -1.321049    1.143548
  O     -0.116144   -1.016025    1.263945
  O      0.854122   -2.283105   -0.390100
  O      2.680497    0.319174   -0.534907
  O      0.906687    2.531509   -0.342152
  O     -1.670748    2.008597    0.841978
  O     -1.492533   -1.340865   -1.493464
  H     -3.050798   -0.728993   -0.386206
  H     -2.247154   -2.199512    0.228300
  H      1.691488   -2.435415   -0.841898
  H      2.994717    0.875626    0.187448
  H      0.803475    2.467881   -1.299983
  H     -1.261825    2.865055    0.657449
  H     -0.692566   -1.881097   -1.376939

 Total Charge           Charge          ....    0
 Multiplicity           Mult            ....    1
 Number of Electrons    NEL             ....   96
 Basis Dimension        Dim             ....  192

ORBITAL ENERGIES
----------------

  NO   OCC          E(Eh)            E(eV)
   0   2.0000     -18.781103      -511.0598
   1   2.0000     -18.777876      -510.9720
   2   2.0000     -18.771833      -510.8075
   3   2.0000     -18.765674      -510.6399
   4   2.0000     -18.748545      -510.1739
   5   2.0000     -18.738200      -509.8924
   6   2.0000      -9.998453      -272.0717
   7   2.0000      -9.952829      -270.8303
   8   2.0000      -9.951589      -270.7965
   9   2.0000      -9.943252      -270.5696
  10   2.0000      -9.942426      -270.5472
  11   2.0000      -9.926427      -270.1118
  12   2.0000      -0.992528       -27.0081
  13   2.0000      -0.959844       -26.1187
  14   2.0000      -0.940882       -25.6027
  15   2.0000      -0.929792       -25.3009
  16   2.0000      -0.921260       -25.0687
  17   2.0000      -0.915232       -24.9047
  18   2.0000      -0.709432       -19.3046
  19   2.0000      -0.698155       -18.9978
  20   2.0000      -0.620025       -16.8717
  21   2.0000      -0.591098       -16.0846
  22   2.0000      -0.581014       -15.8102
  23   2.0000      -0.525001       -14.2860
  24   2.0000      -0.514230       -13.9929
  25   2.0000      -0.502254       -13.6670
  26   2.0000      -0.470905       -12.8140
  27   2.0000      -0.457392       -12.4463
  28   2.0000      -0.448235       -12.1971
  29   2.0000      -0.443141       -12.0585
  30   2.0000      -0.435333       -11.8460
  31   2.0000      -0.412947       -11.2369
  32   2.0000      -0.387814       -10.5529
  33   2.0000      -0.369692       -10.0598
  34   2.0000      -0.360693        -9.8150
  35   2.0000      -0.351512        -9.5651
  36   2.0000      -0.330948        -9.0055
  37   2.0000      -0.330104        -8.9826
  38   2.0000      -0.312136        -8.4936
  39   2.0000      -0.306108        -8.3296
  40   2.0000      -0.287167        -7.8142
  41   2.0000      -0.275997        -7.5103
  42   2.0000      -0.263317        -7.1652
  43   2.0000      -0.254555        -6.9268
  44   2.0000      -0.243675        -6.6307
  45   2.0000      -0.226012        -6.1501
  46   2.0000      -0.214153        -5.8274
  47   2.0000      -0.203951        -5.5498
  48   0.0000       0.014414         0.3922
  49   0.0000       0.018214         0.4956
  50   0.0000       0.030132         0.8199
  51   0.0000       0.047085         1.2813
  52   0.0000       0.051090         1.3902

MULLIKEN ATOMIC CHARGES
-----------------------
   0 C :    0.023080
   1 C :    0.050518
   2 H :    0.083813
   3 C :    0.056112
   4 H :    0.061837
   5 C :    0.006117
   6 H :    0.065580
   7 C :   -0.017996
   8 H :    0.055693
   9 C :    0.230749
  10 H :    0.061183
  11 O :   -0.292039
  12 O :   -0.417512
  13 O :   -0.408086
  14 O :   -0.410575
  15 O :   -0.411011
  16 O :   -0.445598
  17 H :    0.095405
  18 H :    0.086625
  19 H :    0.315902
  20 H :    0.308356
  21 H :    0.304300
  22 H :    0.299401
  23 H :    0.298149
Sum of atomic charges:   -0.0000000

LOEWDIN ATOMIC CHARGES
----------------------
   0 C :   -0.133058
   1 C :   -0.064590
   2 H :    0.129718
   3 C :   -0.076345
   4 H :    0.102622
   5 C :   -0.093827
   6 H :    0.116774
   7 C :   -0.108208
   8 H :    0.110852
   9 C :    0.000092
  10 H :    0.102834
  11 O :   -0.119392
  12 O :   -0.319071
  13 O :   -0.315424
  14 O :   -0.309093
  15 O :   -0.321149
  16 O :   -0.348566
  17 H :    0.119560
  18 H :    0.105476
  19 H :    0.298236
  20 H :    0.289067
  21 H :    0.289394
  22 H :    0.280452
  23 H :    0.263647

  Mayer bond orders larger than 0.100000
B(  0-C ,  1-C ) :   1.0313 B(  0-C , 16-O ) :   1.0956 B(  0-C , 17-H ) :   0.9202
B(  0-C , 18-H ) :   0.9132 B(  1-C ,  2-H ) :   0.8769 B(  1-C ,  3-C ) :   0.9768
B(  1-C , 11-O ) :   0.9992 B(  3-C ,  4-H ) :   0.8719 B(  3-C ,  5-C ) :   1.0266
B(  3-C , 15-O ) :   1.0816 B(  5-C ,  6-H ) :   0.8566 B(  5-C ,  7-C ) :   1.0237
B(  5-C , 14-O ) :   1.0452 B(  7-C ,  8-H ) :   0.8596 B(  7-C ,  9-C ) :   0.9622
B(  7-C , 13-O ) :   1.0673 B(  9-C , 10-H ) :   0.8931 B(  9-C , 11-O ) :   1.1130
B(  9-C , 12-O ) :   0.9819 B( 12-O , 19-H ) :   0.8331 B( 12-O , 23-H ) :   0.1266
B( 13-O , 20-H ) :   0.8451 B( 14-O , 21-H ) :   0.8471 B( 15-O , 22-H ) :   0.8341
B( 16-O , 23-H ) :   0.7874

Dispersion correction           -0.025295678
FINAL SINGLE POINT ENERGY      -685.694074125724

DIPOLE MOMENT
-------------

Method             : SCF
Type of density    : Electron Density
Multiplicity       :   1
Irrep              :   0
Energy             :  -685.8268407596258385 Eh
Relativity type    :
Basis              : AO
                                X                 Y                 Z
Electronic contribution:      2.095484645       0.346888776       0.892586008
Nuclear contribution   :     -1.178607693      -0.150151911      -1.020180736
                        -----------------------------------------
Total Dipole Moment    :      0.916876952       0.196736865      -0.127594729
                        -----------------------------------------
Magnitude (a.u.)       :      0.946387422
Magnitude (Debye)      :      2.405525657

Rotational constants in cm-1:             0.035898             0.032700             0.021422
Rotational constants in MHz :          1076.202451           980.306567           642.222692

                             ****ORCA TERMINATED NORMALLY****
TOTAL RUN TIME: 0 days 0 hours 0 minutes 22 seconds 492 msec
