                         Program Version 6.0.1  -  RELEASE   -
|  1> ! pbe def2-sv(p) def2/J RI DEFGRID1 loosescf d4 GCP(DFT/SV(P)) printgap
|  2> %output
|  3>     printlevel normal
|  4> end
|  5> * xyz 0 1
|  6> C -1.8910390206 -0.9379929803 -0.7941013929
|  7> C -1.3225484531 -0.1228661057 0.3870451411
|  8> H -2.1113104132 0.0451262057 1.1292391341
|  9> C -0.8133286879 1.2613847156 -0.0610174587
| 10> H -0.9786142707 1.3912543289 -1.1437352071
| 11> C 0.6964019485 1.3631578363 0.185207319
| 12> H 0.8840179263 1.4267388534 1.2690116521
| 13> C 1.3631932641 0.0946016988 -0.3497646918
| 14> H 1.0772475984 -0.0507675802 -1.404240323
| 15> C 0.8702306306 -1.1128042187 0.4810291278
| 16> H 1.584210685 -1.2748067307 1.3052239829
| 17> O -0.3512483628 -0.8599457906 1.1126973414
| 18> O 0.8535794677 -2.2717972093 -0.3003146996
| 19> O 2.757543385 0.262743167 -0.2542358902
| 20> O 1.1699249466 2.5174533737 -0.4594289856
| 21> O -1.5210231231 2.2456654201 0.6435083805
| 22> O -1.9650918022 -2.3113937984 -0.491453498
| 23> H -1.2393875785 -0.8663440755 -1.668357632
| 24> H -2.8772691904 -0.5375328261 -1.0593687584
| 25> H -0.0718371961 -2.5490451068 -0.4262330739
| 26> H 3.1803159 -0.5661370466 -0.5048578409
| 27> H 2.1305554583 2.4345836683 -0.5135799792
| 28> H -1.0818455073 3.090111177 0.4807456198
| 29> H -2.4022587808 -2.4197803393 0.362007348
| 30> *
| 31>
| 32>                          ****END OF INPUT****

CARTESIAN COORDINATES (ANGSTROEM)
---------------------------------
  C     -1.891039   -0.937993   -0.794101
  C     -1.322548   -0.122866    0.387045
  H     -2.111310    0.045126    1.129239
  C     -0.813329    1.261385   -0.061017
  H     -0.978614    1.391254   -1.143735
  C      0.696402    1.363158    0.185207
  H      0.884018    1.426739    1.269012
  C      1.363193    0.094602   -0.349765
  H      1.077248   -0.050768   -1.404240
  C      0.870231   -1.112804    0.481029
  H      1.584211   -1.274807    1.305224
  O     -0.351248   -0.859946    1.112697
  O      0.853579   -2.271797   -0.300315
  O      2.757543    0.262743   -0.254236
  O      1.169925    2.517453   -0.459429
  O     -1.521023    2.245665    0.643508
  O     -1.965092   -2.311394   -0.491453
  H     -1.239388   -0.866344   -1.668358
  H     -2.877269   -0.537533   -1.059369
  H     -0.071837   -2.549045   -0.426233
  H      3.180316   -0.566137   -0.504858
  H      2.130555    2.434584   -0.513580
  H     -1.081846    3.090111    0.480746
  H     -2.402259   -2.419780    0.362007

 Total Charge           Charge          ....    0
 Multiplicity           Mult            ....    1
 Number of Electrons    NEL             ....   96
 Basis Dimension        Dim             ....  192

ORBITAL ENERGIES
----------------

  NO   OCC          E(Eh)            E(eV)
   0   2.0000     -18.781370      -511.0671
   1   2.0000     -18.776406      -510.9320
   2   2.0000     -18.765831      -510.6442
   3   2.0000     -18.754148      -510.3263
   4   2.0000     -18.751932      -510.2660
   5   2.0000     -18.739379      -509.9244
   6   2.0000      -9.982482      -271.6371
   7   2.0000      -9.954616      -270.8789
   8   2.0000      -9.950950      -270.7791
   9   2.0000      -9.948503      -270.7125
  10   2.0000      -9.942956      -270.5616
  11   2.0000      -9.942304      -270.5438
  12   2.0000      -0.986846       -26.8535
  13   2.0000      -0.953973       -25.9589
  14   2.0000      -0.947036       -25.7701
  15   2.0000      -0.937889       -25.5212
  16   2.0000      -0.919262       -25.0144
  17   2.0000      -0.901895       -24.5418
  18   2.0000      -0.714081       -19.4311
  19   2.0000      -0.694116       -18.8879
  20   2.0000      -0.629198       -17.1214
  21   2.0000      -0.586253       -15.9528
  22   2.0000      -0.578842       -15.7511
  23   2.0000      -0.525897       -14.3104
  24   2.0000      -0.507893       -13.8205
  25   2.0000      -0.495438       -13.4816
  26   2.0000      -0.483676       -13.1615
  27   2.0000      -0.451811       -12.2944
  28   2.0000      -0.440199       -11.9784
  29   2.0000      -0.434358       -11.8195
  30   2.0000      -0.425286       -11.5726
  31   2.0000      -0.411149       -11.1879
  32   2.0000      -0.398139       -10.8339
  33   2.0000      -0.388771       -10.5790
  34   2.0000      -0.370532       -10.0827
  35   2.0000      -0.357513        -9.7284
  36   2.0000      -0.326699        -8.8899
  37   2.0000      -0.322977        -8.7886
  38   2.0000      -0.308605        -8.3976
  39   2.0000      -0.307063        -8.3556
  40   2.0000      -0.291987        -7.9454
  41   2.0000      -0.276937        -7.5358
  42   2.0000      -0.263728        -7.1764
  43   2.0000      -0.244450        -6.6518
  44   2.0000      -0.228094        -6.2068
  45   2.0000      -0.224764        -6.1161
  46   2.0000      -0.222253        -6.0478
  47   2.0000      -0.206961        -5.6317
  48   0.0000       0.010493         0.2855
  49   0.0000       0.020688         0.5629
  50   0.0000       0.039296         1.0693
  51   0.0000       0.046160         1.2561
  52   0.0000       0.054712         1.4888

MULLIKEN ATOMIC CHARGES
-----------------------
   0 C :   -0.016051
   1 C :    0.020964
   2 H :    0.084821
   3 C :    0.073442
   4 H :    0.061116
   5 C :    0.051165
   6 H :    0.064350
   7 C :   -0.001877
   8 H :    0.057829
   9 C :    0.199461
  10 H :    0.060740
  11 O :   -0.301378
  12 O :   -0.433002
  13 O :   -0.423590
  14 O :   -0.426776
  15 O :   -0.413405
  16 O :   -0.424717
  17 H :    0.106710
  18 H :    0.106484
  19 H :    0.304598
  20 H :    0.314482
  21 H :    0.312381
  22 H :    0.309128
  23 H :    0.313124
Sum of atomic charges:    0.0000000

LOEWDIN ATOMIC CHARGES
----------------------
   0 C :   -0.148776
   1 C :   -0.069621
   2 H :    0.124783
   3 C :   -0.062225
   4 H :    0.103514
   5 C :   -0.076559
   6 H :    0.109301
   7 C :   -0.096183
   8 H :    0.101621
   9 C :   -0.002259
  10 H :    0.102260
  11 O :   -0.134288
  12 O :   -0.343807
  13 O :   -0.320632
  14 O :   -0.325277
  15 O :   -0.317814
  16 O :   -0.313486
  17 H :    0.113846
  18 H :    0.115429
  19 H :    0.273612
  20 H :    0.295436
  21 H :    0.288947
  22 H :    0.289473
  23 H :    0.292704

  Mayer bond orders larger than 0.100000
B(  0-C ,  1-C ) :   1.0214 B(  0-C , 16-O ) :   1.0159 B(  0-C , 17-H ) :   0.9175
B(  0-C , 18-H ) :   0.9133 B(  1-C ,  2-H ) :   0.8805 B(  1-C ,  3-C ) :   0.9798
B(  1-C , 11-O ) :   1.0565 B(  3-C ,  4-H ) :   0.8863 B(  3-C ,  5-C ) :   1.0441
B(  3-C , 15-O ) :   1.0850 B(  5-C ,  6-H ) :   0.8627 B(  5-C ,  7-C ) :   1.0144
B(  5-C , 14-O ) :   1.0830 B(  7-C ,  8-H ) :   0.8769 B(  7-C ,  9-C ) :   0.9693
B(  7-C , 13-O ) :   1.0631 B(  9-C , 10-H ) :   0.8874 B(  9-C , 11-O ) :   1.0548
B(  9-C , 12-O ) :   1.1191 B( 12-O , 19-H ) :   0.7823 B( 13-O , 20-H ) :   0.8417
B( 14-O , 21-H ) :   0.8311 B( 15-O , 22-H ) :   0.8411 B( 16-O , 19-H ) :   0.1312
B( 16-O , 23-H ) :   0.8399

Dispersion correction           -0.025001402
FINAL SINGLE POINT ENERGY      -685.694043408056

DIPOLE MOMENT
-------------

Method             : SCF
Type of density    : Electron Density
Multiplicity       :   1
Irrep              :   0
Energy             :  -685.8271813049757384 Eh
Relativity type    :
Basis              : AO
                                X                 Y                 Z
Electronic contribution:      1.579705844      -0.096878884       1.869482917
Nuclear contribution   :     -1.774336565       0.109588974      -2.036002875
                        -----------------------------------------
Total Dipole Moment    :     -0.194630721       0.012710090      -0.166519958
                        -----------------------------------------
Magnitude (a.u.)       :      0.256459666
Magnitude (Debye)      :      0.651868666

Rotational constants in cm-1:             0.039779             0.029460             0.019279
Rotational constants in MHz :          1192.538474           883.196869           577.973978

                             ****ORCA TERMINATED NORMALLY****
TOTAL RUN TIME: 0 days 0 hours 0 minutes 21 seconds 468 msec
