                         Program Version 6.0.1  -  RELEASE   -
|  1> ! pbe def2-sv(p) def2/J RI DEFGRID1 loosescf d4 GCP(DFT/SV(P)) printgap
|  2> %output
|  3>     printlevel normal
|  4> end
|  5> * xyz 0 1
|  6> C -2.1039924902 -0.7168492075 -0.7554874756
|  7> C -1.3780750029 -0.4739194478 0.5884759022
|  8> H -2.1168650862 -0.7017433684 1.3697526912
|  9> C -0.9169814116 0.9740844185 0.7990844872
| 10> H -1.7176874603 1.6580747169 0.4965591495
| 11> C 0.326338138 1.3284645742 -0.0469388373
| 12> H 0.9784517935 1.9663843438 0.5668566677
| 13> C 1.1294580254 0.0853888722 -0.4537773131
| 14> H 0.7373308968 -0.3101970941 -1.4050203389
| 15> C 0.9986398433 -1.020482095 0.6042922839
| 16> H 1.4799019829 -0.679186783 1.5387494272
| 17> O -0.3290099324 -1.4092784369 0.8338146087
| 18> O 1.7233201902 -2.1425245457 0.2118942924
| 19> O 2.4806062799 0.451444137 -0.6027574068
| 20> O -0.1163702225 2.0416763491 -1.1832195659
| 21> O -0.7057750275 1.2305332171 2.1637893424
| 22> O -1.4286614721 -0.3257358856 -1.91492175
| 23> H -3.0792606952 -0.213843417 -0.6875599833
| 24> H -2.2729046808 -1.792422868 -0.8540903092
| 25> H 1.1664241017 -2.6623981402 -0.3824377196
| 26> H 3.0098596394 -0.3569897603 -0.5773423881
| 27> H 0.6599976411 2.2872877681 -1.7002964615
| 28> H -0.1932172638 0.5108994984 2.5504779387
| 29> H -1.2594691735 0.6313524606 -1.8817840852
| 30> *
| 31>
| 32>                          ****END OF INPUT****

CARTESIAN COORDINATES (ANGSTROEM)
---------------------------------
  C     -2.103992   -0.716849   -0.755487
  C     -1.378075   -0.473919    0.588476
  H     -2.116865   -0.701743    1.369753
  C     -0.916981    0.974084    0.799084
  H     -1.717687    1.658075    0.496559
  C      0.326338    1.328465   -0.046939
  H      0.978452    1.966384    0.566857
  C      1.129458    0.085389   -0.453777
  H      0.737331   -0.310197   -1.405020
  C      0.998640   -1.020482    0.604292
  H      1.479902   -0.679187    1.538749
  O     -0.329010   -1.409278    0.833815
  O      1.723320   -2.142525    0.211894
  O      2.480606    0.451444   -0.602757
  O     -0.116370    2.041676   -1.183220
  O     -0.705775    1.230533    2.163789
  O     -1.428661   -0.325736   -1.914922
  H     -3.079261   -0.213843   -0.687560
  H     -2.272905   -1.792423   -0.854090
  H      1.166424   -2.662398   -0.382438
  H      3.009860   -0.356990   -0.577342
  H      0.659998    2.287288   -1.700296
  H     -0.193217    0.510899    2.550478
  H     -1.259469    0.631352   -1.881784

 Total Charge           Charge          ....    0
 Multiplicity           Mult            ....    1
 Number of Electrons    NEL             ....   96
 Basis Dimension        Dim             ....  192

ORBITAL ENERGIES
----------------

  NO   OCC          E(Eh)            E(eV)
   0   2.0000     -18.780504      -511.0435
   1   2.0000     -18.779263      -511.0097
   2   2.0000     -18.770920      -510.7827
   3   2.0000     -18.760844      -510.5085
   4   2.0000     -18.755398      -510.3603
   5   2.0000     -18.747300      -510.1400
   6   2.0000      -9.996987      -272.0318
   7   2.0000      -9.956261      -270.9236
   8   2.0000      -9.954017      -270.8626
   9   2.0000      -9.951931      -270.8058
  10   2.0000      -9.939283      -270.4616
  11   2.0000      -9.937843      -270.4224
  12   2.0000      -0.993984       -27.0477
  13   2.0000      -0.958643       -26.0860
  14   2.0000      -0.944854       -25.7108
  15   2.0000      -0.932206       -25.3666
  16   2.0000      -0.924863       -25.1668
  17   2.0000      -0.916271       -24.9330
  18   2.0000      -0.711789       -19.3688
  19   2.0000      -0.697098       -18.9690
  20   2.0000      -0.624969       -17.0063
  21   2.0000      -0.599817       -16.3219
  22   2.0000      -0.578207       -15.7338
  23   2.0000      -0.535530       -14.5725
  24   2.0000      -0.512027       -13.9330
  25   2.0000      -0.497182       -13.5290
  26   2.0000      -0.494201       -13.4479
  27   2.0000      -0.458951       -12.4887
  28   2.0000      -0.445412       -12.1203
  29   2.0000      -0.433125       -11.7859
  30   2.0000      -0.419823       -11.4240
  31   2.0000      -0.407938       -11.1006
  32   2.0000      -0.394991       -10.7483
  33   2.0000      -0.391879       -10.6636
  34   2.0000      -0.372606       -10.1391
  35   2.0000      -0.362546        -9.8654
  36   2.0000      -0.334474        -9.1015
  37   2.0000      -0.329323        -8.9613
  38   2.0000      -0.313558        -8.5323
  39   2.0000      -0.302784        -8.2392
  40   2.0000      -0.290563        -7.9066
  41   2.0000      -0.276226        -7.5165
  42   2.0000      -0.267923        -7.2905
  43   2.0000      -0.253366        -6.8944
  44   2.0000      -0.243163        -6.6168
  45   2.0000      -0.233565        -6.3556
  46   2.0000      -0.213329        -5.8050
  47   2.0000      -0.207637        -5.6501
  48   0.0000       0.010034         0.2730
  49   0.0000       0.025508         0.6941
  50   0.0000       0.030591         0.8324
  51   0.0000       0.037973         1.0333
  52   0.0000       0.059323         1.6143

MULLIKEN ATOMIC CHARGES
-----------------------
   0 C :    0.050327
   1 C :    0.012267
   2 H :    0.079641
   3 C :    0.025225
   4 H :    0.086606
   5 C :    0.069796
   6 H :    0.078536
   7 C :    0.036277
   8 H :    0.054360
   9 C :    0.156072
  10 H :    0.045018
  11 O :   -0.311926
  12 O :   -0.392678
  13 O :   -0.423308
  14 O :   -0.420400
  15 O :   -0.413004
  16 O :   -0.432658
  17 H :    0.074987
  18 H :    0.087233
  19 H :    0.303076
  20 H :    0.303114
  21 H :    0.321090
  22 H :    0.308707
  23 H :    0.301642
Sum of atomic charges:   -0.0000000

LOEWDIN ATOMIC CHARGES
----------------------
   0 C :   -0.132889
   1 C :   -0.077774
   2 H :    0.122531
   3 C :   -0.067736
   4 H :    0.126825
   5 C :   -0.069767
   6 H :    0.119227
   7 C :   -0.117758
   8 H :    0.109647
   9 C :   -0.009242
  10 H :    0.088412
  11 O :   -0.152270
  12 O :   -0.301326
  13 O :   -0.327855
  14 O :   -0.306010
  15 O :   -0.305870
  16 O :   -0.335817
  17 H :    0.102287
  18 H :    0.115669
  19 H :    0.287905
  20 H :    0.283037
  21 H :    0.298434
  22 H :    0.284079
  23 H :    0.266262

  Mayer bond orders larger than 0.100000
B(  0-C ,  1-C ) :   1.0125 B(  0-C , 16-O ) :   1.1232 B(  0-C , 17-H ) :   0.9107
B(  0-C , 18-H ) :   0.9155 B(  1-C ,  2-H ) :   0.8775 B(  1-C ,  3-C ) :   1.0477
B(  1-C , 11-O ) :   0.9710 B(  3-C ,  4-H ) :   0.8869 B(  3-C ,  5-C ) :   0.9861
B(  3-C , 15-O ) :   1.0433 B(  5-C ,  6-H ) :   0.8639 B(  5-C ,  7-C ) :   1.0233
B(  5-C , 14-O ) :   1.0089 B(  7-C ,  8-H ) :   0.8118 B(  7-C ,  9-C ) :   1.0331
B(  7-C , 13-O ) :   1.0597 B(  8-H , 16-O ) :   0.1008 B(  9-C , 10-H ) :   0.8760
B(  9-C , 11-O ) :   1.0415 B(  9-C , 12-O ) :   1.0990 B( 12-O , 19-H ) :   0.8410
B( 13-O , 20-H ) :   0.8298 B( 14-O , 21-H ) :   0.8384 B( 14-O , 23-H ) :   0.1274
B( 15-O , 22-H ) :   0.8452 B( 16-O , 23-H ) :   0.7836

Dispersion correction           -0.025640494
FINAL SINGLE POINT ENERGY      -685.692192289496

DIPOLE MOMENT
-------------

Method             : SCF
Type of density    : Electron Density
Multiplicity       :   1
Irrep              :   0
Energy             :  -685.8257291692702893 Eh
Relativity type    :
Basis              : AO
                                X                 Y                 Z
Electronic contribution:      2.496937211      -0.452406349       0.780090413
Nuclear contribution   :     -2.422160341       0.314087517      -0.913679221
                        -----------------------------------------
Total Dipole Moment    :      0.074776871      -0.138318832      -0.133588808
                        -----------------------------------------
Magnitude (a.u.)       :      0.206324137
Magnitude (Debye)      :      0.524434278

Rotational constants in cm-1:             0.034773             0.029331             0.027004
Rotational constants in MHz :          1042.453700           879.315573           809.568468

                             ****ORCA TERMINATED NORMALLY****
TOTAL RUN TIME: 0 days 0 hours 0 minutes 9 seconds 651 msec
