                         Program Version 6.0.1  -  RELEASE   -
|  1> ! r2scan-3c def2/J RI DEFGRID2 scfconv6 printgap
|  2> %output
|  3>     printlevel normal
|  4> end
|  5> * xyz 0 1
|  6> C -3.6480400514 -0.0348380733 -0.010170795
|  7> C -2.1517815902 -0.021316553 0.0075259431
|  8> C -1.4254552518 -1.2070725069 0.0046851619
|  9> C -0.0440715622 -1.1996250951 0.0015702833
| 10> C 0.6530924191 0.0074766323 0.0007866956
| 11> C -0.0770260811 1.1979579256 0.0030965887
| 12> C -1.4552296787 1.1834797443 0.0065417725
| 13> C 2.13319763 0.1012232767 -0.001803537
| 14> O 2.6993294452 1.1727593884 -0.0045526448
| 15> C 2.9067015355 -1.1963151789 -0.0012375431
| 16> H -4.0352395196 -0.9863086865 0.3459754647
| 17> H -4.0488974716 0.7658935929 0.6075511005
| 18> H -4.0068392315 0.1183101869 -1.0285942443
| 19> H -1.9522697768 -2.150978508 0.006131762
| 20> H 0.4832794733 -2.1408568188 0.0008603436
| 21> H 0.4681171575 2.1301612851 0.0034091701
| 22> H -2.0036197248 2.1145790444 0.0094651257
| 23> H 2.6606525664 -1.778847986 0.8838586892
| 24> H 3.9713898541 -0.9769011175 -0.0024007797
| 25> H 2.6591750456 -1.7802670761 -0.8850086868
| 26> *
| 27>
| 28>                          ****END OF INPUT****

CARTESIAN COORDINATES (ANGSTROEM)
---------------------------------
  C     -3.648040   -0.034838   -0.010171
  C     -2.151782   -0.021317    0.007526
  C     -1.425455   -1.207073    0.004685
  C     -0.044072   -1.199625    0.001570
  C      0.653092    0.007477    0.000787
  C     -0.077026    1.197958    0.003097
  C     -1.455230    1.183480    0.006542
  C      2.133198    0.101223   -0.001804
  O      2.699329    1.172759   -0.004553
  C      2.906702   -1.196315   -0.001238
  H     -4.035240   -0.986309    0.345975
  H     -4.048897    0.765894    0.607551
  H     -4.006839    0.118310   -1.028594
  H     -1.952270   -2.150979    0.006132
  H      0.483279   -2.140857    0.000860
  H      0.468117    2.130161    0.003409
  H     -2.003620    2.114579    0.009465
  H      2.660653   -1.778848    0.883859
  H      3.971390   -0.976901   -0.002401
  H      2.659175   -1.780267   -0.885009

 Total Charge           Charge          ....    0
 Multiplicity           Mult            ....    1
 Number of Electrons    NEL             ....   72
 Basis Dimension        Dim             ....  245

ORBITAL ENERGIES
----------------

  NO   OCC          E(Eh)            E(eV)
   0   2.0000     -18.933098      -515.1958
   1   2.0000     -10.116444      -275.2824
   2   2.0000     -10.059297      -273.7274
   3   2.0000     -10.049855      -273.4705
   4   2.0000     -10.045318      -273.3470
   5   2.0000     -10.043277      -273.2915
   6   2.0000     -10.042410      -273.2679
   7   2.0000     -10.041270      -273.2369
   8   2.0000     -10.038344      -273.1572
   9   2.0000     -10.031443      -272.9695
  10   2.0000      -1.003573       -27.3086
  11   2.0000      -0.841481       -22.8979
  12   2.0000      -0.764103       -20.7923
  13   2.0000      -0.728339       -19.8191
  14   2.0000      -0.711863       -19.3708
  15   2.0000      -0.667802       -18.1718
  16   2.0000      -0.587726       -15.9928
  17   2.0000      -0.579775       -15.7765
  18   2.0000      -0.525943       -14.3116
  19   2.0000      -0.467934       -12.7331
  20   2.0000      -0.449698       -12.2369
  21   2.0000      -0.426203       -11.5976
  22   2.0000      -0.418433       -11.3861
  23   2.0000      -0.413094       -11.2409
  24   2.0000      -0.404241       -11.0000
  25   2.0000      -0.398880       -10.8541
  26   2.0000      -0.389210       -10.5909
  27   2.0000      -0.362839        -9.8734
  28   2.0000      -0.356653        -9.7050
  29   2.0000      -0.351501        -9.5648
  30   2.0000      -0.329011        -8.9528
  31   2.0000      -0.325118        -8.8469
  32   2.0000      -0.314467        -8.5571
  33   2.0000      -0.248307        -6.7568
  34   2.0000      -0.237524        -6.4633
  35   2.0000      -0.215550        -5.8654
  36   0.0000      -0.082700        -2.2504
  37   0.0000      -0.041689        -1.1344
  38   0.0000       0.010757         0.2927
  39   0.0000       0.069524         1.8919
  40   0.0000       0.088778         2.4158

MULLIKEN ATOMIC CHARGES
-----------------------
   0 C :   -0.533249
   1 C :    0.232100
   2 C :   -0.230806
   3 C :   -0.183373
   4 C :    0.147355
   5 C :   -0.196394
   6 C :   -0.207756
   7 C :    0.266431
   8 O :   -0.350918
   9 C :   -0.569246
  10 H :    0.152837
  11 H :    0.156540
  12 H :    0.175433
  13 H :    0.147028
  14 H :    0.144354
  15 H :    0.181939
  16 H :    0.147666
  17 H :    0.169442
  18 H :    0.181745
  19 H :    0.168872
Sum of atomic charges:    0.0000000

LOEWDIN ATOMIC CHARGES
----------------------
   0 C :   -0.387768
   1 C :   -0.078586
   2 C :   -0.163606
   3 C :   -0.131479
   4 C :   -0.086887
   5 C :   -0.093972
   6 C :   -0.157739
   7 C :    0.236988
   8 O :   -0.472504
   9 C :   -0.386606
  10 H :    0.161438
  11 H :    0.164765
  12 H :    0.170176
  13 H :    0.169465
  14 H :    0.173211
  15 H :    0.191510
  16 H :    0.170932
  17 H :    0.172441
  18 H :    0.175769
  19 H :    0.172453

  Mayer bond orders larger than 0.100000
B(  0-C ,  1-C ) :   0.7973 B(  0-C , 10-H ) :   0.9905 B(  0-C , 11-H ) :   0.9830
B(  0-C , 12-H ) :   0.9658 B(  1-C ,  2-C ) :   1.3900 B(  1-C ,  6-C ) :   1.3507
B(  2-C ,  3-C ) :   1.4544 B(  2-C , 13-H ) :   0.9342 B(  3-C ,  4-C ) :   1.3921
B(  3-C , 14-H ) :   0.9329 B(  4-C ,  5-C ) :   1.3869 B(  4-C ,  7-C ) :   0.9097
B(  4-C ,  8-O ) :  -0.1173 B(  5-C ,  6-C ) :   1.4102 B(  5-C ,  8-O ) :   0.1009
B(  5-C , 15-H ) :   0.9761 B(  6-C , 16-H ) :   0.9505 B(  7-C ,  8-O ) :   1.9168
B(  7-C ,  9-C ) :   0.8817 B(  9-C , 17-H ) :   0.9614 B(  9-C , 18-H ) :   0.9805
B(  9-C , 19-H ) :   0.9603

Dispersion correction           -0.006784640
FINAL SINGLE POINT ENERGY      -424.102405021076

DIPOLE MOMENT
-------------

Method             : SCF
Type of density    : Electron Density
Multiplicity       :   1
Irrep              :   0
Energy             :  -424.1024920800743985 Eh
Relativity type    :
Basis              : AO
                                X                 Y                 Z
Electronic contribution:      4.328962192       3.460229159       0.036534928
Nuclear contribution   :     -5.405374543      -4.378149285      -0.055186839
                        -----------------------------------------
Total Dipole Moment    :     -1.076412351      -0.917920126      -0.018651911
                        -----------------------------------------
Magnitude (a.u.)       :      1.414775177
Magnitude (Debye)      :      3.596072715

Rotational constants in cm-1:             0.121611             0.026590             0.021998
Rotational constants in MHz :          3645.793950           797.135166           659.475504

                             ****ORCA TERMINATED NORMALLY****
TOTAL RUN TIME: 0 days 0 hours 0 minutes 37 seconds 996 msec
