                         Program Version 6.0.1  -  RELEASE   -
|  1> ! pbe def2-sv(p) def2/J RI DEFGRID1 loosescf d4 GCP(DFT/SV(P)) printgap
|  2> %output
|  3>     printlevel normal
|  4> end
|  5> * xyz 0 1
|  6> C 2.8103945417 2.2171774991 1.221351753
|  7> C 2.0966025391 1.7240355468 -0.0365248932
|  8> C 2.8207717042 0.502682022 -0.6590351813
|  9> C 1.8549755037 -0.6164782898 -0.4125871944
| 10> C 1.9387382419 -1.9637962066 -0.6829502786
| 11> C 0.8658505832 -2.7787060509 -0.3437798505
| 12> C -0.26233544 -2.2469277741 0.2543862093
| 13> C -0.356877499 -0.8845526678 0.5312391614
| 14> C 0.7171812409 -0.0709311462 0.1834355608
| 15> O 0.784009395 1.2623601676 0.3584287167
| 16> O -1.4549871311 -0.3645633226 1.1952297743
| 17> C -2.638920138 -0.1645572395 0.56206434
| 18> O -3.6052840696 0.1729078899 1.1905185367
| 19> N -2.6324742732 -0.3743332444 -0.7768689573
| 20> C -3.8116369612 -0.1798821518 -1.5826049317
| 21> C 1.9077284891 2.8597518606 -1.0383912265
| 22> H 2.226622633 3.0049687738 1.6899727732
| 23> H 2.917682746 1.4001583802 1.9315303373
| 24> H 3.7941419089 2.6042842666 0.9692127448
| 25> H 2.998555328 0.6441854359 -1.7274268421
| 26> H 3.7827129045 0.3220954567 -0.1780449595
| 27> H 2.8211720768 -2.3775541896 -1.1459074905
| 28> H 0.9120392097 -3.837831266 -0.542648155
| 29> H -1.090877669 -2.8825349187 0.5277742363
| 30> H -1.7678792838 -0.60436844 -1.2415310252
| 31> H -4.62783509 0.0730213994 -0.9083283076
| 32> H -4.0579293186 -1.094476174 -2.1254253055
| 33> H -3.6674311409 0.6342933175 -2.2959044666
| 34> H 1.3713203782 2.5028930758 -1.9149434208
| 35> H 2.8737219443 3.250692466 -1.3464016025
| 36> H 1.3293020232 3.65889186 -0.5827111039
| 37> *
| 38>
| 39>                          ****END OF INPUT****

CARTESIAN COORDINATES (ANGSTROEM)
---------------------------------
  C      2.810395    2.217177    1.221352
  C      2.096603    1.724036   -0.036525
  C      2.820772    0.502682   -0.659035
  C      1.854976   -0.616478   -0.412587
  C      1.938738   -1.963796   -0.682950
  C      0.865851   -2.778706   -0.343780
  C     -0.262335   -2.246928    0.254386
  C     -0.356877   -0.884553    0.531239
  C      0.717181   -0.070931    0.183436
  O      0.784009    1.262360    0.358429
  O     -1.454987   -0.364563    1.195230
  C     -2.638920   -0.164557    0.562064
  O     -3.605284    0.172908    1.190519
  N     -2.632474   -0.374333   -0.776869
  C     -3.811637   -0.179882   -1.582605
  C      1.907728    2.859752   -1.038391
  H      2.226623    3.004969    1.689973
  H      2.917683    1.400158    1.931530
  H      3.794142    2.604284    0.969213
  H      2.998555    0.644185   -1.727427
  H      3.782713    0.322095   -0.178045
  H      2.821172   -2.377554   -1.145907
  H      0.912039   -3.837831   -0.542648
  H     -1.090878   -2.882535    0.527774
  H     -1.767879   -0.604368   -1.241531
  H     -4.627835    0.073021   -0.908328
  H     -4.057929   -1.094476   -2.125425
  H     -3.667431    0.634293   -2.295904
  H      1.371320    2.502893   -1.914943
  H      2.873722    3.250692   -1.346402
  H      1.329302    3.658892   -0.582711

 Total Charge           Charge          ....    0
 Multiplicity           Mult            ....    1
 Number of Electrons    NEL             ....  118
 Basis Dimension        Dim             ....  254

ORBITAL ENERGIES
----------------

  NO   OCC          E(Eh)            E(eV)
   0   2.0000     -18.796689      -511.4839
   1   2.0000     -18.792537      -511.3709
   2   2.0000     -18.703669      -508.9527
   3   2.0000     -14.016424      -381.4063
   4   2.0000     -10.017546      -272.5913
   5   2.0000      -9.971060      -271.3263
   6   2.0000      -9.957302      -270.9520
   7   2.0000      -9.955165      -270.8938
   8   2.0000      -9.915936      -269.8263
   9   2.0000      -9.908711      -269.6297
  10   2.0000      -9.908614      -269.6271
  11   2.0000      -9.903294      -269.4823
  12   2.0000      -9.902445      -269.4592
  13   2.0000      -9.899130      -269.3690
  14   2.0000      -9.890350      -269.1301
  15   2.0000      -9.888023      -269.0668
  16   2.0000      -1.006602       -27.3910
  17   2.0000      -0.987254       -26.8646
  18   2.0000      -0.912816       -24.8390
  19   2.0000      -0.833962       -22.6933
  20   2.0000      -0.784923       -21.3588
  21   2.0000      -0.745684       -20.2911
  22   2.0000      -0.702636       -19.1197
  23   2.0000      -0.678021       -18.4499
  24   2.0000      -0.637779       -17.3549
  25   2.0000      -0.633972       -17.2513
  26   2.0000      -0.626681       -17.0529
  27   2.0000      -0.580182       -15.7875
  28   2.0000      -0.562397       -15.3036
  29   2.0000      -0.529398       -14.4057
  30   2.0000      -0.523952       -14.2575
  31   2.0000      -0.512362       -13.9421
  32   2.0000      -0.465936       -12.6788
  33   2.0000      -0.447213       -12.1693
  34   2.0000      -0.439870       -11.9695
  35   2.0000      -0.436214       -11.8700
  36   2.0000      -0.430187       -11.7060
  37   2.0000      -0.413368       -11.2483
  38   2.0000      -0.400048       -10.8859
  39   2.0000      -0.382127       -10.3982
  40   2.0000      -0.378504       -10.2996
  41   2.0000      -0.370781       -10.0895
  42   2.0000      -0.368344       -10.0231
  43   2.0000      -0.362753        -9.8710
  44   2.0000      -0.361018        -9.8238
  45   2.0000      -0.348941        -9.4952
  46   2.0000      -0.345384        -9.3984
  47   2.0000      -0.340249        -9.2587
  48   2.0000      -0.331287        -9.0148
  49   2.0000      -0.328652        -8.9431
  50   2.0000      -0.321457        -8.7473
  51   2.0000      -0.311253        -8.4696
  52   2.0000      -0.294429        -8.0118
  53   2.0000      -0.287243        -7.8163
  54   2.0000      -0.254870        -6.9354
  55   2.0000      -0.229079        -6.2336
  56   2.0000      -0.215568        -5.8659
  57   2.0000      -0.209634        -5.7044
  58   2.0000      -0.194410        -5.2902
  59   0.0000      -0.046713        -1.2711
  60   0.0000      -0.028752        -0.7824
  61   0.0000       0.020783         0.5655
  62   0.0000       0.033260         0.9050
  63   0.0000       0.041978         1.1423

MULLIKEN ATOMIC CHARGES
-----------------------
   0 C :   -0.194138
   1 C :   -0.092167
   2 C :   -0.004964
   3 C :   -0.046976
   4 C :   -0.150072
   5 C :   -0.046860
   6 C :   -0.129889
   7 C :    0.024848
   8 C :    0.204218
   9 O :   -0.235585
  10 O :   -0.202863
  11 C :    0.203744
  12 O :   -0.196991
  13 N :   -0.335840
  14 C :   -0.179837
  15 C :   -0.201428
  16 H :    0.114482
  17 H :    0.109406
  18 H :    0.103572
  19 H :    0.092844
  20 H :    0.095232
  21 H :    0.035563
  22 H :    0.053874
  23 H :    0.049544
  24 H :    0.246271
  25 H :    0.139320
  26 H :    0.110557
  27 H :    0.111539
  28 H :    0.102550
  29 H :    0.106022
  30 H :    0.114022
Sum of atomic charges:    0.0000000

LOEWDIN ATOMIC CHARGES
----------------------
   0 C :   -0.326824
   1 C :    0.015668
   2 C :   -0.199456
   3 C :   -0.068033
   4 C :   -0.125908
   5 C :   -0.140436
   6 C :   -0.137170
   7 C :   -0.017004
   8 C :    0.018238
   9 O :   -0.061138
  10 O :   -0.038552
  11 C :    0.029140
  12 O :   -0.182930
  13 N :   -0.195726
  14 C :   -0.258484
  15 C :   -0.326632
  16 H :    0.128409
  17 H :    0.126470
  18 H :    0.124776
  19 H :    0.131541
  20 H :    0.133955
  21 H :    0.125625
  22 H :    0.125958
  23 H :    0.135423
  24 H :    0.237140
  25 H :    0.138304
  26 H :    0.115362
  27 H :    0.115229
  28 H :    0.122284
  29 H :    0.126400
  30 H :    0.128371

  Mayer bond orders larger than 0.100000
B(  0-C ,  1-C ) :   1.0998 B(  0-C , 16-H ) :   0.9394 B(  0-C , 17-H ) :   0.9371
B(  0-C , 18-H ) :   0.9395 B(  1-C ,  2-C ) :   1.0555 B(  1-C ,  9-O ) :   0.9362
B(  1-C , 15-C ) :   1.1031 B(  2-C ,  3-C ) :   1.0650 B(  2-C , 19-H ) :   0.8785
B(  2-C , 20-H ) :   0.8803 B(  3-C ,  4-C ) :   1.3881 B(  3-C ,  6-C ) :   0.1030
B(  3-C ,  8-C ) :   1.3257 B(  4-C ,  5-C ) :   1.2986 B(  4-C , 21-H ) :   0.9852
B(  5-C ,  6-C ) :   1.3335 B(  5-C , 22-H ) :   0.9647 B(  6-C ,  7-C ) :   1.3757
B(  6-C , 23-H ) :   0.9730 B(  7-C ,  8-C ) :   1.3256 B(  7-C , 10-O ) :   1.0549
B(  8-C ,  9-O ) :   1.1739 B( 10-O , 11-C ) :   1.0548 B( 11-C , 12-O ) :   2.0959
B( 11-C , 13-N ) :   1.1828 B( 13-N , 14-C ) :   1.0294 B( 13-N , 24-H ) :   0.8395
B( 14-C , 25-H ) :   0.9344 B( 14-C , 26-H ) :   0.9583 B( 14-C , 27-H ) :   0.9591
B( 15-C , 28-H ) :   0.9380 B( 15-C , 29-H ) :   0.9410 B( 15-C , 30-H ) :   0.9406

Dispersion correction           -0.036339571
FINAL SINGLE POINT ENERGY      -745.170664977227

DIPOLE MOMENT
-------------

Method             : SCF
Type of density    : Electron Density
Multiplicity       :   1
Irrep              :   0
Energy             :  -745.2720914756844195 Eh
Relativity type    :
Basis              : AO
                                X                 Y                 Z
Electronic contribution:     -7.469910118      -6.988516162       6.661088618
Nuclear contribution   :      9.130640022       6.861248017      -8.304674355
                        -----------------------------------------
Total Dipole Moment    :      1.660729904      -0.127268145      -1.643585737
                        -----------------------------------------
Magnitude (a.u.)       :      2.339998947
Magnitude (Debye)      :      5.947804643

Rotational constants in cm-1:             0.026791             0.012443             0.010217
Rotational constants in MHz :           803.164182           373.020138           306.310716

                             ****ORCA TERMINATED NORMALLY****
TOTAL RUN TIME: 0 days 0 hours 0 minutes 25 seconds 565 msec
