                         Program Version 6.0.1  -  RELEASE   -
|  1> ! r2scan-3c def2/J RI DEFGRID2 scfconv6 printgap
|  2> %output
|  3>     printlevel normal
|  4> end
|  5> * xyz 0 1
|  6> C -2.7295980316 -0.3894206307 -0.6242383963
|  7> C -1.4633867477 -0.0275160808 0.1160785484
|  8> O -1.3731246578 -0.1367459207 1.3122743677
|  9> C -0.3470123013 0.4745963597 -0.784739401
| 10> C 0.4919867405 -0.7220777451 -1.2686099008
| 11> C 1.3299545402 -1.3121924298 -0.1399874934
| 12> C 2.259924963 -0.2495532388 0.4350652121
| 13> C 1.4386784429 0.912330398 0.9818258606
| 14> C 0.5572535996 1.513440574 -0.1094757965
| 15> H -3.2360477605 0.5306642217 -0.9126905951
| 16> H -2.5053555295 -0.9491603662 -1.5284470257
| 17> H -3.3902465725 -0.9653700417 0.0185031898
| 18> H -0.8160466304 0.9363153257 -1.6613258852
| 19> H -0.1614261385 -1.4890194153 -1.6913828082
| 20> H 1.1561617948 -0.3738734498 -2.0638273969
| 21> H 0.6737452217 -1.6809169924 0.6503659568
| 22> H 1.9090598058 -2.1565729987 -0.5205870851
| 23> H 2.8705874071 -0.679720365 1.2309393791
| 24> H 2.9327752271 0.1090888562 -0.3488469354
| 25> H 0.8081122006 0.5566216805 1.7960188955
| 26> H 2.0998345032 1.6869528232 1.3765952824
| 27> H -0.0624147732 2.3060598019 0.3159417581
| 28> H 1.1924789928 1.9609445387 -0.8792259929
| 29> *
| 30>
| 31>                          ****END OF INPUT****

CARTESIAN COORDINATES (ANGSTROEM)
---------------------------------
  C     -2.729598   -0.389421   -0.624238
  C     -1.463387   -0.027516    0.116079
  O     -1.373125   -0.136746    1.312274
  C     -0.347012    0.474596   -0.784739
  C      0.491987   -0.722078   -1.268610
  C      1.329955   -1.312192   -0.139987
  C      2.259925   -0.249553    0.435065
  C      1.438678    0.912330    0.981826
  C      0.557254    1.513441   -0.109476
  H     -3.236048    0.530664   -0.912691
  H     -2.505356   -0.949160   -1.528447
  H     -3.390247   -0.965370    0.018503
  H     -0.816047    0.936315   -1.661326
  H     -0.161426   -1.489019   -1.691383
  H      1.156162   -0.373873   -2.063827
  H      0.673745   -1.680917    0.650366
  H      1.909060   -2.156573   -0.520587
  H      2.870587   -0.679720    1.230939
  H      2.932775    0.109089   -0.348847
  H      0.808112    0.556622    1.796019
  H      2.099835    1.686953    1.376595
  H     -0.062415    2.306060    0.315942
  H      1.192479    1.960945   -0.879226

 Total Charge           Charge          ....    0
 Multiplicity           Mult            ....    1
 Number of Electrons    NEL             ....   70
 Basis Dimension        Dim             ....  246

ORBITAL ENERGIES
----------------

  NO   OCC          E(Eh)            E(eV)
   0   2.0000     -18.937938      -515.3275
   1   2.0000     -10.116801      -275.2922
   2   2.0000     -10.042132      -273.2603
   3   2.0000     -10.037099      -273.1233
   4   2.0000     -10.032637      -273.0019
   5   2.0000     -10.026563      -272.8366
   6   2.0000     -10.022089      -272.7149
   7   2.0000     -10.018693      -272.6225
   8   2.0000     -10.012555      -272.4555
   9   2.0000      -1.010473       -27.4964
  10   2.0000      -0.805553       -21.9202
  11   2.0000      -0.736731       -20.0475
  12   2.0000      -0.709694       -19.3117
  13   2.0000      -0.696087       -18.9415
  14   2.0000      -0.592984       -16.1359
  15   2.0000      -0.575216       -15.6524
  16   2.0000      -0.536156       -14.5895
  17   2.0000      -0.479539       -13.0489
  18   2.0000      -0.456298       -12.4165
  19   2.0000      -0.433261       -11.7896
  20   2.0000      -0.429682       -11.6922
  21   2.0000      -0.411572       -11.1994
  22   2.0000      -0.396137       -10.7794
  23   2.0000      -0.393060       -10.6957
  24   2.0000      -0.375683       -10.2229
  25   2.0000      -0.354049        -9.6342
  26   2.0000      -0.346804        -9.4370
  27   2.0000      -0.342062        -9.3080
  28   2.0000      -0.330465        -8.9924
  29   2.0000      -0.327119        -8.9014
  30   2.0000      -0.310873        -8.4593
  31   2.0000      -0.291892        -7.9428
  32   2.0000      -0.269602        -7.3363
  33   2.0000      -0.268212        -7.2984
  34   2.0000      -0.207682        -5.6513
  35   0.0000      -0.043866        -1.1937
  36   0.0000       0.064953         1.7675
  37   0.0000       0.094837         2.5807
  38   0.0000       0.108150         2.9429
  39   0.0000       0.113418         3.0863

MULLIKEN ATOMIC CHARGES
-----------------------
   0 C :   -0.525761
   1 C :    0.242768
   2 O :   -0.352065
   3 C :    0.028298
   4 C :   -0.372260
   5 C :   -0.248591
   6 C :   -0.324451
   7 C :   -0.297874
   8 C :   -0.372011
   9 H :    0.173356
  10 H :    0.154752
  11 H :    0.177470
  12 H :    0.159946
  13 H :    0.143062
  14 H :    0.160710
  15 H :    0.166334
  16 H :    0.149587
  17 H :    0.149898
  18 H :    0.142456
  19 H :    0.197091
  20 H :    0.143964
  21 H :    0.145795
  22 H :    0.157526
Sum of atomic charges:   -0.0000000

LOEWDIN ATOMIC CHARGES
----------------------
   0 C :   -0.386722
   1 C :    0.221936
   2 O :   -0.468309
   3 C :   -0.209574
   4 C :   -0.273519
   5 C :   -0.297984
   6 C :   -0.300002
   7 C :   -0.299182
   8 C :   -0.277998
   9 H :    0.177231
  10 H :    0.167357
  11 H :    0.172504
  12 H :    0.170274
  13 H :    0.158146
  14 H :    0.161726
  15 H :    0.167550
  16 H :    0.155099
  17 H :    0.155949
  18 H :    0.151607
  19 H :    0.179194
  20 H :    0.152549
  21 H :    0.163834
  22 H :    0.158332

  Mayer bond orders larger than 0.100000
B(  0-C ,  1-C ) :   0.9077 B(  0-C ,  9-H ) :   0.9492 B(  0-C , 10-H ) :   0.9519
B(  0-C , 11-H ) :   0.9926 B(  1-C ,  2-O ) :   1.9164 B(  1-C ,  3-C ) :   0.8492
B(  3-C ,  4-C ) :   0.8882 B(  3-C ,  8-C ) :   0.9312 B(  3-C , 12-H ) :   0.9233
B(  4-C ,  5-C ) :   0.9229 B(  4-C , 13-H ) :   0.9441 B(  4-C , 14-H ) :   0.9859
B(  5-C ,  6-C ) :   0.9051 B(  5-C , 15-H ) :   0.9731 B(  5-C , 16-H ) :   0.9380
B(  6-C ,  7-C ) :   0.9055 B(  6-C , 17-H ) :   0.9449 B(  6-C , 18-H ) :   1.0102
B(  7-C ,  8-C ) :   0.8945 B(  7-C , 19-H ) :   0.9845 B(  7-C , 20-H ) :   0.9415
B(  8-C , 21-H ) :   0.9516 B(  8-C , 22-H ) :   0.9904

Dispersion correction           -0.007579997
FINAL SINGLE POINT ENERGY      -388.406002750784

DIPOLE MOMENT
-------------

Method             : SCF
Type of density    : Electron Density
Multiplicity       :   1
Irrep              :   0
Energy             :  -388.4083896858295475 Eh
Relativity type    :
Basis              : AO
                                X                 Y                 Z
Electronic contribution:     -3.257686179       0.262871159       2.930318955
Nuclear contribution   :      3.236213681      -0.197153826      -3.937693029
                        -----------------------------------------
Total Dipole Moment    :     -0.021472498       0.065717333      -1.007374074
                        -----------------------------------------
Magnitude (a.u.)       :      1.009743711
Magnitude (Debye)      :      2.566564545

Rotational constants in cm-1:             0.089746             0.042503             0.038736
Rotational constants in MHz :          2690.515913          1274.218519          1161.278889

                             ****ORCA TERMINATED NORMALLY****
TOTAL RUN TIME: 0 days 0 hours 0 minutes 30 seconds 807 msec
