                         Program Version 6.0.1  -  RELEASE   -
|  1> ! pbe def2-sv(p) def2/J RI DEFGRID1 loosescf d4 GCP(DFT/SV(P)) printgap
|  2> %output
|  3>     printlevel normal
|  4> end
|  5> * xyz 0 1
|  6> C 2.0293143283 0.064313675 -0.0001448703
|  7> C 0.7594901066 -0.7741161631 0.0002011116
|  8> C -0.4821750247 0.0802950012 -3.24718e-05
|  9> O -0.520060659 1.2795597523 7.8788e-05
| 10> O -1.5940121691 -0.6732028059 -0.0001014068
| 11> H 2.9059702643 -0.5777955148 6.75225e-05
| 12> H 2.0590235288 0.7020786627 -0.8795173375
| 13> H 2.0590710945 0.7027376031 0.8787465348
| 14> H 0.7150210224 -1.4210827437 -0.8786306191
| 15> H 0.715125012 -1.4204677122 0.8795006096
| 16> H -2.3832009402 -0.1090271003 -9.09185e-05
| 17> *
| 18>
| 19>                          ****END OF INPUT****

CARTESIAN COORDINATES (ANGSTROEM)
---------------------------------
  C      2.029314    0.064314   -0.000145
  C      0.759490   -0.774116    0.000201
  C     -0.482175    0.080295   -0.000032
  O     -0.520061    1.279560    0.000079
  O     -1.594012   -0.673203   -0.000101
  H      2.905970   -0.577796    0.000068
  H      2.059024    0.702079   -0.879517
  H      2.059071    0.702738    0.878747
  H      0.715021   -1.421083   -0.878631
  H      0.715125   -1.420468    0.879501
  H     -2.383201   -0.109027   -0.000091

 Total Charge           Charge          ....    0
 Multiplicity           Mult            ....    1
 Number of Electrons    NEL             ....   40
 Basis Dimension        Dim             ....   82

ORBITAL ENERGIES
----------------

  NO   OCC          E(Eh)            E(eV)
   0   2.0000     -18.795455      -511.4503
   1   2.0000     -18.740860      -509.9647
   2   2.0000     -10.013678      -272.4860
   3   2.0000      -9.905270      -269.5361
   4   2.0000      -9.881528      -268.8900
   5   2.0000      -1.006197       -27.3800
   6   2.0000      -0.916191       -24.9308
   7   2.0000      -0.711019       -19.3478
   8   2.0000      -0.609447       -16.5839
   9   2.0000      -0.530419       -14.4334
  10   2.0000      -0.444201       -12.0873
  11   2.0000      -0.433885       -11.8066
  12   2.0000      -0.411657       -11.2018
  13   2.0000      -0.370902       -10.0928
  14   2.0000      -0.354388        -9.6434
  15   2.0000      -0.335773        -9.1368
  16   2.0000      -0.318149        -8.6573
  17   2.0000      -0.310764        -8.4563
  18   2.0000      -0.275204        -7.4887
  19   2.0000      -0.226243        -6.1564
  20   0.0000      -0.020754        -0.5647
  21   0.0000       0.030570         0.8319
  22   0.0000       0.046216         1.2576
  23   0.0000       0.093973         2.5571
  24   0.0000       0.096558         2.6275

MULLIKEN ATOMIC CHARGES
-----------------------
   0 C :   -0.265803
   1 C :   -0.216815
   2 C :    0.082468
   3 O :   -0.177425
   4 O :   -0.304287
   5 H :    0.102918
   6 H :    0.113870
   7 H :    0.113882
   8 H :    0.121253
   9 H :    0.121280
  10 H :    0.308658
Sum of atomic charges:   -0.0000000

LOEWDIN ATOMIC CHARGES
----------------------
   0 C :   -0.336754
   1 C :   -0.261640
   2 C :    0.026905
   3 O :   -0.155383
   4 O :   -0.225011
   5 H :    0.121464
   6 H :    0.126172
   7 H :    0.126176
   8 H :    0.142136
   9 H :    0.142151
  10 H :    0.293784

  Mayer bond orders larger than 0.100000
B(  0-C ,  1-C ) :   1.1562 B(  0-C ,  5-H ) :   0.9484 B(  0-C ,  6-H ) :   0.9549
B(  0-C ,  7-H ) :   0.9549 B(  1-C ,  2-C ) :   1.0087 B(  1-C ,  8-H ) :   0.9047
B(  1-C ,  9-H ) :   0.9047 B(  2-C ,  3-O ) :   2.1205 B(  2-C ,  4-O ) :   1.2524
B(  4-O , 10-H ) :   0.8281

Dispersion correction           -0.006479729
FINAL SINGLE POINT ENERGY      -267.821628350129

DIPOLE MOMENT
-------------

Method             : SCF
Type of density    : Electron Density
Multiplicity       :   1
Irrep              :   0
Energy             :  -267.8663350362298274 Eh
Relativity type    :
Basis              : AO
                                X                 Y                 Z
Electronic contribution:     -5.794644630       1.424769772      -0.000037776
Nuclear contribution   :      5.664301766      -1.983268572       0.000070770
                        -----------------------------------------
Total Dipole Moment    :     -0.130342864      -0.558498800       0.000032995
                        -----------------------------------------
Magnitude (a.u.)       :      0.573506907
Magnitude (Debye)      :      1.457738710

Rotational constants in cm-1:             0.341947             0.128593             0.096794
Rotational constants in MHz :         10251.326553          3855.111978          2901.806647

                             ****ORCA TERMINATED NORMALLY****
TOTAL RUN TIME: 0 days 0 hours 0 minutes 2 seconds 975 msec
