                         Program Version 6.0.1  -  RELEASE   -
|  1> ! pbe def2-sv(p) def2/J RI DEFGRID1 loosescf d4 GCP(DFT/SV(P)) printgap
|  2> %output
|  3>     printlevel normal
|  4> end
|  5> * xyz 0 1
|  6> C -1.826753879 -1.0918624921 -0.6115387548
|  7> C -1.0201431696 -0.4885979845 0.5557039835
|  8> H -1.6378127566 -0.5523249783 1.4626199517
|  9> C -0.7042267509 1.005022398 0.3357005056
| 10> H -1.5457771047 1.439098237 -0.2163009273
| 11> C 0.5894782645 1.242619039 -0.4779426579
| 12> H 0.8657873849 2.2940561805 -0.3288531075
| 13> C 1.72175411 0.3622296661 0.077263243
| 14> H 2.5846575569 0.4268733102 -0.6025625594
| 15> C 1.2653900535 -1.1084927893 0.1243239128
| 16> H 2.0258747529 -1.7075820246 0.6586318483
| 17> O 0.1129093198 -1.2940444966 0.8815685145
| 18> O 1.1365345334 -1.5629608484 -1.1977495777
| 19> O 2.0492684942 0.8225310816 1.3661662809
| 20> O 0.4332776654 1.066739024 -1.8557365491
| 21> O -0.6421658321 1.6878940356 1.5608654674
| 22> O -3.0963193024 -0.5117224595 -0.7281997711
| 23> H -1.9014504954 -2.1791853408 -0.4501005088
| 24> H -1.3368816841 -0.9078396853 -1.5692612609
| 25> H 0.8241245094 -2.4758200114 -1.1886506281
| 26> H 2.7435201906 0.2704246563 1.7435749384
| 27> H 0.5267583339 0.1258859826 -2.0616342898
| 28> H 0.2119774472 1.4864878016 1.9702510741
| 29> H -3.5615381052 -0.5863807727 0.1132160301
| 30> *
| 31>
| 32>                          ****END OF INPUT****

CARTESIAN COORDINATES (ANGSTROEM)
---------------------------------
  C     -1.826754   -1.091862   -0.611539
  C     -1.020143   -0.488598    0.555704
  H     -1.637813   -0.552325    1.462620
  C     -0.704227    1.005022    0.335701
  H     -1.545777    1.439098   -0.216301
  C      0.589478    1.242619   -0.477943
  H      0.865787    2.294056   -0.328853
  C      1.721754    0.362230    0.077263
  H      2.584658    0.426873   -0.602563
  C      1.265390   -1.108493    0.124324
  H      2.025875   -1.707582    0.658632
  O      0.112909   -1.294044    0.881569
  O      1.136535   -1.562961   -1.197750
  O      2.049268    0.822531    1.366166
  O      0.433278    1.066739   -1.855737
  O     -0.642166    1.687894    1.560865
  O     -3.096319   -0.511722   -0.728200
  H     -1.901450   -2.179185   -0.450101
  H     -1.336882   -0.907840   -1.569261
  H      0.824125   -2.475820   -1.188651
  H      2.743520    0.270425    1.743575
  H      0.526758    0.125886   -2.061634
  H      0.211977    1.486488    1.970251
  H     -3.561538   -0.586381    0.113216

 Total Charge           Charge          ....    0
 Multiplicity           Mult            ....    1
 Number of Electrons    NEL             ....   96
 Basis Dimension        Dim             ....  192

ORBITAL ENERGIES
----------------

  NO   OCC          E(Eh)            E(eV)
   0   2.0000     -18.793637      -511.4009
   1   2.0000     -18.783430      -511.1231
   2   2.0000     -18.780388      -511.0403
   3   2.0000     -18.752648      -510.2855
   4   2.0000     -18.743310      -510.0314
   5   2.0000     -18.730628      -509.6863
   6   2.0000     -10.005283      -272.2576
   7   2.0000      -9.956840      -270.9394
   8   2.0000      -9.943232      -270.5691
   9   2.0000      -9.940901      -270.5057
  10   2.0000      -9.934250      -270.3247
  11   2.0000      -9.930136      -270.2127
  12   2.0000      -1.001813       -27.2607
  13   2.0000      -0.958407       -26.0796
  14   2.0000      -0.936926       -25.4951
  15   2.0000      -0.928743       -25.2724
  16   2.0000      -0.926195       -25.2031
  17   2.0000      -0.909315       -24.7437
  18   2.0000      -0.703080       -19.1318
  19   2.0000      -0.695077       -18.9140
  20   2.0000      -0.621993       -16.9253
  21   2.0000      -0.596089       -16.2204
  22   2.0000      -0.582172       -15.8417
  23   2.0000      -0.534855       -14.5542
  24   2.0000      -0.509265       -13.8578
  25   2.0000      -0.488563       -13.2945
  26   2.0000      -0.480339       -13.0707
  27   2.0000      -0.463018       -12.5994
  28   2.0000      -0.448438       -12.2026
  29   2.0000      -0.435494       -11.8504
  30   2.0000      -0.425061       -11.5665
  31   2.0000      -0.399560       -10.8726
  32   2.0000      -0.383977       -10.4486
  33   2.0000      -0.381302       -10.3758
  34   2.0000      -0.374481       -10.1901
  35   2.0000      -0.348198        -9.4750
  36   2.0000      -0.345956        -9.4139
  37   2.0000      -0.325365        -8.8536
  38   2.0000      -0.310027        -8.4363
  39   2.0000      -0.299761        -8.1569
  40   2.0000      -0.286964        -7.8087
  41   2.0000      -0.272360        -7.4113
  42   2.0000      -0.256030        -6.9669
  43   2.0000      -0.250196        -6.8082
  44   2.0000      -0.242376        -6.5954
  45   2.0000      -0.233953        -6.3662
  46   2.0000      -0.215404        -5.8614
  47   2.0000      -0.193280        -5.2594
  48   0.0000       0.000697         0.0190
  49   0.0000       0.006034         0.1642
  50   0.0000       0.025319         0.6890
  51   0.0000       0.055505         1.5104
  52   0.0000       0.067033         1.8241

MULLIKEN ATOMIC CHARGES
-----------------------
   0 C :    0.035500
   1 C :    0.001845
   2 H :    0.066907
   3 C :    0.080607
   4 H :    0.083891
   5 C :    0.039553
   6 H :    0.087947
   7 C :    0.007073
   8 H :    0.087508
   9 C :    0.170538
  10 H :    0.058089
  11 O :   -0.302355
  12 O :   -0.409533
  13 O :   -0.415327
  14 O :   -0.415451
  15 O :   -0.431523
  16 O :   -0.419591
  17 H :    0.066089
  18 H :    0.070997
  19 H :    0.315142
  20 H :    0.309087
  21 H :    0.314625
  22 H :    0.299715
  23 H :    0.298666
Sum of atomic charges:    0.0000000

LOEWDIN ATOMIC CHARGES
----------------------
   0 C :   -0.145008
   1 C :   -0.079030
   2 H :    0.114125
   3 C :   -0.074942
   4 H :    0.123553
   5 C :   -0.067041
   6 H :    0.121246
   7 C :   -0.087450
   8 H :    0.111861
   9 C :   -0.013318
  10 H :    0.092579
  11 O :   -0.136602
  12 O :   -0.308337
  13 O :   -0.302873
  14 O :   -0.311840
  15 O :   -0.323395
  16 O :   -0.321900
  17 H :    0.090370
  18 H :    0.106972
  19 H :    0.292858
  20 H :    0.291541
  21 H :    0.270986
  22 H :    0.271187
  23 H :    0.284457

  Mayer bond orders larger than 0.100000
B(  0-C ,  1-C ) :   1.0297 B(  0-C , 16-O ) :   1.0581 B(  0-C , 17-H ) :   0.9086
B(  0-C , 18-H ) :   0.9034 B(  1-C ,  2-H ) :   0.8944 B(  1-C ,  3-C ) :   0.9753
B(  1-C , 11-O ) :   0.9654 B(  3-C ,  4-H ) :   0.8797 B(  3-C ,  5-C ) :   0.9726
B(  3-C , 15-O ) :   1.0448 B(  5-C ,  6-H ) :   0.9006 B(  5-C ,  7-C ) :   1.0038
B(  5-C , 14-O ) :   1.0889 B(  7-C ,  8-H ) :   0.8956 B(  7-C ,  9-C ) :   0.9758
B(  7-C , 13-O ) :   1.0211 B(  9-C , 10-H ) :   0.9035 B(  9-C , 11-O ) :   1.1036
B(  9-C , 12-O ) :   1.0748 B( 12-O , 19-H ) :   0.8279 B( 13-O , 20-H ) :   0.8392
B( 14-O , 21-H ) :   0.8019 B( 15-O , 22-H ) :   0.8217 B( 16-O , 23-H ) :   0.8487

Dispersion correction           -0.025900642
FINAL SINGLE POINT ENERGY      -685.695962483052

DIPOLE MOMENT
-------------

Method             : SCF
Type of density    : Electron Density
Multiplicity       :   1
Irrep              :   0
Energy             :  -685.8292340324430825 Eh
Relativity type    :
Basis              : AO
                                X                 Y                 Z
Electronic contribution:      1.160374477       0.606134371       1.018722758
Nuclear contribution   :     -0.188443227      -2.216910306      -0.439668209
                        -----------------------------------------
Total Dipole Moment    :      0.971931250      -1.610775935       0.579054550
                        -----------------------------------------
Magnitude (a.u.)       :      1.968388590
Magnitude (Debye)      :      5.003246181

Rotational constants in cm-1:             0.040619             0.028494             0.024656
Rotational constants in MHz :          1217.725155           854.219419           739.168437

                             ****ORCA TERMINATED NORMALLY****
TOTAL RUN TIME: 0 days 0 hours 26 minutes 10 seconds 209 msec
