                         Program Version 6.0.1  -  RELEASE   -
|  1> ! pbe def2-sv(p) def2/J RI DEFGRID1 loosescf d4 GCP(DFT/SV(P)) printgap
|  2> %output
|  3>     printlevel normal
|  4> end
|  5> * xyz 0 1
|  6> C -3.8925369069 -1.2040898638 -1.0206631635
|  7> N -3.4151392639 -0.7779399869 0.2716518172
|  8> C -2.2666011878 -0.1136389019 0.5273422137
|  9> O -1.9561889316 0.2836896229 1.6214672465
| 10> O -1.5055450524 0.0285036169 -0.5879315579
| 11> C -0.2739044628 0.6626063797 -0.4182402662
| 12> C -0.1921553834 2.023133397 -0.5334267207
| 13> C 1.04941989 2.6633345736 -0.4111205295
| 14> C 2.1810410912 1.9380178631 -0.1688242606
| 15> C 2.1238856499 0.534943112 -0.0358060687
| 16> C 0.8736237345 -0.1259007045 -0.1613706765
| 17> C 0.8174924792 -1.5276023697 -0.022826628
| 18> C 1.9513033762 -2.2458625244 0.2345974251
| 19> C 3.1891086934 -1.5970292492 0.3590177064
| 20> C 3.2734319096 -0.2394683232 0.2254368795
| 21> H -4.6957447669 -0.553791549 -1.3784152137
| 22> H -4.2678583007 -2.2263732323 -0.9566402
| 23> H -3.0690216895 -1.168533558 -1.7289614001
| 24> H -4.0417698474 -0.85962787 1.0571914246
| 25> H -1.0870661567 2.5986911595 -0.715238356
| 26> H 1.0958205949 3.7378198598 -0.5058662875
| 27> H 3.1381690463 2.4292536665 -0.0694578065
| 28> H -0.1370958916 -2.0235806511 -0.1202059134
| 29> H 1.9015485946 -3.3191913564 0.344786062
| 30> H 4.0748281159 -2.1810038079 0.5625345986
| 31> H 4.2248269069 0.2641188178 0.3208667909
| 32> *
| 33>
| 34>                          ****END OF INPUT****

CARTESIAN COORDINATES (ANGSTROEM)
---------------------------------
  C     -3.892537   -1.204090   -1.020663
  N     -3.415139   -0.777940    0.271652
  C     -2.266601   -0.113639    0.527342
  O     -1.956189    0.283690    1.621467
  O     -1.505545    0.028504   -0.587932
  C     -0.273904    0.662606   -0.418240
  C     -0.192155    2.023133   -0.533427
  C      1.049420    2.663335   -0.411121
  C      2.181041    1.938018   -0.168824
  C      2.123886    0.534943   -0.035806
  C      0.873624   -0.125901   -0.161371
  C      0.817492   -1.527602   -0.022827
  C      1.951303   -2.245863    0.234597
  C      3.189109   -1.597029    0.359018
  C      3.273432   -0.239468    0.225437
  H     -4.695745   -0.553792   -1.378415
  H     -4.267858   -2.226373   -0.956640
  H     -3.069022   -1.168534   -1.728961
  H     -4.041770   -0.859628    1.057191
  H     -1.087066    2.598691   -0.715238
  H      1.095821    3.737820   -0.505866
  H      3.138169    2.429254   -0.069458
  H     -0.137096   -2.023581   -0.120206
  H      1.901549   -3.319191    0.344786
  H      4.074828   -2.181004    0.562535
  H      4.224827    0.264119    0.320867

 Total Charge           Charge          ....    0
 Multiplicity           Mult            ....    1
 Number of Electrons    NEL             ....  106
 Basis Dimension        Dim             ....  232

ORBITAL ENERGIES
----------------

  NO   OCC          E(Eh)            E(eV)
   0   2.0000     -18.804518      -511.6969
   1   2.0000     -18.713976      -509.2332
   2   2.0000     -14.020757      -381.5242
   3   2.0000     -10.022408      -272.7236
   4   2.0000      -9.953564      -270.8502
   5   2.0000      -9.925437      -270.0849
   6   2.0000      -9.905285      -269.5365
   7   2.0000      -9.904286      -269.5093
   8   2.0000      -9.896702      -269.3030
   9   2.0000      -9.895062      -269.2583
  10   2.0000      -9.894964      -269.2557
  11   2.0000      -9.894696      -269.2484
  12   2.0000      -9.894356      -269.2391
  13   2.0000      -9.894220      -269.2354
  14   2.0000      -9.894068      -269.2313
  15   2.0000      -1.012345       -27.5473
  16   2.0000      -0.914633       -24.8884
  17   2.0000      -0.844318       -22.9751
  18   2.0000      -0.795340       -21.6423
  19   2.0000      -0.746749       -20.3201
  20   2.0000      -0.698949       -19.0194
  21   2.0000      -0.670688       -18.2503
  22   2.0000      -0.656413       -17.8619
  23   2.0000      -0.639623       -17.4050
  24   2.0000      -0.593096       -16.1390
  25   2.0000      -0.559791       -15.2327
  26   2.0000      -0.556185       -15.1346
  27   2.0000      -0.517531       -14.0827
  28   2.0000      -0.487829       -13.2745
  29   2.0000      -0.466853       -12.7037
  30   2.0000      -0.451363       -12.2822
  31   2.0000      -0.445308       -12.1175
  32   2.0000      -0.441599       -12.0165
  33   2.0000      -0.422405       -11.4942
  34   2.0000      -0.402486       -10.9522
  35   2.0000      -0.400716       -10.9040
  36   2.0000      -0.383326       -10.4308
  37   2.0000      -0.381313       -10.3761
  38   2.0000      -0.366390        -9.9700
  39   2.0000      -0.363268        -9.8850
  40   2.0000      -0.357274        -9.7219
  41   2.0000      -0.355215        -9.6659
  42   2.0000      -0.341288        -9.2869
  43   2.0000      -0.332798        -9.0559
  44   2.0000      -0.304927        -8.2975
  45   2.0000      -0.299177        -8.1410
  46   2.0000      -0.294908        -8.0249
  47   2.0000      -0.260345        -7.0844
  48   2.0000      -0.254366        -6.9217
  49   2.0000      -0.227613        -6.1937
  50   2.0000      -0.219892        -5.9836
  51   2.0000      -0.215004        -5.8506
  52   2.0000      -0.195828        -5.3287
  53   0.0000      -0.069756        -1.8982
  54   0.0000      -0.041044        -1.1169
  55   0.0000      -0.003566        -0.0970
  56   0.0000       0.026257         0.7145
  57   0.0000       0.030732         0.8363

MULLIKEN ATOMIC CHARGES
-----------------------
   0 C :   -0.183441
   1 N :   -0.292960
   2 C :    0.187928
   3 O :   -0.212498
   4 O :   -0.265101
   5 C :    0.174565
   6 C :   -0.112118
   7 C :   -0.042649
   8 C :   -0.110173
   9 C :    0.133296
  10 C :    0.132645
  11 C :   -0.135457
  12 C :   -0.039173
  13 C :   -0.036644
  14 C :   -0.131936
  15 H :    0.113315
  16 H :    0.113210
  17 H :    0.140825
  18 H :    0.238676
  19 H :    0.040129
  20 H :    0.055642
  21 H :    0.038509
  22 H :    0.046588
  23 H :    0.052466
  24 H :    0.053775
  25 H :    0.040581
Sum of atomic charges:    0.0000000

LOEWDIN ATOMIC CHARGES
----------------------
   0 C :   -0.263582
   1 N :   -0.177422
   2 C :    0.021467
   3 O :   -0.193910
   4 O :   -0.058348
   5 C :    0.051850
   6 C :   -0.128217
   7 C :   -0.118078
   8 C :   -0.114808
   9 C :   -0.020770
  10 C :   -0.029115
  11 C :   -0.107834
  12 C :   -0.120911
  13 C :   -0.122832
  14 C :   -0.109062
  15 H :    0.114112
  16 H :    0.118033
  17 H :    0.133571
  18 H :    0.242343
  19 H :    0.131543
  20 H :    0.126775
  21 H :    0.124697
  22 H :    0.126312
  23 H :    0.124734
  24 H :    0.124761
  25 H :    0.124692

  Mayer bond orders larger than 0.100000
B(  0-C ,  1-N ) :   1.0188 B(  0-C , 15-H ) :   0.9547 B(  0-C , 16-H ) :   0.9566
B(  0-C , 17-H ) :   0.9443 B(  1-N ,  2-C ) :   1.2183 B(  1-N , 18-H ) :   0.8645
B(  2-C ,  3-O ) :   2.0669 B(  2-C ,  4-O ) :   1.0530 B(  4-O ,  5-C ) :   0.9940
B(  5-C ,  6-C ) :   1.4931 B(  5-C , 10-C ) :   1.2492 B(  6-C ,  7-C ) :   1.2170
B(  6-C , 19-H ) :   0.9617 B(  7-C ,  8-C ) :   1.4452 B(  7-C , 20-H ) :   0.9607
B(  8-C ,  9-C ) :   1.2365 B(  8-C , 21-H ) :   0.9671 B(  9-C , 10-C ) :   1.2519
B(  9-C , 14-C ) :   1.2393 B( 10-C , 11-C ) :   1.2585 B( 11-C , 12-C ) :   1.4501
B( 11-C , 22-H ) :   0.9559 B( 12-C , 13-C ) :   1.2574 B( 12-C , 23-H ) :   0.9625
B( 13-C , 14-C ) :   1.4624 B( 13-C , 24-H ) :   0.9620 B( 14-C , 25-H ) :   0.9649

Dispersion correction           -0.032686816
FINAL SINGLE POINT ENERGY      -667.733632529976

DIPOLE MOMENT
-------------

Method             : SCF
Type of density    : Electron Density
Multiplicity       :   1
Irrep              :   0
Energy             :  -667.8089032718115732 Eh
Relativity type    :
Basis              : AO
                                X                 Y                 Z
Electronic contribution:      2.211295437       2.694024823       2.300885263
Nuclear contribution   :     -2.756346410      -3.097694836      -2.975411121
                        -----------------------------------------
Total Dipole Moment    :     -0.545050972      -0.403670013      -0.674525858
                        -----------------------------------------
Magnitude (a.u.)       :      0.956564256
Magnitude (Debye)      :      2.431393112

Rotational constants in cm-1:             0.035909             0.014708             0.011585
Rotational constants in MHz :          1076.537902           440.935517           347.317877

                             ****ORCA TERMINATED NORMALLY****
TOTAL RUN TIME: 0 days 0 hours 0 minutes 16 seconds 598 msec
