                         Program Version 6.0.0  -   RELEASE  -
|  1> ! r2SCAN-3c DEF2-TZVP FREQ
|  2> * xyzfile 0 1 censo.xyz
|  3>
|  4>                          ****END OF INPUT****

CARTESIAN COORDINATES (ANGSTROEM)
---------------------------------
  C     -2.592790   -0.698127    0.000103
  C     -2.592801    0.698087    0.000107
  C     -1.397044    1.422689    0.000062
  C     -0.219951    0.697767    0.000018
  C     -0.219940   -0.697768    0.000007
  C     -1.397021   -1.422710    0.000037
  C      1.189661   -1.158219   -0.000004
  O      1.623996   -2.297865   -0.000025
  N      1.964200    0.000017   -0.000034
  C      1.189643    1.158240   -0.000006
  O      1.623960    2.297893    0.000001
  H     -3.538510   -1.229391    0.000141
  H     -3.538530    1.229336    0.000142
  H     -1.394317    2.507305    0.000070
  H     -1.394277   -2.507325    0.000057
  H      2.976344    0.000025   -0.000070

 Total Charge           Charge          ....    0
 Multiplicity           Mult            ....    1
 Number of Electrons    NEL             ....   76
 Basis Dimension        Dim             ....  371

ORBITAL ENERGIES
----------------

  NO   OCC          E(Eh)            E(eV)
   0   2.0000     -18.953925      -515.7625
   1   2.0000     -18.953924      -515.7625
   2   2.0000     -14.221901      -386.9976
   3   2.0000     -10.163553      -276.5643
   4   2.0000     -10.163543      -276.5641
   5   2.0000     -10.074235      -274.1339
   6   2.0000     -10.073856      -274.1236
   7   2.0000     -10.073075      -274.1023
   8   2.0000     -10.073049      -274.1016
   9   2.0000     -10.071445      -274.0580
  10   2.0000     -10.071032      -274.0467
  11   2.0000      -1.039343       -28.2820
  12   2.0000      -1.018694       -27.7201
  13   2.0000      -0.931814       -25.3559
  14   2.0000      -0.856287       -23.3008
  15   2.0000      -0.764165       -20.7940
  16   2.0000      -0.752810       -20.4850
  17   2.0000      -0.650204       -17.6929
  18   2.0000      -0.646602       -17.5949
  19   2.0000      -0.587649       -15.9907
  20   2.0000      -0.566631       -15.4188
  21   2.0000      -0.505482       -13.7549
  22   2.0000      -0.491164       -13.3653
  23   2.0000      -0.461415       -12.5557
  24   2.0000      -0.452240       -12.3061
  25   2.0000      -0.434591       -11.8258
  26   2.0000      -0.434333       -11.8188
  27   2.0000      -0.412560       -11.2263
  28   2.0000      -0.408768       -11.1231
  29   2.0000      -0.376646       -10.2491
  30   2.0000      -0.368155       -10.0180
  31   2.0000      -0.363694        -9.8966
  32   2.0000      -0.350827        -9.5465
  33   2.0000      -0.280374        -7.6294
  34   2.0000      -0.270816        -7.3693
  35   2.0000      -0.267129        -7.2689
  36   2.0000      -0.266500        -7.2518
  37   2.0000      -0.242791        -6.6067
  38   0.0000      -0.118262        -3.2181
  39   0.0000      -0.079684        -2.1683
  40   0.0000      -0.011663        -0.3174
  41   0.0000       0.035922         0.9775
  42   0.0000       0.044145         1.2012

MULLIKEN ATOMIC CHARGES
-----------------------
   0 C :   -0.066263
   1 C :   -0.066234
   2 C :   -0.197813
   3 C :    0.053926
   4 C :    0.053865
   5 C :   -0.197764
   6 C :    0.247592
   7 O :   -0.318141
   8 N :   -0.212870
   9 C :    0.247598
  10 O :   -0.318140
  11 H :    0.126895
  12 H :    0.126893
  13 H :    0.138863
  14 H :    0.138858
  15 H :    0.242733
Sum of atomic charges:    0.0000000

LOEWDIN ATOMIC CHARGES
----------------------
   0 C :   -0.111830
   1 C :   -0.111830
   2 C :   -0.069746
   3 C :   -0.079223
   4 C :   -0.079223
   5 C :   -0.069746
   6 C :   -0.354887
   7 O :    0.108304
   8 N :    0.205411
   9 C :   -0.354887
  10 O :    0.108304
  11 H :    0.148738
  12 H :    0.148738
  13 H :    0.157146
  14 H :    0.157146
  15 H :    0.197586

  Mayer bond orders larger than 0.100000
B(  0-C ,  1-C ) :   1.3811 B(  0-C ,  5-C ) :   1.3735 B(  0-C , 11-H ) :   0.9666
B(  1-C ,  2-C ) :   1.3735 B(  1-C , 12-H ) :   0.9666 B(  2-C ,  3-C ) :   1.3685
B(  2-C , 13-H ) :   0.9765 B(  3-C ,  4-C ) :   1.2637 B(  3-C ,  9-C ) :   0.9231
B(  3-C , 10-O ) :  -0.1092 B(  4-C ,  5-C ) :   1.3684 B(  4-C ,  6-C ) :   0.9231
B(  4-C ,  7-O ) :  -0.1092 B(  5-C , 14-H ) :   0.9765 B(  6-C ,  7-O ) :   2.1188
B(  6-C ,  8-N ) :   1.1303 B(  8-N ,  9-C ) :   1.1303 B(  8-N , 15-H ) :   0.8904
B(  9-C , 10-O ) :   2.1188

Dispersion correction           -0.006250668
FINAL SINGLE POINT ENERGY      -513.037145749643

DIPOLE MOMENT
-------------

Method             : SCF
Type of density    : Electron Density
Multiplicity       :   1
Irrep              :   0
Energy             :  -513.0381944840703454 Eh
Relativity type    :
Basis              : AO
                                X                 Y                 Z
Electronic contribution:      5.240594603       0.000042982      -0.000179940
Nuclear contribution   :     -6.403967796      -0.000051366       0.000210165
                        -----------------------------------------
Total Dipole Moment    :     -1.163373194      -0.000008384       0.000030225
                        -----------------------------------------
Magnitude (a.u.)       :      1.163373194
Magnitude (Debye)      :      2.957059659

VIBRATIONAL FREQUENCIES
-----------------------

Scaling factor for frequencies =  1.000000000  (already applied!)

     0:       0.00 cm**-1
     1:       0.00 cm**-1
     2:       0.00 cm**-1
     3:       0.00 cm**-1
     4:       0.00 cm**-1
     5:       0.00 cm**-1
     6:     145.07 cm**-1
     7:     168.99 cm**-1
     8:     188.72 cm**-1
     9:     251.99 cm**-1
    10:     352.25 cm**-1
    11:     412.92 cm**-1
    12:     473.11 cm**-1
    13:     539.29 cm**-1
    14:     557.11 cm**-1
    15:     600.66 cm**-1
    16:     655.19 cm**-1
    17:     672.99 cm**-1
    18:     694.65 cm**-1
    19:     725.57 cm**-1
    20:     760.62 cm**-1
    21:     805.18 cm**-1
    22:     819.55 cm**-1
    23:     827.41 cm**-1
    24:     906.51 cm**-1
    25:     967.32 cm**-1
    26:     997.18 cm**-1
    27:    1028.13 cm**-1
    28:    1056.50 cm**-1
    29:    1105.21 cm**-1
    30:    1157.79 cm**-1
    31:    1192.03 cm**-1
    32:    1199.94 cm**-1
    33:    1308.39 cm**-1
    34:    1335.03 cm**-1
    35:    1342.75 cm**-1
    36:    1405.39 cm**-1
    37:    1485.81 cm**-1
    38:    1495.37 cm**-1
    39:    1639.74 cm**-1
    40:    1642.49 cm**-1
    41:    1736.25 cm**-1
    42:    1761.90 cm**-1
    43:    3170.15 cm**-1
    44:    3181.30 cm**-1
    45:    3189.94 cm**-1
    46:    3194.55 cm**-1
    47:    3583.44 cm**-1

IR SPECTRUM
-----------

 Mode   freq       eps      Int      T**2         TX        TY        TZ
       cm**-1   L/(mol*cm) km/mol    a.u.
----------------------------------------------------------------------------
  6:    145.07   0.000000    0.00  0.000000  (-0.000009  0.000005  0.000000)
  7:    168.99   0.000535    2.70  0.000987  ( 0.000006  0.000004  0.031424)
  8:    188.72   0.000529    2.68  0.000875  ( 0.000011  0.000001 -0.029588)
  9:    251.99   0.000013    0.07  0.000016  (-0.000000  0.004048  0.000000)
 10:    352.25   0.002506   12.67  0.002220  (-0.047121 -0.000000  0.000001)
 11:    412.92   0.000219    1.11  0.000165  ( 0.000005  0.000002  0.012859)
 12:    473.11   0.000000    0.00  0.000000  (-0.000014 -0.000034  0.000001)
 13:    539.29   0.001954    9.88  0.001131  (-0.000000  0.033629  0.000000)
 14:    557.11   0.001326    6.70  0.000743  (-0.027256 -0.000000 -0.000000)
 15:    600.66   0.018989   95.96  0.009866  ( 0.000002 -0.000000  0.099326)
 16:    655.19   0.002416   12.21  0.001151  ( 0.033920  0.000000 -0.000006)
 17:    672.99   0.000303    1.53  0.000140  ( 0.000000  0.011843 -0.000002)
 18:    694.65   0.000000    0.00  0.000000  (-0.000002 -0.000005 -0.000001)
 19:    725.57   0.014733   74.45  0.006336  (-0.000000  0.000014  0.079602)
 20:    760.62   0.000460    2.33  0.000189  ( 0.013742  0.000000  0.000002)
 21:    805.18   0.001270    6.42  0.000492  (-0.000005 -0.000017  0.022183)
 22:    819.55   0.000291    1.47  0.000111  (-0.000000  0.010522  0.000001)
 23:    827.41   0.000000    0.00  0.000000  (-0.000005 -0.000000 -0.000000)
 24:    906.51   0.000000    0.00  0.000000  ( 0.000002 -0.000007  0.000000)
 25:    967.32   0.000211    1.07  0.000068  (-0.000003  0.000002 -0.008251)
 26:    997.18   0.000000    0.00  0.000000  (-0.000001 -0.000003 -0.000000)
 27:   1028.13   0.000482    2.44  0.000146  ( 0.012099  0.000000 -0.000001)
 28:   1056.50   0.015913   80.42  0.004700  (-0.000001  0.068560  0.000001)
 29:   1105.21   0.002341   11.83  0.000661  ( 0.000000 -0.025708 -0.000000)
 30:   1157.79   0.000166    0.84  0.000045  ( 0.006698  0.000000 -0.000000)
 31:   1192.03   0.000018    0.09  0.000005  (-0.002172 -0.000000 -0.000000)
 32:   1199.94   0.003051   15.42  0.000793  ( 0.000000 -0.028166  0.000000)
 33:   1308.39   0.000036    0.18  0.000009  (-0.000000  0.002920 -0.000000)
 34:   1335.03   0.036944  186.70  0.008636  (-0.092929 -0.000000  0.000002)
 35:   1342.75   0.002350   11.88  0.000546  (-0.000001 -0.023369  0.000000)
 36:   1405.39   0.014056   71.04  0.003121  (-0.055868 -0.000001  0.000002)
 37:   1485.81   0.000160    0.81  0.000034  (-0.005804  0.000000  0.000000)
 38:   1495.37   0.001103    5.57  0.000230  (-0.000000  0.015170 -0.000000)
 39:   1639.74   0.000727    3.67  0.000138  ( 0.011760 -0.000000 -0.000000)
 40:   1642.49   0.005433   27.46  0.001032  (-0.000000  0.032129  0.000000)
 41:   1736.25   0.134610  680.26  0.024194  (-0.000002  0.155544  0.000001)
 42:   1761.90   0.023650  119.52  0.004189  ( 0.064721  0.000003 -0.000000)
 43:   3170.15   0.000250    1.26  0.000025  (-0.000000  0.004956 -0.000000)
 44:   3181.30   0.000689    3.48  0.000068  ( 0.008221  0.000000 -0.000001)
 45:   3189.94   0.000588    2.97  0.000058  (-0.000000  0.007586  0.000000)
 46:   3194.55   0.001892    9.56  0.000185  ( 0.013596  0.000000 -0.000000)
 47:   3583.44   0.021219  107.23  0.001848  ( 0.042987  0.000000 -0.000002)

--------------------------
THERMOCHEMISTRY AT 298.15K
--------------------------

Temperature         ...   298.15 K
Pressure            ...     1.00 atm
Total Mass          ...   147.13 AMU
Quasi RRHO          ...     True
Cut-Off Frequency   ...     1.00 cm^-1

Throughout the following assumptions are being made:
  (1) The electronic state is orbitally nondegenerate
  (2) There are no thermally accessible electronically excited states
  (3) Hindered rotations indicated by low frequency modes are not
      treated as such but are treated as vibrations and this may
      cause some error
  (4) All equations used are the standard statistical mechanics
      equations for an ideal gas
  (5) All vibrations are strictly harmonic

freq.     145.07  E(vib)   ...       0.41
freq.     168.99  E(vib)   ...       0.38
freq.     188.72  E(vib)   ...       0.36
freq.     251.99  E(vib)   ...       0.30
freq.     352.25  E(vib)   ...       0.23
freq.     412.92  E(vib)   ...       0.19
freq.     473.11  E(vib)   ...       0.15
freq.     539.29  E(vib)   ...       0.12
freq.     557.11  E(vib)   ...       0.12
freq.     600.66  E(vib)   ...       0.10
freq.     655.19  E(vib)   ...       0.08
freq.     672.99  E(vib)   ...       0.08
freq.     694.65  E(vib)   ...       0.07
freq.     725.57  E(vib)   ...       0.06
freq.     760.62  E(vib)   ...       0.06
freq.     805.18  E(vib)   ...       0.05
freq.     819.55  E(vib)   ...       0.05
freq.     827.41  E(vib)   ...       0.04
freq.     906.51  E(vib)   ...       0.03
freq.     967.32  E(vib)   ...       0.03
freq.     997.18  E(vib)   ...       0.02
freq.    1028.13  E(vib)   ...       0.02
freq.    1056.50  E(vib)   ...       0.02
freq.    1105.21  E(vib)   ...       0.02
freq.    1157.79  E(vib)   ...       0.01
freq.    1192.03  E(vib)   ...       0.01
freq.    1199.94  E(vib)   ...       0.01
freq.    1308.39  E(vib)   ...       0.01
freq.    1335.03  E(vib)   ...       0.01
freq.    1342.75  E(vib)   ...       0.01
freq.    1405.39  E(vib)   ...       0.00
freq.    1485.81  E(vib)   ...       0.00
freq.    1495.37  E(vib)   ...       0.00
freq.    1639.74  E(vib)   ...       0.00
freq.    1642.49  E(vib)   ...       0.00
freq.    1736.25  E(vib)   ...       0.00
freq.    1761.90  E(vib)   ...       0.00
freq.    3170.15  E(vib)   ...       0.00
freq.    3181.30  E(vib)   ...       0.00
freq.    3189.94  E(vib)   ...       0.00
freq.    3194.55  E(vib)   ...       0.00
freq.    3583.44  E(vib)   ...       0.00

------------
INNER ENERGY
------------

The inner energy is: U= E(el) + E(ZPE) + E(vib) + E(rot) + E(trans)
    E(el)   - is the total energy from the electronic structure calculation
              = E(kin-el) + E(nuc-el) + E(el-el) + E(nuc-nuc)
    E(ZPE)  - the the zero temperature vibrational energy from the frequency calculation
    E(vib)  - the the finite temperature correction to E(ZPE) due to population
              of excited vibrational states
    E(rot)  - is the rotational thermal energy
    E(trans)- is the translational thermal energy

Summary of contributions to the inner energy U:
Electronic energy                ...   -513.03714575 Eh
Zero point energy                ...      0.11558140 Eh      72.53 kcal/mol
Thermal vibrational correction   ...      0.00488133 Eh       3.06 kcal/mol
Thermal rotational correction    ...      0.00141627 Eh       0.89 kcal/mol
Thermal translational correction ...      0.00141627 Eh       0.89 kcal/mol
-----------------------------------------------------------------------
Total thermal energy                   -512.91385047 Eh

Summary of corrections to the electronic energy:
(perhaps to be used in another calculation)
Total thermal correction                  0.00771388 Eh       4.84 kcal/mol
Non-thermal (ZPE) correction              0.11558140 Eh      72.53 kcal/mol
-----------------------------------------------------------------------
Total correction                          0.12329528 Eh      77.37 kcal/mol

--------
ENTHALPY
--------

The enthalpy is H = U + kB*T
                kB is Boltzmann's constant
Total thermal energy              ...   -512.91385047 Eh
Thermal Enthalpy correction       ...      0.00094421 Eh       0.59 kcal/mol
-----------------------------------------------------------------------
Total Enthalpy                    ...   -512.91290626 Eh

Note: Rotational entropy computed according to Herzberg
Infrared and Raman Spectra, Chapter V,1, Van Nostrand Reinhold, 1945
Point Group:  C2v, Symmetry Number:   2
Rotational constants in cm-1:     0.058345     0.040132     0.023777

Vibrational entropy computed according to the QRRHO of S. Grimme
Chem.Eur.J. 2012 18 9955 using a reference frequency of 100.0 cm-1

-------
ENTROPY
-------

The entropy contributions are T*S = T*(S(el)+S(vib)+S(rot)+S(trans))
     S(el)   - electronic entropy
     S(vib)  - vibrational entropy
     S(rot)  - rotational entropy
     S(trans)- translational entropy
The entropies will be listed as multiplied by the temperature to get
units of energy

Electronic entropy                ...      0.00000000 Eh      0.00 kcal/mol
Vibrational entropy               ...      0.00778442 Eh      4.88 kcal/mol
Rotational entropy                ...      0.01348094 Eh      8.46 kcal/mol
Translational entropy             ...      0.01941816 Eh     12.19 kcal/mol
-----------------------------------------------------------------------
Final entropy term                ...      0.04068352 Eh     25.53 kcal/mol

In case the symmetry of your molecule has not been determined correctly
or in case you have a reason to use a different symmetry number we print
out the resulting rotational entropy values for sn=1,12:

 non-linear molecules -----------------------------------
|  sn= 1 | S(rot)=       0.01413540 Eh      8.87 kcal/mol|
|  sn= 2 | S(rot)=       0.01348094 Eh      8.46 kcal/mol|
|  sn= 3 | S(rot)=       0.01309811 Eh      8.22 kcal/mol|
|  sn= 4 | S(rot)=       0.01282649 Eh      8.05 kcal/mol|
|  sn= 5 | S(rot)=       0.01261580 Eh      7.92 kcal/mol|
|  sn= 6 | S(rot)=       0.01244365 Eh      7.81 kcal/mol|
|  sn= 7 | S(rot)=       0.01229811 Eh      7.72 kcal/mol|
|  sn= 8 | S(rot)=       0.01217203 Eh      7.64 kcal/mol|
|  sn= 9 | S(rot)=       0.01206082 Eh      7.57 kcal/mol|
|  sn=10 | S(rot)=       0.01196134 Eh      7.51 kcal/mol|
|  sn=11 | S(rot)=       0.01187135 Eh      7.45 kcal/mol|
|  sn=12 | S(rot)=       0.01178920 Eh      7.40 kcal/mol|
 linear molecules ---------------------------------------
|  Dinfh | S(rot)=       0.00885612 Eh      5.56 kcal/mol|
|  Cinfv | S(rot)=       0.00951058 Eh      5.97 kcal/mol|
 --------------------------------------------------------

-------------------
GIBBS FREE ENERGY
-------------------

The Gibbs free energy is G = H - T*S

                             ****ORCA TERMINATED NORMALLY****
TOTAL RUN TIME: 0 days 0 hours 14 minutes 41 seconds 469 msec
