                         Program Version 6.0.0  -   RELEASE  -
|  1> ! r2SCAN-3c DEF2-TZVP FREQ
|  2> * xyzfile 0 1 vacuum_censo.xyz
|  3>
|  4>                          ****END OF INPUT****

CARTESIAN COORDINATES (ANGSTROEM)
---------------------------------
  C     -2.594116   -0.698720   -0.000175
  C     -2.594236    0.698288   -0.000059
  C     -1.399002    1.420663    0.000052
  C     -0.220545    0.696840    0.000036
  C     -0.220425   -0.696863   -0.000068
  C     -1.398757   -1.420888   -0.000170
  C      1.192279   -1.171647   -0.000081
  O      1.619676   -2.303178   -0.000096
  N      1.962377    0.000175    0.000015
  C      1.192083    1.171867    0.000110
  O      1.619281    2.303471    0.000218
  H     -3.540450   -1.229455   -0.000279
  H     -3.540664    1.228856   -0.000041
  H     -1.386342    2.505234    0.000157
  H     -1.385912   -2.505458   -0.000287
  H      2.970786    0.000247    0.000120

 Total Charge           Charge          ....    0
 Multiplicity           Mult            ....    1
 Number of Electrons    NEL             ....   76
 Basis Dimension        Dim             ....  371

ORBITAL ENERGIES
----------------

  NO   OCC          E(Eh)            E(eV)
   0   2.0000     -18.955686      -515.8104
   1   2.0000     -18.955685      -515.8104
   2   2.0000     -14.219583      -386.9345
   3   2.0000     -10.163965      -276.5756
   4   2.0000     -10.163956      -276.5753
   5   2.0000     -10.073236      -274.1067
   6   2.0000     -10.072843      -274.0960
   7   2.0000     -10.071925      -274.0710
   8   2.0000     -10.071904      -274.0704
   9   2.0000     -10.070649      -274.0363
  10   2.0000     -10.070242      -274.0252
  11   2.0000      -1.042308       -28.3627
  12   2.0000      -1.025058       -27.8932
  13   2.0000      -0.930187       -25.3117
  14   2.0000      -0.855069       -23.2676
  15   2.0000      -0.762177       -20.7399
  16   2.0000      -0.751924       -20.4609
  17   2.0000      -0.649041       -17.6613
  18   2.0000      -0.644502       -17.5378
  19   2.0000      -0.585963       -15.9449
  20   2.0000      -0.565421       -15.3859
  21   2.0000      -0.503344       -13.6967
  22   2.0000      -0.489483       -13.3195
  23   2.0000      -0.461497       -12.5580
  24   2.0000      -0.450904       -12.2697
  25   2.0000      -0.433729       -11.8024
  26   2.0000      -0.433280       -11.7902
  27   2.0000      -0.413685       -11.2569
  28   2.0000      -0.411864       -11.2074
  29   2.0000      -0.380279       -10.3479
  30   2.0000      -0.367674       -10.0049
  31   2.0000      -0.363518        -9.8918
  32   2.0000      -0.350500        -9.5376
  33   2.0000      -0.281914        -7.6713
  34   2.0000      -0.270231        -7.3534
  35   2.0000      -0.268751        -7.3131
  36   2.0000      -0.265713        -7.2304
  37   2.0000      -0.244146        -6.6435
  38   0.0000      -0.116652        -3.1743
  39   0.0000      -0.078138        -2.1263
  40   0.0000      -0.010718        -0.2916
  41   0.0000       0.036255         0.9865
  42   0.0000       0.044625         1.2143

MULLIKEN ATOMIC CHARGES
-----------------------
   0 C :   -0.067533
   1 C :   -0.067601
   2 C :   -0.196216
   3 C :    0.049207
   4 C :    0.049325
   5 C :   -0.196293
   6 C :    0.244651
   7 O :   -0.305257
   8 N :   -0.218169
   9 C :    0.244642
  10 O :   -0.305256
  11 H :    0.126435
  12 H :    0.126431
  13 H :    0.138431
  14 H :    0.138426
  15 H :    0.238778
Sum of atomic charges:    0.0000000

LOEWDIN ATOMIC CHARGES
----------------------
   0 C :   -0.112501
   1 C :   -0.112502
   2 C :   -0.071888
   3 C :   -0.080176
   4 C :   -0.080178
   5 C :   -0.071888
   6 C :   -0.358020
   7 O :    0.121804
   8 N :    0.197281
   9 C :   -0.358021
  10 O :    0.121806
  11 H :    0.148682
  12 H :    0.148682
  13 H :    0.157006
  14 H :    0.157006
  15 H :    0.192907

  Mayer bond orders larger than 0.100000
B(  0-C ,  1-C ) :   1.3779 B(  0-C ,  5-C ) :   1.3753 B(  0-C , 11-H ) :   0.9669
B(  1-C ,  2-C ) :   1.3753 B(  1-C , 12-H ) :   0.9669 B(  2-C ,  3-C ) :   1.3691
B(  2-C , 13-H ) :   0.9762 B(  3-C ,  4-C ) :   1.2746 B(  3-C ,  9-C ) :   0.9208
B(  3-C , 10-O ) :  -0.1012 B(  4-C ,  5-C ) :   1.3691 B(  4-C ,  6-C ) :   0.9208
B(  4-C ,  7-O ) :  -0.1012 B(  5-C , 14-H ) :   0.9762 B(  6-C ,  7-O ) :   2.1263
B(  6-C ,  8-N ) :   1.1243 B(  8-N ,  9-C ) :   1.1243 B(  8-N , 15-H ) :   0.8926
B(  9-C , 10-O ) :   2.1263

Dispersion correction           -0.006247290
FINAL SINGLE POINT ENERGY      -513.037664898541

DIPOLE MOMENT
-------------

Method             : SCF
Type of density    : Electron Density
Multiplicity       :   1
Irrep              :   0
Energy             :  -513.0386689223339545 Eh
Relativity type    :
Basis              : AO
                                X                 Y                 Z
Electronic contribution:      5.261133155       0.000465944       0.000181780
Nuclear contribution   :     -6.391634225      -0.000567844      -0.000230113
                        -----------------------------------------
Total Dipole Moment    :     -1.130501069      -0.000101900      -0.000048333
                        -----------------------------------------
Magnitude (a.u.)       :      1.130501075
Magnitude (Debye)      :      2.873505371

VIBRATIONAL FREQUENCIES
-----------------------

Scaling factor for frequencies =  1.000000000  (already applied!)

     0:       0.00 cm**-1
     1:       0.00 cm**-1
     2:       0.00 cm**-1
     3:       0.00 cm**-1
     4:       0.00 cm**-1
     5:       0.00 cm**-1
     6:     140.14 cm**-1
     7:     152.23 cm**-1
     8:     187.68 cm**-1
     9:     246.69 cm**-1
    10:     343.38 cm**-1
    11:     412.50 cm**-1
    12:     469.69 cm**-1
    13:     535.89 cm**-1
    14:     552.24 cm**-1
    15:     562.66 cm**-1
    16:     649.95 cm**-1
    17:     668.53 cm**-1
    18:     692.07 cm**-1
    19:     722.13 cm**-1
    20:     756.89 cm**-1
    21:     803.46 cm**-1
    22:     813.88 cm**-1
    23:     825.47 cm**-1
    24:     906.39 cm**-1
    25:     966.84 cm**-1
    26:     997.18 cm**-1
    27:    1029.43 cm**-1
    28:    1030.52 cm**-1
    29:    1102.47 cm**-1
    30:    1154.94 cm**-1
    31:    1190.95 cm**-1
    32:    1192.50 cm**-1
    33:    1305.89 cm**-1
    34:    1316.12 cm**-1
    35:    1333.04 cm**-1
    36:    1399.20 cm**-1
    37:    1488.26 cm**-1
    38:    1495.32 cm**-1
    39:    1640.40 cm**-1
    40:    1641.25 cm**-1
    41:    1780.63 cm**-1
    42:    1808.92 cm**-1
    43:    3167.66 cm**-1
    44:    3179.43 cm**-1
    45:    3189.02 cm**-1
    46:    3193.02 cm**-1
    47:    3624.90 cm**-1

IR SPECTRUM
-----------

 Mode   freq       eps      Int      T**2         TX        TY        TZ
       cm**-1   L/(mol*cm) km/mol    a.u.
----------------------------------------------------------------------------
  6:    140.14   0.000000    0.00  0.000000  ( 0.000020  0.000001 -0.000004)
  7:    152.23   0.000325    1.64  0.000666  (-0.000005  0.000035  0.025802)
  8:    187.68   0.000686    3.47  0.001141  ( 0.000026 -0.000020  0.033780)
  9:    246.69   0.000031    0.16  0.000039  ( 0.000001 -0.006270 -0.000001)
 10:    343.38   0.002446   12.36  0.002223  (-0.047148 -0.000004 -0.000003)
 11:    412.50   0.000194    0.98  0.000147  ( 0.000005 -0.000009 -0.012110)
 12:    469.69   0.000000    0.00  0.000000  ( 0.000001 -0.000031  0.000006)
 13:    535.89   0.002057   10.39  0.001198  ( 0.000003 -0.034607 -0.000005)
 14:    552.24   0.001228    6.21  0.000694  (-0.026347 -0.000003 -0.000005)
 15:    562.66   0.018966   95.85  0.010519  ( 0.000018  0.000008 -0.102563)
 16:    649.95   0.002537   12.82  0.001218  ( 0.034902  0.000003 -0.000000)
 17:    668.53   0.000280    1.42  0.000131  ( 0.000001  0.011439 -0.000001)
 18:    692.07   0.000000    0.00  0.000000  (-0.000024  0.000010 -0.000008)
 19:    722.13   0.014475   73.15  0.006255  ( 0.000002 -0.000036 -0.079090)
 20:    756.89   0.000536    2.71  0.000221  (-0.014864 -0.000001  0.000002)
 21:    803.46   0.001652    8.35  0.000641  (-0.000009 -0.000003 -0.025327)
 22:    813.88   0.000149    0.76  0.000057  ( 0.000000 -0.007570 -0.000006)
 23:    825.47   0.000000    0.00  0.000000  (-0.000004  0.000023 -0.000008)
 24:    906.39   0.000000    0.00  0.000000  ( 0.000004  0.000015 -0.000003)
 25:    966.84   0.000205    1.04  0.000066  (-0.000002  0.000004  0.008141)
 26:    997.18   0.000000    0.00  0.000000  ( 0.000004 -0.000002  0.000001)
 27:   1029.43   0.000505    2.55  0.000153  ( 0.012375  0.000011  0.000001)
 28:   1030.52   0.020378  102.98  0.006171  ( 0.000009 -0.078555 -0.000005)
 29:   1102.47   0.001513    7.65  0.000428  (-0.000002  0.020696  0.000002)
 30:   1154.94   0.000089    0.45  0.000024  (-0.004913 -0.000000 -0.000001)
 31:   1190.95   0.000082    0.41  0.000021  ( 0.004628  0.000014 -0.000000)
 32:   1192.50   0.001835    9.27  0.000480  (-0.000005  0.021914  0.000001)
 33:   1305.89   0.000000    0.00  0.000000  (-0.000009  0.000286 -0.000000)
 34:   1316.12   0.044069  222.71  0.010449  ( 0.102221  0.000014  0.000002)
 35:   1333.04   0.003378   17.07  0.000791  (-0.000014  0.028119  0.000003)
 36:   1399.20   0.007980   40.33  0.001780  ( 0.042188  0.000004  0.000001)
 37:   1488.26   0.000198    1.00  0.000042  (-0.006450 -0.000001 -0.000000)
 38:   1495.32   0.000989    5.00  0.000206  (-0.000001  0.014364  0.000001)
 39:   1640.40   0.000477    2.41  0.000091  (-0.009526 -0.000030 -0.000000)
 40:   1641.25   0.004130   20.87  0.000785  ( 0.000013 -0.028022 -0.000002)
 41:   1780.63   0.138850  701.69  0.024334  (-0.000017  0.155994  0.000011)
 42:   1808.92   0.024720  124.93  0.004265  (-0.065304 -0.000013 -0.000004)
 43:   3167.66   0.000267    1.35  0.000026  ( 0.000002 -0.005131 -0.000000)
 44:   3179.43   0.000868    4.39  0.000085  (-0.009229 -0.000002 -0.000001)
 45:   3189.02   0.000629    3.18  0.000062  ( 0.000005 -0.007845 -0.000000)
 46:   3193.02   0.001785    9.02  0.000174  (-0.013208 -0.000004 -0.000000)
 47:   3624.90   0.019193   97.00  0.001652  ( 0.040649  0.000003  0.000003)

--------------------------
THERMOCHEMISTRY AT 298.15K
--------------------------

Temperature         ...   298.15 K
Pressure            ...     1.00 atm
Total Mass          ...   147.13 AMU
Quasi RRHO          ...     True
Cut-Off Frequency   ...     1.00 cm^-1

Throughout the following assumptions are being made:
  (1) The electronic state is orbitally nondegenerate
  (2) There are no thermally accessible electronically excited states
  (3) Hindered rotations indicated by low frequency modes are not
      treated as such but are treated as vibrations and this may
      cause some error
  (4) All equations used are the standard statistical mechanics
      equations for an ideal gas
  (5) All vibrations are strictly harmonic

freq.     140.14  E(vib)   ...       0.41
freq.     152.23  E(vib)   ...       0.40
freq.     187.68  E(vib)   ...       0.36
freq.     246.69  E(vib)   ...       0.31
freq.     343.38  E(vib)   ...       0.23
freq.     412.50  E(vib)   ...       0.19
freq.     469.69  E(vib)   ...       0.16
freq.     535.89  E(vib)   ...       0.12
freq.     552.24  E(vib)   ...       0.12
freq.     562.66  E(vib)   ...       0.11
freq.     649.95  E(vib)   ...       0.08
freq.     668.53  E(vib)   ...       0.08
freq.     692.07  E(vib)   ...       0.07
freq.     722.13  E(vib)   ...       0.07
freq.     756.89  E(vib)   ...       0.06
freq.     803.46  E(vib)   ...       0.05
freq.     813.88  E(vib)   ...       0.05
freq.     825.47  E(vib)   ...       0.04
freq.     906.39  E(vib)   ...       0.03
freq.     966.84  E(vib)   ...       0.03
freq.     997.18  E(vib)   ...       0.02
freq.    1029.43  E(vib)   ...       0.02
freq.    1030.52  E(vib)   ...       0.02
freq.    1102.47  E(vib)   ...       0.02
freq.    1154.94  E(vib)   ...       0.01
freq.    1190.95  E(vib)   ...       0.01
freq.    1192.50  E(vib)   ...       0.01
freq.    1305.89  E(vib)   ...       0.01
freq.    1316.12  E(vib)   ...       0.01
freq.    1333.04  E(vib)   ...       0.01
freq.    1399.20  E(vib)   ...       0.00
freq.    1488.26  E(vib)   ...       0.00
freq.    1495.32  E(vib)   ...       0.00
freq.    1640.40  E(vib)   ...       0.00
freq.    1641.25  E(vib)   ...       0.00
freq.    1780.63  E(vib)   ...       0.00
freq.    1808.92  E(vib)   ...       0.00
freq.    3167.66  E(vib)   ...       0.00
freq.    3179.43  E(vib)   ...       0.00
freq.    3189.02  E(vib)   ...       0.00
freq.    3193.02  E(vib)   ...       0.00
freq.    3624.90  E(vib)   ...       0.00

------------
INNER ENERGY
------------

The inner energy is: U= E(el) + E(ZPE) + E(vib) + E(rot) + E(trans)
    E(el)   - is the total energy from the electronic structure calculation
              = E(kin-el) + E(nuc-el) + E(el-el) + E(nuc-nuc)
    E(ZPE)  - the the zero temperature vibrational energy from the frequency calculation
    E(vib)  - the the finite temperature correction to E(ZPE) due to population
              of excited vibrational states
    E(rot)  - is the rotational thermal energy
    E(trans)- is the translational thermal energy

Summary of contributions to the inner energy U:
Electronic energy                ...   -513.03766490 Eh
Zero point energy                ...      0.11543418 Eh      72.44 kcal/mol
Thermal vibrational correction   ...      0.00498365 Eh       3.13 kcal/mol
Thermal rotational correction    ...      0.00141627 Eh       0.89 kcal/mol
Thermal translational correction ...      0.00141627 Eh       0.89 kcal/mol
-----------------------------------------------------------------------
Total thermal energy                   -512.91441452 Eh

Summary of corrections to the electronic energy:
(perhaps to be used in another calculation)
Total thermal correction                  0.00781619 Eh       4.90 kcal/mol
Non-thermal (ZPE) correction              0.11543418 Eh      72.44 kcal/mol
-----------------------------------------------------------------------
Total correction                          0.12325037 Eh      77.34 kcal/mol

--------
ENTHALPY
--------

The enthalpy is H = U + kB*T
                kB is Boltzmann's constant
Total thermal energy              ...   -512.91441452 Eh
Thermal Enthalpy correction       ...      0.00094421 Eh       0.59 kcal/mol
-----------------------------------------------------------------------
Total Enthalpy                    ...   -512.91347032 Eh

Note: Rotational entropy computed according to Herzberg
Infrared and Raman Spectra, Chapter V,1, Van Nostrand Reinhold, 1945
Point Group:  C2v, Symmetry Number:   2
Rotational constants in cm-1:     0.058066     0.040149     0.023736

Vibrational entropy computed according to the QRRHO of S. Grimme
Chem.Eur.J. 2012 18 9955 using a reference frequency of 100.0 cm-1

-------
ENTROPY
-------

The entropy contributions are T*S = T*(S(el)+S(vib)+S(rot)+S(trans))
     S(el)   - electronic entropy
     S(vib)  - vibrational entropy
     S(rot)  - rotational entropy
     S(trans)- translational entropy
The entropies will be listed as multiplied by the temperature to get
units of energy

Electronic entropy                ...      0.00000000 Eh      0.00 kcal/mol
Vibrational entropy               ...      0.00800385 Eh      5.02 kcal/mol
Rotational entropy                ...      0.01348383 Eh      8.46 kcal/mol
Translational entropy             ...      0.01941816 Eh     12.19 kcal/mol
-----------------------------------------------------------------------
Final entropy term                ...      0.04090583 Eh     25.67 kcal/mol

In case the symmetry of your molecule has not been determined correctly
or in case you have a reason to use a different symmetry number we print
out the resulting rotational entropy values for sn=1,12:

 non-linear molecules -----------------------------------
|  sn= 1 | S(rot)=       0.01413828 Eh      8.87 kcal/mol|
|  sn= 2 | S(rot)=       0.01348383 Eh      8.46 kcal/mol|
|  sn= 3 | S(rot)=       0.01310099 Eh      8.22 kcal/mol|
|  sn= 4 | S(rot)=       0.01282937 Eh      8.05 kcal/mol|
|  sn= 5 | S(rot)=       0.01261868 Eh      7.92 kcal/mol|
|  sn= 6 | S(rot)=       0.01244654 Eh      7.81 kcal/mol|
|  sn= 7 | S(rot)=       0.01230099 Eh      7.72 kcal/mol|
|  sn= 8 | S(rot)=       0.01217491 Eh      7.64 kcal/mol|
|  sn= 9 | S(rot)=       0.01206370 Eh      7.57 kcal/mol|
|  sn=10 | S(rot)=       0.01196422 Eh      7.51 kcal/mol|
|  sn=11 | S(rot)=       0.01187423 Eh      7.45 kcal/mol|
|  sn=12 | S(rot)=       0.01179208 Eh      7.40 kcal/mol|
 linear molecules ---------------------------------------
|  Dinfh | S(rot)=       0.00885774 Eh      5.56 kcal/mol|
|  Cinfv | S(rot)=       0.00951220 Eh      5.97 kcal/mol|
 --------------------------------------------------------

-------------------
GIBBS FREE ENERGY
-------------------

The Gibbs free energy is G = H - T*S

                             ****ORCA TERMINATED NORMALLY****
TOTAL RUN TIME: 0 days 0 hours 14 minutes 20 seconds 95 msec
