                         Program Version 6.0.0  -   RELEASE  -
|  1> ! r2SCAN-3c DEF2-TZVP FREQ
|  2> * xyzfile 0 1 censo.xyz
|  3>
|  4>                          ****END OF INPUT****

CARTESIAN COORDINATES (ANGSTROEM)
---------------------------------
  C     -1.868407   -0.000001    0.001125
  C     -1.158690   -1.200607   -0.000312
  C      0.231235   -1.207400   -0.006219
  C      0.948183    0.000002   -0.012721
  C      0.231232    1.207403   -0.006221
  C     -1.158693    1.200607   -0.000315
  N      2.336200    0.000004   -0.085920
  H     -2.953183   -0.000002    0.006425
  H     -1.692425   -2.146543    0.006086
  H      0.774613   -2.148593   -0.006039
  H      0.774609    2.148597   -0.006043
  H     -1.692429    2.146543    0.006080
  H      2.775169   -0.838252    0.267998
  H      2.775167    0.838263    0.267992

 Total Charge           Charge          ....    0
 Multiplicity           Mult            ....    1
 Number of Electrons    NEL             ....   50
 Basis Dimension        Dim             ....  259

ORBITAL ENERGIES
----------------

  NO   OCC          E(Eh)            E(eV)
   0   2.0000     -14.169646      -385.5757
   1   2.0000     -10.072726      -274.0928
   2   2.0000     -10.031664      -272.9755
   3   2.0000     -10.031663      -272.9754
   4   2.0000     -10.026911      -272.8461
   5   2.0000     -10.026902      -272.8459
   6   2.0000     -10.021837      -272.7081
   7   2.0000      -0.888350       -24.1732
   8   2.0000      -0.799506       -21.7557
   9   2.0000      -0.708021       -19.2662
  10   2.0000      -0.689366       -18.7586
  11   2.0000      -0.576856       -15.6971
  12   2.0000      -0.563496       -15.3335
  13   2.0000      -0.490147       -13.3376
  14   2.0000      -0.477074       -12.9818
  15   2.0000      -0.444563       -12.0972
  16   2.0000      -0.397092       -10.8054
  17   2.0000      -0.392548       -10.6818
  18   2.0000      -0.382663       -10.4128
  19   2.0000      -0.356336        -9.6964
  20   2.0000      -0.323294        -8.7973
  21   2.0000      -0.305607        -8.3160
  22   2.0000      -0.287035        -7.8106
  23   2.0000      -0.230841        -6.2815
  24   2.0000      -0.186937        -5.0868
  25   0.0000      -0.028872        -0.7856
  26   0.0000      -0.012273        -0.3340
  27   0.0000       0.042279         1.1505
  28   0.0000       0.065942         1.7944
  29   0.0000       0.081461         2.2167

MULLIKEN ATOMIC CHARGES
-----------------------
   0 C :   -0.180119
   1 C :   -0.055905
   2 C :   -0.281961
   3 C :    0.352581
   4 C :   -0.281972
   5 C :   -0.055903
   6 N :   -0.440857
   7 H :    0.102084
   8 H :    0.104086
   9 H :    0.087983
  10 H :    0.087988
  11 H :    0.104085
  12 H :    0.228955
  13 H :    0.228955
Sum of atomic charges:    0.0000000

LOEWDIN ATOMIC CHARGES
----------------------
   0 C :   -0.169037
   1 C :   -0.145566
   2 C :   -0.140075
   3 C :   -0.248029
   4 C :   -0.140074
   5 C :   -0.145566
   6 N :   -0.042632
   7 H :    0.139432
   8 H :    0.142402
   9 H :    0.139758
  10 H :    0.139758
  11 H :    0.142402
  12 H :    0.163613
  13 H :    0.163613

  Mayer bond orders larger than 0.100000
B(  0-C ,  1-C ) :   1.3887 B(  0-C ,  5-C ) :   1.3887 B(  0-C ,  7-H ) :   0.9760
B(  1-C ,  2-C ) :   1.4430 B(  1-C ,  8-H ) :   0.9677 B(  2-C ,  3-C ) :   1.3311
B(  2-C ,  9-H ) :   0.9782 B(  3-C ,  4-C ) :   1.3311 B(  3-C ,  6-N ) :   1.0611
B(  4-C ,  5-C ) :   1.4430 B(  4-C , 10-H ) :   0.9782 B(  5-C , 11-H ) :   0.9677
B(  6-N , 12-H ) :   0.9208 B(  6-N , 13-H ) :   0.9208

Dispersion correction           -0.004157232
FINAL SINGLE POINT ENERGY      -287.549877186302

DIPOLE MOMENT
-------------

Method             : SCF
Type of density    : Electron Density
Multiplicity       :   1
Irrep              :   0
Energy             :  -287.5511927167397062 Eh
Relativity type    :
Basis              : AO
                                X                 Y                 Z
Electronic contribution:     -0.141842547      -0.000000979      -0.191580048
Nuclear contribution   :      0.716115276       0.000002759       0.575737710
                        -----------------------------------------
Total Dipole Moment    :      0.574272729       0.000001781       0.384157663
                        -----------------------------------------
Magnitude (a.u.)       :      0.690916983
Magnitude (Debye)      :      1.756171405

VIBRATIONAL FREQUENCIES
-----------------------

Scaling factor for frequencies =  1.000000000  (already applied!)

     0:       0.00 cm**-1
     1:       0.00 cm**-1
     2:       0.00 cm**-1
     3:       0.00 cm**-1
     4:       0.00 cm**-1
     5:       0.00 cm**-1
     6:     220.95 cm**-1
     7:     366.66 cm**-1
     8:     395.58 cm**-1
     9:     417.03 cm**-1
    10:     502.62 cm**-1
    11:     540.51 cm**-1
    12:     628.43 cm**-1
    13:     637.83 cm**-1
    14:     699.65 cm**-1
    15:     757.30 cm**-1
    16:     815.51 cm**-1
    17:     834.56 cm**-1
    18:     870.82 cm**-1
    19:     936.06 cm**-1
    20:     952.77 cm**-1
    21:    1015.68 cm**-1
    22:    1045.24 cm**-1
    23:    1071.86 cm**-1
    24:    1141.47 cm**-1
    25:    1176.93 cm**-1
    26:    1199.38 cm**-1
    27:    1310.65 cm**-1
    28:    1354.35 cm**-1
    29:    1365.07 cm**-1
    30:    1497.78 cm**-1
    31:    1525.42 cm**-1
    32:    1614.50 cm**-1
    33:    1637.35 cm**-1
    34:    1663.33 cm**-1
    35:    3145.21 cm**-1
    36:    3145.99 cm**-1
    37:    3160.47 cm**-1
    38:    3165.09 cm**-1
    39:    3182.29 cm**-1
    40:    3528.01 cm**-1
    41:    3634.01 cm**-1

IR SPECTRUM
-----------

 Mode   freq       eps      Int      T**2         TX        TY        TZ
       cm**-1   L/(mol*cm) km/mol    a.u.
----------------------------------------------------------------------------
  6:    220.95   0.000990    5.00  0.001398  ( 0.019109 -0.000000 -0.032143)
  7:    366.66   0.003818   19.29  0.003249  (-0.000000  0.057004 -0.000000)
  8:    395.58   0.000027    0.14  0.000021  (-0.000000 -0.004600  0.000000)
  9:    417.03   0.000096    0.49  0.000072  (-0.000000 -0.008489 -0.000000)
 10:    502.62   0.009999   50.53  0.006208  ( 0.034780 -0.000000 -0.070700)
 11:    540.51   0.000833    4.21  0.000481  (-0.019856  0.000000  0.009319)
 12:    628.43   0.053944  272.61  0.026787  ( 0.142902 -0.000000 -0.079789)
 13:    637.83   0.000076    0.38  0.000037  (-0.000000  0.006102  0.000000)
 14:    699.65   0.006168   31.17  0.002751  (-0.002097 -0.000000 -0.052410)
 15:    757.30   0.013446   67.95  0.005541  (-0.021433  0.000000  0.071283)
 16:    815.51   0.000027    0.14  0.000010  ( 0.000000  0.003238 -0.000000)
 17:    834.56   0.000342    1.73  0.000128  (-0.008343 -0.000000 -0.007624)
 18:    870.82   0.002241   11.32  0.000803  ( 0.008763 -0.000000 -0.026947)
 19:    936.06   0.000000    0.00  0.000000  ( 0.000000  0.000101  0.000000)
 20:    952.77   0.000011    0.06  0.000004  ( 0.001057 -0.000000 -0.001619)
 21:   1015.68   0.000608    3.07  0.000187  (-0.013240 -0.000000 -0.003411)
 22:   1045.24   0.000520    2.63  0.000155  (-0.012448 -0.000000  0.000449)
 23:   1071.86   0.000866    4.38  0.000252  ( 0.000000 -0.015877 -0.000000)
 24:   1141.47   0.000634    3.20  0.000173  ( 0.000000  0.013164 -0.000000)
 25:   1176.93   0.000415    2.10  0.000110  ( 0.000000  0.010496  0.000000)
 26:   1199.38   0.002036   10.29  0.000530  (-0.023007  0.000000 -0.000620)
 27:   1310.65   0.010997   55.58  0.002618  (-0.051171 -0.000000  0.000070)
 28:   1354.35   0.001477    7.47  0.000340  ( 0.000000  0.018449 -0.000000)
 29:   1365.07   0.000087    0.44  0.000020  ( 0.000000 -0.004471  0.000000)
 30:   1497.78   0.000315    1.59  0.000066  (-0.000000 -0.008097 -0.000000)
 31:   1525.42   0.011744   59.35  0.002403  ( 0.049001 -0.000000 -0.001221)
 32:   1614.50   0.001018    5.15  0.000197  ( 0.000000 -0.014028  0.000000)
 33:   1637.35   0.010519   53.16  0.002005  ( 0.044317  0.000000 -0.006391)
 34:   1663.33   0.022907  115.76  0.004298  (-0.063033 -0.000000 -0.018016)
 35:   3145.21   0.003256   16.46  0.000323  (-0.017975  0.000001 -0.000013)
 36:   3145.99   0.000541    2.73  0.000054  (-0.000004 -0.007325 -0.000000)
 37:   3160.47   0.000956    4.83  0.000094  ( 0.009715 -0.000002  0.000016)
 38:   3165.09   0.007056   35.66  0.000696  ( 0.000001  0.026376 -0.000000)
 39:   3182.29   0.002068   10.45  0.000203  (-0.014240  0.000000  0.000035)
 40:   3528.01   0.002833   14.31  0.000251  (-0.014790  0.000000 -0.005641)
 41:   3634.01   0.002678   13.53  0.000230  ( 0.000000  0.015166 -0.000000)

--------------------------
THERMOCHEMISTRY AT 298.15K
--------------------------

Temperature         ...   298.15 K
Pressure            ...     1.00 atm
Total Mass          ...    93.13 AMU
Quasi RRHO          ...     True
Cut-Off Frequency   ...     1.00 cm^-1

Throughout the following assumptions are being made:
  (1) The electronic state is orbitally nondegenerate
  (2) There are no thermally accessible electronically excited states
  (3) Hindered rotations indicated by low frequency modes are not
      treated as such but are treated as vibrations and this may
      cause some error
  (4) All equations used are the standard statistical mechanics
      equations for an ideal gas
  (5) All vibrations are strictly harmonic

freq.     220.95  E(vib)   ...       0.33
freq.     366.66  E(vib)   ...       0.22
freq.     395.58  E(vib)   ...       0.20
freq.     417.03  E(vib)   ...       0.18
freq.     502.62  E(vib)   ...       0.14
freq.     540.51  E(vib)   ...       0.12
freq.     628.43  E(vib)   ...       0.09
freq.     637.83  E(vib)   ...       0.09
freq.     699.65  E(vib)   ...       0.07
freq.     757.30  E(vib)   ...       0.06
freq.     815.51  E(vib)   ...       0.05
freq.     834.56  E(vib)   ...       0.04
freq.     870.82  E(vib)   ...       0.04
freq.     936.06  E(vib)   ...       0.03
freq.     952.77  E(vib)   ...       0.03
freq.    1015.68  E(vib)   ...       0.02
freq.    1045.24  E(vib)   ...       0.02
freq.    1071.86  E(vib)   ...       0.02
freq.    1141.47  E(vib)   ...       0.01
freq.    1176.93  E(vib)   ...       0.01
freq.    1199.38  E(vib)   ...       0.01
freq.    1310.65  E(vib)   ...       0.01
freq.    1354.35  E(vib)   ...       0.01
freq.    1365.07  E(vib)   ...       0.01
freq.    1497.78  E(vib)   ...       0.00
freq.    1525.42  E(vib)   ...       0.00
freq.    1614.50  E(vib)   ...       0.00
freq.    1637.35  E(vib)   ...       0.00
freq.    1663.33  E(vib)   ...       0.00
freq.    3145.21  E(vib)   ...       0.00
freq.    3145.99  E(vib)   ...       0.00
freq.    3160.47  E(vib)   ...       0.00
freq.    3165.09  E(vib)   ...       0.00
freq.    3182.29  E(vib)   ...       0.00
freq.    3528.01  E(vib)   ...       0.00
freq.    3634.01  E(vib)   ...       0.00

------------
INNER ENERGY
------------

The inner energy is: U= E(el) + E(ZPE) + E(vib) + E(rot) + E(trans)
    E(el)   - is the total energy from the electronic structure calculation
              = E(kin-el) + E(nuc-el) + E(el-el) + E(nuc-nuc)
    E(ZPE)  - the the zero temperature vibrational energy from the frequency calculation
    E(vib)  - the the finite temperature correction to E(ZPE) due to population
              of excited vibrational states
    E(rot)  - is the rotational thermal energy
    E(trans)- is the translational thermal energy

Summary of contributions to the inner energy U:
Electronic energy                ...   -287.54987719 Eh
Zero point energy                ...      0.11654277 Eh      73.13 kcal/mol
Thermal vibrational correction   ...      0.00287690 Eh       1.81 kcal/mol
Thermal rotational correction    ...      0.00141627 Eh       0.89 kcal/mol
Thermal translational correction ...      0.00141627 Eh       0.89 kcal/mol
-----------------------------------------------------------------------
Total thermal energy                   -287.42762497 Eh

Summary of corrections to the electronic energy:
(perhaps to be used in another calculation)
Total thermal correction                  0.00570944 Eh       3.58 kcal/mol
Non-thermal (ZPE) correction              0.11654277 Eh      73.13 kcal/mol
-----------------------------------------------------------------------
Total correction                          0.12225221 Eh      76.71 kcal/mol

--------
ENTHALPY
--------

The enthalpy is H = U + kB*T
                kB is Boltzmann's constant
Total thermal energy              ...   -287.42762497 Eh
Thermal Enthalpy correction       ...      0.00094421 Eh       0.59 kcal/mol
-----------------------------------------------------------------------
Total Enthalpy                    ...   -287.42668076 Eh

Note: Rotational entropy computed according to Herzberg
Infrared and Raman Spectra, Chapter V,1, Van Nostrand Reinhold, 1945
Point Group:  Cs, Symmetry Number:   1
Rotational constants in cm-1:     0.187541     0.086781     0.059424

Vibrational entropy computed according to the QRRHO of S. Grimme
Chem.Eur.J. 2012 18 9955 using a reference frequency of 100.0 cm-1

-------
ENTROPY
-------

The entropy contributions are T*S = T*(S(el)+S(vib)+S(rot)+S(trans))
     S(el)   - electronic entropy
     S(vib)  - vibrational entropy
     S(rot)  - rotational entropy
     S(trans)- translational entropy
The entropies will be listed as multiplied by the temperature to get
units of energy

Electronic entropy                ...      0.00000000 Eh      0.00 kcal/mol
Vibrational entropy               ...      0.00415906 Eh      2.61 kcal/mol
Rotational entropy                ...      0.01278767 Eh      8.02 kcal/mol
Translational entropy             ...      0.01877043 Eh     11.78 kcal/mol
-----------------------------------------------------------------------
Final entropy term                ...      0.03571716 Eh     22.41 kcal/mol

In case the symmetry of your molecule has not been determined correctly
or in case you have a reason to use a different symmetry number we print
out the resulting rotational entropy values for sn=1,12:

 non-linear molecules -----------------------------------
|  sn= 1 | S(rot)=       0.01278767 Eh      8.02 kcal/mol|
|  sn= 2 | S(rot)=       0.01213322 Eh      7.61 kcal/mol|
|  sn= 3 | S(rot)=       0.01175039 Eh      7.37 kcal/mol|
|  sn= 4 | S(rot)=       0.01147876 Eh      7.20 kcal/mol|
|  sn= 5 | S(rot)=       0.01126807 Eh      7.07 kcal/mol|
|  sn= 6 | S(rot)=       0.01109593 Eh      6.96 kcal/mol|
|  sn= 7 | S(rot)=       0.01095038 Eh      6.87 kcal/mol|
|  sn= 8 | S(rot)=       0.01082431 Eh      6.79 kcal/mol|
|  sn= 9 | S(rot)=       0.01071310 Eh      6.72 kcal/mol|
|  sn=10 | S(rot)=       0.01061362 Eh      6.66 kcal/mol|
|  sn=11 | S(rot)=       0.01052363 Eh      6.60 kcal/mol|
|  sn=12 | S(rot)=       0.01044147 Eh      6.55 kcal/mol|
 linear molecules ---------------------------------------
|  Dinfh | S(rot)=       0.00799128 Eh      5.01 kcal/mol|
|  Cinfv | S(rot)=       0.00864574 Eh      5.43 kcal/mol|
 --------------------------------------------------------

-------------------
GIBBS FREE ENERGY
-------------------

The Gibbs free energy is G = H - T*S

Total enthalpy                    ...   -287.42668076 Eh
Total entropy correction          ...     -0.03571716 Eh    -22.41 kcal/mol
-----------------------------------------------------------------------
Final Gibbs free energy         ...   -287.46239793 Eh

                             ****ORCA TERMINATED NORMALLY****
TOTAL RUN TIME: 0 days 0 hours 7 minutes 47 seconds 395 msec
