                         Program Version 6.0.0  -   RELEASE  -
|  1> ! r2SCAN-3c DEF2-TZVP FREQ
|  2> * xyzfile 0 1 vacuum_censo.xyz
|  3>
|  4>                          ****END OF INPUT****

CARTESIAN COORDINATES (ANGSTROEM)
---------------------------------
  C     -1.865596    0.000031   -0.004158
  C     -1.157782   -1.199089   -0.000603
  C      0.230952   -1.205419    0.005769
  C      0.945582    0.000003    0.008555
  C      0.230978    1.205441    0.005659
  C     -1.157756    1.199136   -0.000717
  N      2.339399   -0.000008    0.078729
  H     -2.949804    0.000045   -0.009949
  H     -1.691418   -2.144576   -0.003848
  H      0.770758   -2.148612    0.014891
  H      0.770802    2.148625    0.014703
  H     -1.691377    2.144632   -0.004052
  H      2.778911    0.833319   -0.281062
  H      2.778877   -0.833449   -0.280845

 Total Charge           Charge          ....    0
 Multiplicity           Mult            ....    1
 Number of Electrons    NEL             ....   50
 Basis Dimension        Dim             ....  259

ORBITAL ENERGIES
----------------

  NO   OCC          E(Eh)            E(eV)
   0   2.0000     -14.168687      -385.5496
   1   2.0000     -10.072562      -274.0884
   2   2.0000     -10.031313      -272.9659
   3   2.0000     -10.031311      -272.9659
   4   2.0000     -10.026721      -272.8410
   5   2.0000     -10.026712      -272.8407
   6   2.0000     -10.021538      -272.6999
   7   2.0000      -0.886961       -24.1354
   8   2.0000      -0.800622       -21.7860
   9   2.0000      -0.708630       -19.2828
  10   2.0000      -0.690358       -18.7856
  11   2.0000      -0.576861       -15.6972
  12   2.0000      -0.563809       -15.3420
  13   2.0000      -0.490635       -13.3509
  14   2.0000      -0.475985       -12.9522
  15   2.0000      -0.443940       -12.0802
  16   2.0000      -0.397525       -10.8172
  17   2.0000      -0.393289       -10.7019
  18   2.0000      -0.382854       -10.4180
  19   2.0000      -0.356347        -9.6967
  20   2.0000      -0.323192        -8.7945
  21   2.0000      -0.306120        -8.3299
  22   2.0000      -0.286760        -7.8031
  23   2.0000      -0.231221        -6.2918
  24   2.0000      -0.187590        -5.1046
  25   0.0000      -0.028810        -0.7840
  26   0.0000      -0.012230        -0.3328
  27   0.0000       0.043068         1.1719
  28   0.0000       0.065498         1.7823
  29   0.0000       0.082237         2.2378

MULLIKEN ATOMIC CHARGES
-----------------------
   0 C :   -0.179336
   1 C :   -0.055222
   2 C :   -0.282797
   3 C :    0.354476
   4 C :   -0.282785
   5 C :   -0.055233
   6 N :   -0.442644
   7 H :    0.101785
   8 H :    0.104060
   9 H :    0.088774
  10 H :    0.088785
  11 H :    0.104058
  12 H :    0.228042
  13 H :    0.228038
Sum of atomic charges:    0.0000000

LOEWDIN ATOMIC CHARGES
----------------------
   0 C :   -0.168729
   1 C :   -0.145412
   2 C :   -0.139544
   3 C :   -0.245381
   4 C :   -0.139542
   5 C :   -0.145412
   6 N :   -0.045290
   7 H :    0.139612
   8 H :    0.142527
   9 H :    0.140292
  10 H :    0.140293
  11 H :    0.142528
  12 H :    0.162030
  13 H :    0.162030

  Mayer bond orders larger than 0.100000
B(  0-C ,  1-C ) :   1.3900 B(  0-C ,  5-C ) :   1.3900 B(  0-C ,  7-H ) :   0.9761
B(  1-C ,  2-C ) :   1.4423 B(  1-C ,  8-H ) :   0.9678 B(  2-C ,  3-C ) :   1.3344
B(  2-C ,  9-H ) :   0.9782 B(  3-C ,  4-C ) :   1.3345 B(  3-C ,  6-N ) :   1.0538
B(  4-C ,  5-C ) :   1.4423 B(  4-C , 10-H ) :   0.9782 B(  5-C , 11-H ) :   0.9678
B(  6-N , 12-H ) :   0.9219 B(  6-N , 13-H ) :   0.9219

Dispersion correction           -0.004158316
FINAL SINGLE POINT ENERGY      -287.549940779921

DIPOLE MOMENT
-------------

Method             : SCF
Type of density    : Electron Density
Multiplicity       :   1
Irrep              :   0
Energy             :  -287.5512494227584739 Eh
Relativity type    :
Basis              : AO
                                X                 Y                 Z
Electronic contribution:     -0.161998859       0.000039556       0.180954019
Nuclear contribution   :      0.716216245      -0.000094310      -0.566702320
                        -----------------------------------------
Total Dipole Moment    :      0.554217386      -0.000054754      -0.385748301
                        -----------------------------------------
Magnitude (a.u.)       :      0.675247115
Magnitude (Debye)      :      1.716341765

VIBRATIONAL FREQUENCIES
-----------------------

Scaling factor for frequencies =  1.000000000  (already applied!)

     0:       0.00 cm**-1
     1:       0.00 cm**-1
     2:       0.00 cm**-1
     3:       0.00 cm**-1
     4:       0.00 cm**-1
     5:       0.00 cm**-1
     6:     221.31 cm**-1
     7:     323.10 cm**-1
     8:     390.90 cm**-1
     9:     413.97 cm**-1
    10:     501.88 cm**-1
    11:     539.74 cm**-1
    12:     622.24 cm**-1
    13:     638.23 cm**-1
    14:     698.71 cm**-1
    15:     756.13 cm**-1
    16:     816.55 cm**-1
    17:     834.39 cm**-1
    18:     872.08 cm**-1
    19:     936.16 cm**-1
    20:     952.90 cm**-1
    21:    1018.39 cm**-1
    22:    1048.73 cm**-1
    23:    1070.17 cm**-1
    24:    1139.00 cm**-1
    25:    1178.53 cm**-1
    26:    1200.96 cm**-1
    27:    1300.67 cm**-1
    28:    1362.25 cm**-1
    29:    1365.90 cm**-1
    30:    1499.59 cm**-1
    31:    1527.31 cm**-1
    32:    1623.18 cm**-1
    33:    1641.57 cm**-1
    34:    1661.59 cm**-1
    35:    3146.63 cm**-1
    36:    3146.83 cm**-1
    37:    3163.42 cm**-1
    38:    3168.40 cm**-1
    39:    3186.74 cm**-1
    40:    3550.29 cm**-1
    41:    3653.15 cm**-1

IR SPECTRUM
-----------

 Mode   freq       eps      Int      T**2         TX        TY        TZ
       cm**-1   L/(mol*cm) km/mol    a.u.
----------------------------------------------------------------------------
  6:    221.31   0.000974    4.92  0.001374  (-0.019463 -0.000002 -0.031546)
  7:    323.10   0.004069   20.56  0.003930  (-0.000027 -0.062690 -0.000003)
  8:    390.90   0.000029    0.14  0.000023  ( 0.000002 -0.004786  0.000001)
  9:    413.97   0.000040    0.20  0.000030  ( 0.000001  0.005504  0.000000)
 10:    501.88   0.010697   54.06  0.006652  (-0.038450 -0.000004 -0.071924)
 11:    539.74   0.001129    5.71  0.000653  ( 0.023073  0.000000  0.010977)
 12:    622.24   0.053226  268.98  0.026694  ( 0.143318  0.000006  0.078446)
 13:    638.23   0.000073    0.37  0.000036  ( 0.000005  0.005969  0.000003)
 14:    698.71   0.006321   31.94  0.002823  (-0.001986  0.000002  0.053097)
 15:    756.13   0.012922   65.30  0.005333  (-0.020694 -0.000004 -0.070036)
 16:    816.55   0.000011    0.05  0.000004  ( 0.000001 -0.002015  0.000002)
 17:    834.39   0.000430    2.17  0.000161  ( 0.009303 -0.000002 -0.008616)
 18:    872.08   0.002198   11.11  0.000787  (-0.007985 -0.000000 -0.026885)
 19:    936.16   0.000001    0.01  0.000000  ( 0.000000  0.000615  0.000000)
 20:    952.90   0.000014    0.07  0.000005  ( 0.000967 -0.000001  0.001909)
 21:   1018.39   0.000507    2.56  0.000155  ( 0.012030 -0.000000 -0.003268)
 22:   1048.73   0.000600    3.03  0.000178  (-0.013353  0.000001 -0.000379)
 23:   1070.17   0.000793    4.01  0.000231  ( 0.000001  0.015204 -0.000001)
 24:   1139.00   0.000689    3.48  0.000189  ( 0.000000 -0.013739  0.000000)
 25:   1178.53   0.000360    1.82  0.000095  ( 0.000000 -0.009766  0.000000)
 26:   1200.96   0.001981   10.01  0.000515  ( 0.022680 -0.000000 -0.000569)
 27:   1300.67   0.011530   58.27  0.002766  (-0.052594  0.000001  0.000493)
 28:   1362.25   0.000810    4.10  0.000186  (-0.000000 -0.013626  0.000001)
 29:   1365.90   0.000663    3.35  0.000152  (-0.000000  0.012310 -0.000001)
 30:   1499.59   0.000310    1.56  0.000064  ( 0.000001 -0.008027  0.000001)
 31:   1527.31   0.011775   59.51  0.002406  ( 0.049042 -0.000000  0.000878)
 32:   1623.18   0.001005    5.08  0.000193  (-0.000002  0.013903  0.000001)
 33:   1641.57   0.008761   44.27  0.001665  (-0.040187 -0.000000 -0.007098)
 34:   1661.59   0.022774  115.09  0.004277  (-0.062811  0.000003  0.018216)
 35:   3146.63   0.003488   17.63  0.000346  (-0.018598  0.000028  0.000017)
 36:   3146.83   0.000838    4.23  0.000083  (-0.000050 -0.009114  0.000000)
 37:   3163.42   0.000534    2.70  0.000053  ( 0.007259  0.000008  0.000032)
 38:   3168.40   0.006691   33.81  0.000659  (-0.000002  0.025671 -0.000001)
 39:   3186.74   0.002250   11.37  0.000220  (-0.014843 -0.000001 -0.000038)
 40:   3550.29   0.002837   14.34  0.000249  (-0.014747  0.000002  0.005644)
 41:   3653.15   0.002545   12.86  0.000217  (-0.000002 -0.014746  0.000003)

--------------------------
THERMOCHEMISTRY AT 298.15K
--------------------------

Temperature         ...   298.15 K
Pressure            ...     1.00 atm
Total Mass          ...    93.13 AMU
Quasi RRHO          ...     True
Cut-Off Frequency   ...     1.00 cm^-1

Throughout the following assumptions are being made:
  (1) The electronic state is orbitally nondegenerate
  (2) There are no thermally accessible electronically excited states
  (3) Hindered rotations indicated by low frequency modes are not
      treated as such but are treated as vibrations and this may
      cause some error
  (4) All equations used are the standard statistical mechanics
      equations for an ideal gas
  (5) All vibrations are strictly harmonic

freq.     221.31  E(vib)   ...       0.33
freq.     323.10  E(vib)   ...       0.25
freq.     390.90  E(vib)   ...       0.20
freq.     413.97  E(vib)   ...       0.19
freq.     501.88  E(vib)   ...       0.14
freq.     539.74  E(vib)   ...       0.12
freq.     622.24  E(vib)   ...       0.09
freq.     638.23  E(vib)   ...       0.09
freq.     698.71  E(vib)   ...       0.07
freq.     756.13  E(vib)   ...       0.06
freq.     816.55  E(vib)   ...       0.05
freq.     834.39  E(vib)   ...       0.04
freq.     872.08  E(vib)   ...       0.04
freq.     936.16  E(vib)   ...       0.03
freq.     952.90  E(vib)   ...       0.03
freq.    1018.39  E(vib)   ...       0.02
freq.    1048.73  E(vib)   ...       0.02
freq.    1070.17  E(vib)   ...       0.02
freq.    1139.00  E(vib)   ...       0.01
freq.    1178.53  E(vib)   ...       0.01
freq.    1200.96  E(vib)   ...       0.01
freq.    1300.67  E(vib)   ...       0.01
freq.    1362.25  E(vib)   ...       0.01
freq.    1365.90  E(vib)   ...       0.01
freq.    1499.59  E(vib)   ...       0.00
freq.    1527.31  E(vib)   ...       0.00
freq.    1623.18  E(vib)   ...       0.00
freq.    1641.57  E(vib)   ...       0.00
freq.    1661.59  E(vib)   ...       0.00
freq.    3146.63  E(vib)   ...       0.00
freq.    3146.83  E(vib)   ...       0.00
freq.    3163.42  E(vib)   ...       0.00
freq.    3168.40  E(vib)   ...       0.00
freq.    3186.74  E(vib)   ...       0.00
freq.    3550.29  E(vib)   ...       0.00
freq.    3653.15  E(vib)   ...       0.00

------------
INNER ENERGY
------------

The inner energy is: U= E(el) + E(ZPE) + E(vib) + E(rot) + E(trans)
    E(el)   - is the total energy from the electronic structure calculation
              = E(kin-el) + E(nuc-el) + E(el-el) + E(nuc-nuc)
    E(ZPE)  - the the zero temperature vibrational energy from the frequency calculation
    E(vib)  - the the finite temperature correction to E(ZPE) due to population
              of excited vibrational states
    E(rot)  - is the rotational thermal energy
    E(trans)- is the translational thermal energy

Summary of contributions to the inner energy U:
Electronic energy                ...   -287.54994078 Eh
Zero point energy                ...      0.11657746 Eh      73.15 kcal/mol
Thermal vibrational correction   ...      0.00293620 Eh       1.84 kcal/mol
Thermal rotational correction    ...      0.00141627 Eh       0.89 kcal/mol
Thermal translational correction ...      0.00141627 Eh       0.89 kcal/mol
-----------------------------------------------------------------------
Total thermal energy                   -287.42759457 Eh

Summary of corrections to the electronic energy:
(perhaps to be used in another calculation)
Total thermal correction                  0.00576875 Eh       3.62 kcal/mol
Non-thermal (ZPE) correction              0.11657746 Eh      73.15 kcal/mol
-----------------------------------------------------------------------
Total correction                          0.12234621 Eh      76.77 kcal/mol

--------
ENTHALPY
--------

The enthalpy is H = U + kB*T
                kB is Boltzmann's constant
Total thermal energy              ...   -287.42759457 Eh
Thermal Enthalpy correction       ...      0.00094421 Eh       0.59 kcal/mol
-----------------------------------------------------------------------
Total Enthalpy                    ...   -287.42665036 Eh

Note: Only C1 symmetry has been detected, increase convergence thresholds
      if your molecule has a higher symmetry. Symmetry factor of 1.0 is
      used for the rotational entropy correction.

Note: Rotational entropy computed according to Herzberg
Infrared and Raman Spectra, Chapter V,1, Van Nostrand Reinhold, 1945
Point Group:  C1, Symmetry Number:   1
Rotational constants in cm-1:     0.188019     0.086793     0.059480

Vibrational entropy computed according to the QRRHO of S. Grimme
Chem.Eur.J. 2012 18 9955 using a reference frequency of 100.0 cm-1

-------
ENTROPY
-------

The entropy contributions are T*S = T*(S(el)+S(vib)+S(rot)+S(trans))
     S(el)   - electronic entropy
     S(vib)  - vibrational entropy
     S(rot)  - rotational entropy
     S(trans)- translational entropy
The entropies will be listed as multiplied by the temperature to get
units of energy

Electronic entropy                ...      0.00000000 Eh      0.00 kcal/mol
Vibrational entropy               ...      0.00427244 Eh      2.68 kcal/mol
Rotational entropy                ...      0.01278597 Eh      8.02 kcal/mol
Translational entropy             ...      0.01877043 Eh     11.78 kcal/mol
-----------------------------------------------------------------------
Final entropy term                ...      0.03582883 Eh     22.48 kcal/mol

In case the symmetry of your molecule has not been determined correctly
or in case you have a reason to use a different symmetry number we print
out the resulting rotational entropy values for sn=1,12:

 non-linear molecules -----------------------------------
|  sn= 1 | S(rot)=       0.01278597 Eh      8.02 kcal/mol|
|  sn= 2 | S(rot)=       0.01213151 Eh      7.61 kcal/mol|
|  sn= 3 | S(rot)=       0.01174868 Eh      7.37 kcal/mol|
|  sn= 4 | S(rot)=       0.01147706 Eh      7.20 kcal/mol|
|  sn= 5 | S(rot)=       0.01126637 Eh      7.07 kcal/mol|
|  sn= 6 | S(rot)=       0.01109422 Eh      6.96 kcal/mol|
|  sn= 7 | S(rot)=       0.01094868 Eh      6.87 kcal/mol|
|  sn= 8 | S(rot)=       0.01082260 Eh      6.79 kcal/mol|
|  sn= 9 | S(rot)=       0.01071139 Eh      6.72 kcal/mol|
|  sn=10 | S(rot)=       0.01061191 Eh      6.66 kcal/mol|
|  sn=11 | S(rot)=       0.01052192 Eh      6.60 kcal/mol|
|  sn=12 | S(rot)=       0.01043977 Eh      6.55 kcal/mol|
 linear molecules ---------------------------------------
|  Dinfh | S(rot)=       0.00799040 Eh      5.01 kcal/mol|
|  Cinfv | S(rot)=       0.00864486 Eh      5.42 kcal/mol|
 --------------------------------------------------------

-------------------
GIBBS FREE ENERGY
-------------------

The Gibbs free energy is G = H - T*S

                             ****ORCA TERMINATED NORMALLY****
TOTAL RUN TIME: 0 days 0 hours 7 minutes 46 seconds 345 msec
