                         Program Version 6.0.1  -  RELEASE   -
|  1> ! r2scan-3c def2/J RI DEFGRID2 scfconv6 printgap
|  2> %output
|  3>     printlevel normal
|  4> end
|  5> * xyz 0 1
|  6> C -4.3829747188 -0.0007585739 -0.0011586738
|  7> C -3.6894833458 -0.1738437036 -1.1869370011
|  8> C -2.3061000294 -0.1733089983 -1.1889193885
|  9> C -1.6097726797 0.0004602655 0.000201567
| 10> C -2.3073646893 0.1737420168 1.1886219308
| 11> C -3.690766819 0.1730597413 1.185254287
| 12> C -0.1286030874 0.0004768779 0.0006062965
| 13> C 0.5930927827 -1.1753354907 0.1924643668
| 14> C 1.9784975968 -1.1919150619 0.1944193088
| 15> C 2.6592030079 -0.0003501861 -0.0002184435
| 16> C 1.9790734386 1.1916419187 -0.1942250501
| 17> C 0.5936455514 1.1759023449 -0.1914322974
| 18> Cl -0.2665024262 2.6503327149 -0.4309173353
| 19> Cl 4.3805497489 -0.000903751 -0.0009563417
| 20> Cl -0.2677949528 -2.6492677236 0.4324254316
| 21> H -5.4628429067 -0.0016187941 -0.0016252354
| 22> H -4.226458059 -0.3102144644 -2.1138981607
| 23> H -1.7592676069 -0.3081000137 -2.1107423424
| 24> H -1.7615999033 0.3090078872 2.1110060243
| 25> H -4.2287871383 0.3085771453 2.1117371957
| 26> H 2.5134140696 -2.1152408422 0.3444922814
| 27> H 2.5144667545 2.1146446023 -0.3446106329
| 28> *
| 29>
| 30>                          ****END OF INPUT****

CARTESIAN COORDINATES (ANGSTROEM)
---------------------------------
  C     -4.382975   -0.000759   -0.001159
  C     -3.689483   -0.173844   -1.186937
  C     -2.306100   -0.173309   -1.188919
  C     -1.609773    0.000460    0.000202
  C     -2.307365    0.173742    1.188622
  C     -3.690767    0.173060    1.185254
  C     -0.128603    0.000477    0.000606
  C      0.593093   -1.175335    0.192464
  C      1.978498   -1.191915    0.194419
  C      2.659203   -0.000350   -0.000218
  C      1.979073    1.191642   -0.194225
  C      0.593646    1.175902   -0.191432
  Cl    -0.266502    2.650333   -0.430917
  Cl     4.380550   -0.000904   -0.000956
  Cl    -0.267795   -2.649268    0.432425
  H     -5.462843   -0.001619   -0.001625
  H     -4.226458   -0.310214   -2.113898
  H     -1.759268   -0.308100   -2.110742
  H     -1.761600    0.309008    2.111006
  H     -4.228787    0.308577    2.111737
  H      2.513414   -2.115241    0.344492
  H      2.514467    2.114645   -0.344611

 Total Charge           Charge          ....    0
 Multiplicity           Mult            ....    1
 Number of Electrons    NEL             ....  130
 Basis Dimension        Dim             ....  344

ORBITAL ENERGIES
----------------

  NO   OCC          E(Eh)            E(eV)
   0   2.0000    -101.235161     -2754.7488
   1   2.0000    -101.232531     -2754.6772
   2   2.0000    -101.232525     -2754.6771
   3   2.0000     -10.122979      -275.4603
   4   2.0000     -10.122825      -275.4561
   5   2.0000     -10.122819      -275.4559
   6   2.0000     -10.076585      -274.1978
   7   2.0000     -10.067469      -273.9498
   8   2.0000     -10.067463      -273.9496
   9   2.0000     -10.058170      -273.6967
  10   2.0000     -10.044160      -273.3155
  11   2.0000     -10.044148      -273.3152
  12   2.0000     -10.043007      -273.2841
  13   2.0000     -10.042857      -273.2800
  14   2.0000     -10.042166      -273.2612
  15   2.0000      -9.391219      -255.5481
  16   2.0000      -9.388465      -255.4731
  17   2.0000      -9.388459      -255.4730
  18   2.0000      -7.137515      -194.2217
  19   2.0000      -7.134842      -194.1489
  20   2.0000      -7.134837      -194.1488
  21   2.0000      -7.127452      -193.9478
  22   2.0000      -7.126931      -193.9337
  23   2.0000      -7.124821      -193.8762
  24   2.0000      -7.124816      -193.8761
  25   2.0000      -7.123988      -193.8536
  26   2.0000      -7.123983      -193.8534
  27   2.0000      -0.904001       -24.5991
  28   2.0000      -0.861938       -23.4545
  29   2.0000      -0.856862       -23.3164
  30   2.0000      -0.835191       -22.7267
  31   2.0000      -0.789262       -21.4769
  32   2.0000      -0.755982       -20.5713
  33   2.0000      -0.725665       -19.7464
  34   2.0000      -0.721564       -19.6348
  35   2.0000      -0.698123       -18.9969
  36   2.0000      -0.604753       -16.4562
  37   2.0000      -0.594642       -16.1810
  38   2.0000      -0.585679       -15.9371
  39   2.0000      -0.565878       -15.3983
  40   2.0000      -0.514558       -14.0018
  41   2.0000      -0.491221       -13.3668
  42   2.0000      -0.484127       -13.1738
  43   2.0000      -0.454214       -12.3598
  44   2.0000      -0.439400       -11.9567
  45   2.0000      -0.435308       -11.8453
  46   2.0000      -0.428383       -11.6569
  47   2.0000      -0.412034       -11.2120
  48   2.0000      -0.405918       -11.0456
  49   2.0000      -0.398189       -10.8353
  50   2.0000      -0.379601       -10.3295
  51   2.0000      -0.377726       -10.2784
  52   2.0000      -0.353923        -9.6307
  53   2.0000      -0.352818        -9.6007
  54   2.0000      -0.349447        -9.5089
  55   2.0000      -0.324717        -8.8360
  56   2.0000      -0.322879        -8.7860
  57   2.0000      -0.305251        -8.3063
  58   2.0000      -0.301904        -8.2152
  59   2.0000      -0.291150        -7.9226
  60   2.0000      -0.290596        -7.9075
  61   2.0000      -0.246740        -6.7141
  62   2.0000      -0.242126        -6.5886
  63   2.0000      -0.241053        -6.5594
  64   2.0000      -0.239877        -6.5274
  65   0.0000      -0.065165        -1.7732
  66   0.0000      -0.061432        -1.6716
  67   0.0000      -0.042713        -1.1623
  68   0.0000      -0.038416        -1.0454
  69   0.0000      -0.031195        -0.8489

MULLIKEN ATOMIC CHARGES
-----------------------
   0 C :   -0.122828
   1 C :   -0.166369
   2 C :   -0.169123
   3 C :    0.120961
   4 C :   -0.169062
   5 C :   -0.166363
   6 C :   -0.020837
   7 C :    0.177883
   8 C :   -0.365181
   9 C :    0.285931
  10 C :   -0.365186
  11 C :    0.177916
  12 Cl:   -0.101505
  13 Cl:   -0.120739
  14 Cl:   -0.101519
  15 H :    0.148048
  16 H :    0.146178
  17 H :    0.156670
  18 H :    0.156660
  19 H :    0.146177
  20 H :    0.176146
  21 H :    0.176142
Sum of atomic charges:   -0.0000000

LOEWDIN ATOMIC CHARGES
----------------------
   0 C :   -0.159987
   1 C :   -0.155614
   2 C :   -0.139170
   3 C :   -0.094466
   4 C :   -0.139177
   5 C :   -0.155614
   6 C :   -0.100630
   7 C :   -0.137151
   8 C :   -0.184130
   9 C :   -0.160264
  10 C :   -0.184133
  11 C :   -0.137166
  12 Cl:    0.178737
  13 Cl:    0.152668
  14 Cl:    0.178762
  15 H :    0.168272
  16 H :    0.169142
  17 H :    0.176158
  18 H :    0.176155
  19 H :    0.169140
  20 H :    0.189234
  21 H :    0.189234

  Mayer bond orders larger than 0.100000
B(  0-C ,  1-C ) :   1.4193 B(  0-C ,  5-C ) :   1.4194 B(  0-C , 15-H ) :   0.9446
B(  1-C ,  2-C ) :   1.4362 B(  1-C , 16-H ) :   0.9487 B(  2-C ,  3-C ) :   1.4199
B(  2-C , 17-H ) :   0.9458 B(  3-C ,  4-C ) :   1.4198 B(  3-C ,  6-C ) :   0.7952
B(  3-C ,  7-C ) :  -0.1013 B(  3-C , 11-C ) :  -0.1012 B(  4-C ,  5-C ) :   1.4361
B(  4-C , 18-H ) :   0.9458 B(  5-C , 19-H ) :   0.9487 B(  6-C ,  7-C ) :   1.3667
B(  6-C , 11-C ) :   1.3666 B(  7-C ,  8-C ) :   1.3314 B(  7-C , 14-Cl) :   1.0091
B(  8-C ,  9-C ) :   1.3575 B(  8-C , 20-H ) :   0.9211 B(  9-C , 10-C ) :   1.3575
B(  9-C , 13-Cl) :   0.9203 B( 10-C , 11-C ) :   1.3313 B( 10-C , 21-H ) :   0.9211
B( 11-C , 12-Cl) :   1.0092

Dispersion correction           -0.011936272
FINAL SINGLE POINT ENERGY     -1841.911558969669

DIPOLE MOMENT
-------------

Method             : SCF
Type of density    : Electron Density
Multiplicity       :   1
Irrep              :   0
Energy             : -1841.9077115728671288 Eh
Relativity type    :
Basis              : AO
                                X                 Y                 Z
Electronic contribution:     16.460729866       0.002553474       0.003988000
Nuclear contribution   :    -16.806234001      -0.002978856      -0.004156344
                        -----------------------------------------
Total Dipole Moment    :     -0.345504135      -0.000425382      -0.000168344
                        -----------------------------------------
Magnitude (a.u.)       :      0.345504438
Magnitude (Debye)      :      0.878202490

Rotational constants in cm-1:             0.024901             0.009565             0.007445
Rotational constants in MHz :           746.499525           286.748660           223.185596

                             ****ORCA TERMINATED NORMALLY****
TOTAL RUN TIME: 0 days 0 hours 0 minutes 46 seconds 83 msec
