                         Program Version 6.0.1  -  RELEASE   -
|  1> ! r2scan-3c def2/J RI DEFGRID2 scfconv6 printgap
|  2> %output
|  3>     printlevel normal
|  4> end
|  5> * xyz 0 1
|  6> C -2.5476235425 -0.9206189596 0.2871825928
|  7> C -1.1259767861 -0.4497447215 0.6360375368
|  8> H -1.0055518585 -0.4037654528 1.7329955341
|  9> C -0.8461028703 0.9416649166 0.0435345809
| 10> H -1.1024549337 0.9333954119 -1.0217404721
| 11> C 0.6380320165 1.2885438054 0.2142371292
| 12> H 0.8528516628 1.4065566595 1.2935219987
| 13> C 1.5295148379 0.1662785081 -0.328251827
| 14> H 1.3565852616 0.0796581352 -1.415672895
| 15> C 1.1291531069 -1.1639515091 0.3380357528
| 16> H 1.3214953618 -1.1019219384 1.4201212784
| 17> O -0.2452195363 -1.4102778453 0.094197201
| 18> O 1.8424074171 -2.2433557056 -0.1148585187
| 19> O 2.8785446827 0.4205771656 -0.0616399729
| 20> O 0.9663258856 2.480376109 -0.4603793661
| 21> O -1.6497309308 1.9449328264 0.6136801934
| 22> O -2.6792593291 -1.1657107778 -1.0824987747
| 23> H -3.2635481008 -0.1354845125 0.5384418629
| 24> H -2.7728390054 -1.8238229837 0.8704619834
| 25> H 1.7650873898 -2.3011795198 -1.0755686366
| 26> H 3.0576691374 1.3304417705 -0.3328115674
| 27> H 0.2107577581 3.0777297709 -0.3856648909
| 28> H -1.5424314542 1.9342517205 1.5730609263
| 29> H -1.9721060895 -1.7747069634 -1.3309151483
| 30> *
| 31>
| 32>                          ****END OF INPUT****

CARTESIAN COORDINATES (ANGSTROEM)
---------------------------------
  C     -2.547624   -0.920619    0.287183
  C     -1.125977   -0.449745    0.636038
  H     -1.005552   -0.403765    1.732996
  C     -0.846103    0.941665    0.043535
  H     -1.102455    0.933395   -1.021740
  C      0.638032    1.288544    0.214237
  H      0.852852    1.406557    1.293522
  C      1.529515    0.166279   -0.328252
  H      1.356585    0.079658   -1.415673
  C      1.129153   -1.163952    0.338036
  H      1.321495   -1.101922    1.420121
  O     -0.245220   -1.410278    0.094197
  O      1.842407   -2.243356   -0.114859
  O      2.878545    0.420577   -0.061640
  O      0.966326    2.480376   -0.460379
  O     -1.649731    1.944933    0.613680
  O     -2.679259   -1.165711   -1.082499
  H     -3.263548   -0.135485    0.538442
  H     -2.772839   -1.823823    0.870462
  H      1.765087   -2.301180   -1.075569
  H      3.057669    1.330442   -0.332812
  H      0.210758    3.077730   -0.385665
  H     -1.542431    1.934252    1.573061
  H     -1.972106   -1.774707   -1.330915

 Total Charge           Charge          ....    0
 Multiplicity           Mult            ....    1
 Number of Electrons    NEL             ....   96
 Basis Dimension        Dim             ....  318

ORBITAL ENERGIES
----------------

  NO   OCC          E(Eh)            E(eV)
   0   2.0000     -18.981276      -516.5068
   1   2.0000     -18.980818      -516.4943
   2   2.0000     -18.972165      -516.2589
   3   2.0000     -18.967732      -516.1382
   4   2.0000     -18.960238      -515.9343
   5   2.0000     -18.954933      -515.7900
   6   2.0000     -10.147223      -276.1200
   7   2.0000     -10.104954      -274.9698
   8   2.0000     -10.099647      -274.8254
   9   2.0000     -10.099290      -274.8156
  10   2.0000     -10.097116      -274.7565
  11   2.0000     -10.086314      -274.4625
  12   2.0000      -1.060916       -28.8690
  13   2.0000      -1.028254       -27.9802
  14   2.0000      -1.013161       -27.5695
  15   2.0000      -1.002748       -27.2862
  16   2.0000      -0.992773       -27.0147
  17   2.0000      -0.986259       -26.8375
  18   2.0000      -0.758335       -20.6353
  19   2.0000      -0.743316       -20.2267
  20   2.0000      -0.664841       -18.0912
  21   2.0000      -0.629411       -17.1271
  22   2.0000      -0.600231       -16.3331
  23   2.0000      -0.583534       -15.8788
  24   2.0000      -0.533042       -14.5048
  25   2.0000      -0.516726       -14.0608
  26   2.0000      -0.499032       -13.5794
  27   2.0000      -0.486241       -13.2313
  28   2.0000      -0.476769       -12.9735
  29   2.0000      -0.461821       -12.5668
  30   2.0000      -0.446591       -12.1524
  31   2.0000      -0.442533       -12.0419
  32   2.0000      -0.410203       -11.1622
  33   2.0000      -0.401745       -10.9320
  34   2.0000      -0.393972       -10.7205
  35   2.0000      -0.378941       -10.3115
  36   2.0000      -0.358896        -9.7661
  37   2.0000      -0.348844        -9.4925
  38   2.0000      -0.336428        -9.1547
  39   2.0000      -0.326605        -8.8874
  40   2.0000      -0.314933        -8.5698
  41   2.0000      -0.307285        -8.3616
  42   2.0000      -0.288099        -7.8396
  43   2.0000      -0.269729        -7.3397
  44   2.0000      -0.263866        -7.1802
  45   2.0000      -0.250340        -6.8121
  46   2.0000      -0.246536        -6.7086
  47   2.0000      -0.233047        -6.3415
  48   0.0000       0.023467         0.6386
  49   0.0000       0.037915         1.0317
  50   0.0000       0.058002         1.5783
  51   0.0000       0.070664         1.9229
  52   0.0000       0.074482         2.0268

MULLIKEN ATOMIC CHARGES
-----------------------
   0 C :   -0.216423
   1 C :    0.060888
   2 H :    0.163055
   3 C :   -0.214264
   4 H :    0.201031
   5 C :    0.030442
   6 H :    0.163187
   7 C :    0.084033
   8 H :    0.161978
   9 C :   -0.180011
  10 H :    0.153665
  11 O :   -0.212897
  12 O :   -0.346063
  13 O :   -0.415671
  14 O :   -0.438621
  15 O :   -0.418261
  16 O :   -0.420625
  17 H :    0.149149
  18 H :    0.141383
  19 H :    0.311100
  20 H :    0.318570
  21 H :    0.314797
  22 H :    0.301656
  23 H :    0.307902
Sum of atomic charges:   -0.0000000

LOEWDIN ATOMIC CHARGES
----------------------
   0 C :    0.042091
   1 C :    0.102129
   2 H :    0.179118
   3 C :    0.095269
   4 H :    0.209531
   5 C :    0.097050
   6 H :    0.178591
   7 C :    0.115507
   8 H :    0.181163
   9 C :    0.301595
  10 H :    0.199109
  11 O :   -0.691807
  12 O :   -0.457254
  13 O :   -0.552653
  14 O :   -0.580882
  15 O :   -0.578067
  16 O :   -0.585820
  17 H :    0.191493
  18 H :    0.165332
  19 H :    0.277047
  20 H :    0.283222
  21 H :    0.282361
  22 H :    0.270628
  23 H :    0.275249

  Mayer bond orders larger than 0.100000
B(  0-C ,  1-C ) :   0.9621 B(  0-C , 16-O ) :   1.0327 B(  0-C , 17-H ) :   0.9615
B(  0-C , 18-H ) :   0.9779 B(  1-C ,  2-H ) :   0.9099 B(  1-C ,  3-C ) :   0.8664
B(  1-C , 11-O ) :   0.7645 B(  1-C , 16-O ) :  -0.1186 B(  3-C ,  4-H ) :   0.9694
B(  3-C ,  5-C ) :   0.8486 B(  3-C , 15-O ) :   0.9814 B(  5-C ,  6-H ) :   0.9715
B(  5-C ,  7-C ) :   0.8778 B(  5-C , 14-O ) :   0.8885 B(  7-C ,  8-H ) :   0.9495
B(  7-C ,  9-C ) :   0.8507 B(  7-C , 13-O ) :   0.8892 B(  9-C , 10-H ) :   1.0060
B(  9-C , 11-O ) :   0.9204 B(  9-C , 12-O ) :   1.1531 B( 12-O , 19-H ) :   0.8767
B( 13-O , 20-H ) :   0.8761 B( 14-O , 21-H ) :   0.8710 B( 15-O , 22-H ) :   0.8846
B( 16-O , 23-H ) :   0.8712

Dispersion correction           -0.008117181
FINAL SINGLE POINT ENERGY      -687.075615008940

DIPOLE MOMENT
-------------

Method             : SCF
Type of density    : Electron Density
Multiplicity       :   1
Irrep              :   0
Energy             :  -687.0871194462494032 Eh
Relativity type    :
Basis              : AO
                                X                 Y                 Z
Electronic contribution:      2.627000196      -0.688552171      -1.255226232
Nuclear contribution   :     -2.886663697       1.146041610       1.735856348
                        -----------------------------------------
Total Dipole Moment    :     -0.259663501       0.457489439       0.480630115
                        -----------------------------------------
Magnitude (a.u.)       :      0.712549667
Magnitude (Debye)      :      1.811157320

Rotational constants in cm-1:             0.038498             0.027558             0.017872
Rotational constants in MHz :          1154.128130           826.170363           535.779902

                             ****ORCA TERMINATED NORMALLY****
TOTAL RUN TIME: 0 days 0 hours 0 minutes 38 seconds 943 msec
