                         Program Version 6.0.0  -   RELEASE  -
|  1> ! r2SCAN-3c DEF2-TZVP FREQ
|  2> * xyzfile 0 1 censo.xyz
|  3>
|  4>                          ****END OF INPUT****

CARTESIAN COORDINATES (ANGSTROEM)
---------------------------------
  C      1.267511   -0.697579   -0.000003
  C     -0.000005    0.105062    0.000004
  C     -0.000089    1.441869    0.000007
  C     -1.267423   -0.697736    0.000006
  H      1.305839   -1.353856    0.878476
  H      1.305736   -1.354020   -0.878364
  H      2.155484   -0.060319   -0.000111
  H     -0.929126    2.006587    0.000016
  H      0.928878    2.006703   -0.000014
  H     -1.305568   -1.354183    0.878365
  H     -2.155475   -0.060586    0.000113
  H     -1.305669   -1.354017   -0.878475

 Total Charge           Charge          ....    0
 Multiplicity           Mult            ....    1
 Number of Electrons    NEL             ....   32
 Basis Dimension        Dim             ....  172

ORBITAL ENERGIES
----------------

  NO   OCC          E(Eh)            E(eV)
   0   2.0000     -10.042991      -273.2837
   1   2.0000     -10.027261      -272.8556
   2   2.0000     -10.027256      -272.8555
   3   2.0000     -10.013185      -272.4726
   4   2.0000      -0.773510       -21.0483
   5   2.0000      -0.660444       -17.9716
   6   2.0000      -0.646242       -17.5851
   7   2.0000      -0.491729       -13.3806
   8   2.0000      -0.420992       -11.4558
   9   2.0000      -0.413234       -11.2447
  10   2.0000      -0.403197       -10.9715
  11   2.0000      -0.355798        -9.6817
  12   2.0000      -0.340148        -9.2559
  13   2.0000      -0.334111        -9.0916
  14   2.0000      -0.309744        -8.4286
  15   2.0000      -0.223849        -6.0912
  16   0.0000      -0.008036        -0.2187
  17   0.0000       0.048317         1.3148
  18   0.0000       0.095348         2.5945
  19   0.0000       0.102095         2.7781
  20   0.0000       0.108725         2.9586

MULLIKEN ATOMIC CHARGES
-----------------------
   0 C :   -0.293575
   1 C :    0.024332
   2 C :   -0.288450
   3 C :   -0.293574
   4 H :    0.107328
   5 H :    0.107322
   6 H :    0.104060
   7 H :    0.106925
   8 H :    0.106923
   9 H :    0.107322
  10 H :    0.104060
  11 H :    0.107328
Sum of atomic charges:   -0.0000000

LOEWDIN ATOMIC CHARGES
----------------------
   0 C :   -0.261248
   1 C :   -0.267251
   2 C :   -0.211204
   3 C :   -0.261248
   4 H :    0.127626
   5 H :    0.127624
   6 H :    0.125326
   7 H :    0.119900
   8 H :    0.119900
   9 H :    0.127624
  10 H :    0.125326
  11 H :    0.127626

  Mayer bond orders larger than 0.100000
B(  0-C ,  1-C ) :   0.9587 B(  0-C ,  4-H ) :   0.9621 B(  0-C ,  5-H ) :   0.9621
B(  0-C ,  6-H ) :   0.9771 B(  1-C ,  2-C ) :   1.8802 B(  1-C ,  3-C ) :   0.9587
B(  2-C ,  7-H ) :   0.9627 B(  2-C ,  8-H ) :   0.9627 B(  3-C ,  9-H ) :   0.9621
B(  3-C , 10-H ) :   0.9771 B(  3-C , 11-H ) :   0.9621

Dispersion correction           -0.002332413
FINAL SINGLE POINT ENERGY      -157.177665126841

DIPOLE MOMENT
-------------

Method             : SCF
Type of density    : Electron Density
Multiplicity       :   1
Irrep              :   0
Energy             :  -157.1802650625406272 Eh
Relativity type    :
Basis              : AO
                                X                 Y                 Z
Electronic contribution:     -0.000074497       1.221260029       0.000009677
Nuclear contribution   :      0.000089895      -1.467640151      -0.000014355
                        -----------------------------------------
Total Dipole Moment    :      0.000015397      -0.246380122      -0.000004678
                        -----------------------------------------
Magnitude (a.u.)       :      0.246380122
Magnitude (Debye)      :      0.626248502

VIBRATIONAL FREQUENCIES
-----------------------

Scaling factor for frequencies =  1.000000000  (already applied!)

     0:       0.00 cm**-1
     1:       0.00 cm**-1
     2:       0.00 cm**-1
     3:       0.00 cm**-1
     4:       0.00 cm**-1
     5:       0.00 cm**-1
     6:     187.38 cm**-1
     7:     231.45 cm**-1
     8:     389.14 cm**-1
     9:     443.80 cm**-1
    10:     446.94 cm**-1
    11:     710.00 cm**-1
    12:     819.41 cm**-1
    13:     901.61 cm**-1
    14:     959.58 cm**-1
    15:     987.08 cm**-1
    16:    1017.41 cm**-1
    17:    1083.75 cm**-1
    18:    1100.71 cm**-1
    19:    1296.11 cm**-1
    20:    1394.61 cm**-1
    21:    1400.09 cm**-1
    22:    1432.86 cm**-1
    23:    1459.85 cm**-1
    24:    1471.88 cm**-1
    25:    1480.45 cm**-1
    26:    1494.62 cm**-1
    27:    1694.42 cm**-1
    28:    2990.41 cm**-1
    29:    2995.41 cm**-1
    30:    3047.29 cm**-1
    31:    3049.26 cm**-1
    32:    3097.96 cm**-1
    33:    3099.54 cm**-1
    34:    3107.79 cm**-1
    35:    3194.29 cm**-1

IR SPECTRUM
-----------

 Mode   freq       eps      Int      T**2         TX        TY        TZ
       cm**-1   L/(mol*cm) km/mol    a.u.
----------------------------------------------------------------------------
  6:    187.38   0.000000    0.00  0.000000  ( 0.000000 -0.000005 -0.000000)
  7:    231.45   0.000203    1.03  0.000274  ( 0.000004 -0.000000  0.016544)
  8:    389.14   0.000047    0.24  0.000037  ( 0.000001 -0.006113  0.000000)
  9:    443.80   0.001692    8.55  0.001190  ( 0.000013  0.000000 -0.034496)
 10:    446.94   0.000309    1.56  0.000216  (-0.014694 -0.000003 -0.000030)
 11:    710.00   0.000000    0.00  0.000000  (-0.000000  0.000003  0.000000)
 12:    819.41   0.000069    0.35  0.000026  (-0.000000  0.005116  0.000000)
 13:    901.61   0.009781   49.43  0.003386  (-0.000001 -0.000001 -0.058186)
 14:    959.58   0.000008    0.04  0.000003  (-0.001652 -0.000000 -0.000003)
 15:    987.08   0.000090    0.46  0.000029  ( 0.005339 -0.000001  0.000000)
 16:   1017.41   0.000000    0.00  0.000000  (-0.000000  0.000004 -0.000000)
 17:   1083.75   0.000504    2.54  0.000145  (-0.000001  0.012041 -0.000000)
 18:   1100.71   0.000000    0.00  0.000000  (-0.000002 -0.000000  0.000133)
 19:   1296.11   0.000691    3.49  0.000166  ( 0.012895  0.000001  0.000001)
 20:   1394.61   0.002282   11.53  0.000511  (-0.022599 -0.000001 -0.000002)
 21:   1400.09   0.000180    0.91  0.000040  (-0.000000 -0.006334  0.000000)
 22:   1432.86   0.000549    2.77  0.000120  (-0.000001  0.010934  0.000000)
 23:   1459.85   0.000000    0.00  0.000000  (-0.000000  0.000004  0.000000)
 24:   1471.88   0.000866    4.38  0.000184  (-0.013554 -0.000001  0.000003)
 25:   1480.45   0.003916   19.79  0.000826  ( 0.000001 -0.000000 -0.028732)
 26:   1494.62   0.003076   15.55  0.000642  ( 0.000002 -0.025344  0.000000)
 27:   1694.42   0.004845   24.49  0.000892  ( 0.000002 -0.029872 -0.000000)
 28:   2990.41   0.004359   22.03  0.000455  ( 0.021329  0.000001  0.000002)
 29:   2995.41   0.007964   40.25  0.000830  ( 0.000001 -0.028805  0.000000)
 30:   3047.29   0.000000    0.00  0.000000  (-0.000000 -0.000003 -0.000001)
 31:   3049.26   0.007830   39.57  0.000801  ( 0.000002  0.000000 -0.028307)
 32:   3097.96   0.004926   24.90  0.000496  (-0.022276 -0.000004  0.000001)
 33:   3099.54   0.003756   18.98  0.000378  ( 0.000004 -0.019445 -0.000000)
 34:   3107.79   0.002200   11.12  0.000221  ( 0.000000 -0.014864 -0.000000)
 35:   3194.29   0.003407   17.22  0.000333  (-0.018245 -0.000000  0.000000)

--------------------------
THERMOCHEMISTRY AT 298.15K
--------------------------

Temperature         ...   298.15 K
Pressure            ...     1.00 atm
Total Mass          ...    56.11 AMU
Quasi RRHO          ...     True
Cut-Off Frequency   ...     1.00 cm^-1

Throughout the following assumptions are being made:
  (1) The electronic state is orbitally nondegenerate
  (2) There are no thermally accessible electronically excited states
  (3) Hindered rotations indicated by low frequency modes are not
      treated as such but are treated as vibrations and this may
      cause some error
  (4) All equations used are the standard statistical mechanics
      equations for an ideal gas
  (5) All vibrations are strictly harmonic

freq.     187.38  E(vib)   ...       0.36
freq.     231.45  E(vib)   ...       0.32
freq.     389.14  E(vib)   ...       0.20
freq.     443.80  E(vib)   ...       0.17
freq.     446.94  E(vib)   ...       0.17
freq.     710.00  E(vib)   ...       0.07
freq.     819.41  E(vib)   ...       0.05
freq.     901.61  E(vib)   ...       0.03
freq.     959.58  E(vib)   ...       0.03
freq.     987.08  E(vib)   ...       0.02
freq.    1017.41  E(vib)   ...       0.02
freq.    1083.75  E(vib)   ...       0.02
freq.    1100.71  E(vib)   ...       0.02
freq.    1296.11  E(vib)   ...       0.01
freq.    1394.61  E(vib)   ...       0.00
freq.    1400.09  E(vib)   ...       0.00
freq.    1432.86  E(vib)   ...       0.00
freq.    1459.85  E(vib)   ...       0.00
freq.    1471.88  E(vib)   ...       0.00
freq.    1480.45  E(vib)   ...       0.00
freq.    1494.62  E(vib)   ...       0.00
freq.    1694.42  E(vib)   ...       0.00
freq.    2990.41  E(vib)   ...       0.00
freq.    2995.41  E(vib)   ...       0.00
freq.    3047.29  E(vib)   ...       0.00
freq.    3049.26  E(vib)   ...       0.00
freq.    3097.96  E(vib)   ...       0.00
freq.    3099.54  E(vib)   ...       0.00
freq.    3107.79  E(vib)   ...       0.00
freq.    3194.29  E(vib)   ...       0.00

------------
INNER ENERGY
------------

The inner energy is: U= E(el) + E(ZPE) + E(vib) + E(rot) + E(trans)
    E(el)   - is the total energy from the electronic structure calculation
              = E(kin-el) + E(nuc-el) + E(el-el) + E(nuc-nuc)
    E(ZPE)  - the the zero temperature vibrational energy from the frequency calculation
    E(vib)  - the the finite temperature correction to E(ZPE) due to population
              of excited vibrational states
    E(rot)  - is the rotational thermal energy
    E(trans)- is the translational thermal energy

Summary of contributions to the inner energy U:
Electronic energy                ...   -157.17766513 Eh
Zero point energy                ...      0.10703994 Eh      67.17 kcal/mol
Thermal vibrational correction   ...      0.00240943 Eh       1.51 kcal/mol
Thermal rotational correction    ...      0.00141627 Eh       0.89 kcal/mol
Thermal translational correction ...      0.00141627 Eh       0.89 kcal/mol
-----------------------------------------------------------------------
Total thermal energy                   -157.06538321 Eh

Summary of corrections to the electronic energy:
(perhaps to be used in another calculation)
Total thermal correction                  0.00524198 Eh       3.29 kcal/mol
Non-thermal (ZPE) correction              0.10703994 Eh      67.17 kcal/mol
-----------------------------------------------------------------------
Total correction                          0.11228191 Eh      70.46 kcal/mol

--------
ENTHALPY
--------

The enthalpy is H = U + kB*T
                kB is Boltzmann's constant
Total thermal energy              ...   -157.06538321 Eh
Thermal Enthalpy correction       ...      0.00094421 Eh       0.59 kcal/mol
-----------------------------------------------------------------------
Total Enthalpy                    ...   -157.06443900 Eh

Note: Rotational entropy computed according to Herzberg
Infrared and Raman Spectra, Chapter V,1, Van Nostrand Reinhold, 1945
Point Group:  C2, Symmetry Number:   2
Rotational constants in cm-1:     0.304167     0.282457     0.154825

Vibrational entropy computed according to the QRRHO of S. Grimme
Chem.Eur.J. 2012 18 9955 using a reference frequency of 100.0 cm-1

-------
ENTROPY
-------

The entropy contributions are T*S = T*(S(el)+S(vib)+S(rot)+S(trans))
     S(el)   - electronic entropy
     S(vib)  - vibrational entropy
     S(rot)  - rotational entropy
     S(trans)- translational entropy
The entropies will be listed as multiplied by the temperature to get
units of energy

Electronic entropy                ...      0.00000000 Eh      0.00 kcal/mol
Vibrational entropy               ...      0.00377290 Eh      2.37 kcal/mol
Rotational entropy                ...      0.01089572 Eh      6.84 kcal/mol
Translational entropy             ...      0.01805279 Eh     11.33 kcal/mol
-----------------------------------------------------------------------
Final entropy term                ...      0.03272142 Eh     20.53 kcal/mol

In case the symmetry of your molecule has not been determined correctly
or in case you have a reason to use a different symmetry number we print
out the resulting rotational entropy values for sn=1,12:

 non-linear molecules -----------------------------------
|  sn= 1 | S(rot)=       0.01155018 Eh      7.25 kcal/mol|
|  sn= 2 | S(rot)=       0.01089572 Eh      6.84 kcal/mol|
|  sn= 3 | S(rot)=       0.01051289 Eh      6.60 kcal/mol|
|  sn= 4 | S(rot)=       0.01024127 Eh      6.43 kcal/mol|
|  sn= 5 | S(rot)=       0.01003058 Eh      6.29 kcal/mol|
|  sn= 6 | S(rot)=       0.00985843 Eh      6.19 kcal/mol|
|  sn= 7 | S(rot)=       0.00971289 Eh      6.09 kcal/mol|
|  sn= 8 | S(rot)=       0.00958681 Eh      6.02 kcal/mol|
|  sn= 9 | S(rot)=       0.00947560 Eh      5.95 kcal/mol|
|  sn=10 | S(rot)=       0.00937612 Eh      5.88 kcal/mol|
|  sn=11 | S(rot)=       0.00928613 Eh      5.83 kcal/mol|
|  sn=12 | S(rot)=       0.00920398 Eh      5.78 kcal/mol|
 linear molecules ---------------------------------------
|  Dinfh | S(rot)=       0.00708714 Eh      4.45 kcal/mol|
|  Cinfv | S(rot)=       0.00774160 Eh      4.86 kcal/mol|
 --------------------------------------------------------

-------------------
GIBBS FREE ENERGY
-------------------

The Gibbs free energy is G = H - T*S

Total enthalpy                    ...   -157.06443900 Eh
Total entropy correction          ...     -0.03272142 Eh    -20.53 kcal/mol
-----------------------------------------------------------------------
Final Gibbs free energy         ...   -157.09716042 Eh

For completeness - the Gibbs free energy minus the electronic energy
G-E(el)                           ...      0.08050471 Eh     50.52 kcal/mol

                             ****ORCA TERMINATED NORMALLY****
TOTAL RUN TIME: 0 days 0 hours 3 minutes 34 seconds 689 msec
