                         Program Version 6.0.0  -   RELEASE  -
|  1> ! r2SCAN-3c DEF2-TZVP FREQ
|  2> * xyzfile 0 1 vacuum_censo.xyz
|  3>
|  4>                          ****END OF INPUT****

CARTESIAN COORDINATES (ANGSTROEM)
---------------------------------
  C      1.268867   -0.698431    0.000062
  C     -0.000008    0.104744   -0.000067
  C     -0.000112    1.438539   -0.000132
  C     -1.268757   -0.698628   -0.000011
  H      2.154971   -0.059684    0.000693
  H      1.311610   -1.353557    0.879111
  H      1.312258   -1.352672   -0.879618
  H     -0.926911    2.004328   -0.000182
  H      0.926598    2.004475    0.000063
  H     -2.154961   -0.060019   -0.001210
  H     -1.311188   -1.354268   -0.878689
  H     -1.312259   -1.352368    0.880039

 Total Charge           Charge          ....    0
 Multiplicity           Mult            ....    1
 Number of Electrons    NEL             ....   32
 Basis Dimension        Dim             ....  172

ORBITAL ENERGIES
----------------

  NO   OCC          E(Eh)            E(eV)
   0   2.0000     -10.042808      -273.2787
   1   2.0000     -10.027111      -272.8516
   2   2.0000     -10.027106      -272.8514
   3   2.0000     -10.012639      -272.4578
   4   2.0000      -0.773421       -21.0458
   5   2.0000      -0.660399       -17.9704
   6   2.0000      -0.646507       -17.5924
   7   2.0000      -0.492038       -13.3890
   8   2.0000      -0.421155       -11.4602
   9   2.0000      -0.412992       -11.2381
  10   2.0000      -0.403005       -10.9663
  11   2.0000      -0.356064        -9.6890
  12   2.0000      -0.339738        -9.2448
  13   2.0000      -0.334269        -9.0959
  14   2.0000      -0.309342        -8.4176
  15   2.0000      -0.224449        -6.1076
  16   0.0000      -0.007596        -0.2067
  17   0.0000       0.048630         1.3233
  18   0.0000       0.095640         2.6025
  19   0.0000       0.101936         2.7738
  20   0.0000       0.108595         2.9550

MULLIKEN ATOMIC CHARGES
-----------------------
   0 C :   -0.294262
   1 C :    0.024837
   2 C :   -0.287384
   3 C :   -0.294263
   4 H :    0.103834
   5 H :    0.107461
   6 H :    0.107498
   7 H :    0.106743
   8 H :    0.106744
   9 H :    0.103834
  10 H :    0.107451
  11 H :    0.107508
Sum of atomic charges:    0.0000000

LOEWDIN ATOMIC CHARGES
----------------------
   0 C :   -0.261067
   1 C :   -0.266754
   2 C :   -0.210544
   3 C :   -0.261067
   4 H :    0.125104
   5 H :    0.127399
   6 H :    0.127408
   7 H :    0.119804
   8 H :    0.119804
   9 H :    0.125104
  10 H :    0.127395
  11 H :    0.127413

  Mayer bond orders larger than 0.100000
B(  0-C ,  1-C ) :   0.9584 B(  0-C ,  4-H ) :   0.9774 B(  0-C ,  5-H ) :   0.9621
B(  0-C ,  6-H ) :   0.9621 B(  1-C ,  2-C ) :   1.8833 B(  1-C ,  3-C ) :   0.9584
B(  2-C ,  7-H ) :   0.9627 B(  2-C ,  8-H ) :   0.9627 B(  3-C ,  9-H ) :   0.9774
B(  3-C , 10-H ) :   0.9621 B(  3-C , 11-H ) :   0.9620

Dispersion correction           -0.002331988
FINAL SINGLE POINT ENERGY      -157.177693962117

DIPOLE MOMENT
-------------

Method             : SCF
Type of density    : Electron Density
Multiplicity       :   1
Irrep              :   0
Energy             :  -157.1802983876515896 Eh
Relativity type    :
Basis              : AO
                                X                 Y                 Z
Electronic contribution:     -0.000091719       1.217485738      -0.000284888
Nuclear contribution   :      0.000110552      -1.459035818       0.000405382
                        -----------------------------------------
Total Dipole Moment    :      0.000018833      -0.241550081       0.000120493
                        -----------------------------------------
Magnitude (a.u.)       :      0.241550111
Magnitude (Debye)      :      0.613971590

VIBRATIONAL FREQUENCIES
-----------------------

Scaling factor for frequencies =  1.000000000  (already applied!)

     0:       0.00 cm**-1
     1:       0.00 cm**-1
     2:       0.00 cm**-1
     3:       0.00 cm**-1
     4:       0.00 cm**-1
     5:       0.00 cm**-1
     6:     179.80 cm**-1
     7:     223.48 cm**-1
     8:     387.27 cm**-1
     9:     441.78 cm**-1
    10:     443.72 cm**-1
    11:     703.81 cm**-1
    12:     817.53 cm**-1
    13:     898.70 cm**-1
    14:     956.44 cm**-1
    15:     982.98 cm**-1
    16:    1016.56 cm**-1
    17:    1082.61 cm**-1
    18:    1100.18 cm**-1
    19:    1292.93 cm**-1
    20:    1393.86 cm**-1
    21:    1399.81 cm**-1
    22:    1433.43 cm**-1
    23:    1460.40 cm**-1
    24:    1471.44 cm**-1
    25:    1480.78 cm**-1
    26:    1493.92 cm**-1
    27:    1703.94 cm**-1
    28:    2992.11 cm**-1
    29:    2997.08 cm**-1
    30:    3048.81 cm**-1
    31:    3050.72 cm**-1
    32:    3102.03 cm**-1
    33:    3103.65 cm**-1
    34:    3120.23 cm**-1
    35:    3205.66 cm**-1

IR SPECTRUM
-----------

 Mode   freq       eps      Int      T**2         TX        TY        TZ
       cm**-1   L/(mol*cm) km/mol    a.u.
----------------------------------------------------------------------------
  6:    179.80   0.000000    0.00  0.000000  ( 0.000011  0.000037  0.000002)
  7:    223.48   0.000188    0.95  0.000263  (-0.000035  0.000004  0.016215)
  8:    387.27   0.000048    0.24  0.000039  (-0.000001  0.006250 -0.000012)
  9:    441.78   0.001714    8.66  0.001210  (-0.000172 -0.000013 -0.034791)
 10:    443.72   0.000308    1.56  0.000217  ( 0.014722  0.000003 -0.000412)
 11:    703.81   0.000000    0.00  0.000000  ( 0.000006 -0.000022 -0.000001)
 12:    817.53   0.000072    0.36  0.000028  ( 0.000000 -0.005244  0.000003)
 13:    898.70   0.009729   49.16  0.003378  ( 0.000009  0.000009 -0.058122)
 14:    956.44   0.000008    0.04  0.000002  ( 0.001574  0.000000 -0.000028)
 15:    982.98   0.000087    0.44  0.000028  (-0.005247  0.000001  0.000002)
 16:   1016.56   0.000000    0.00  0.000000  ( 0.000001 -0.000032  0.000000)
 17:   1082.61   0.000532    2.69  0.000153  ( 0.000001 -0.012387  0.000000)
 18:   1100.18   0.000000    0.00  0.000000  ( 0.000019  0.000015  0.000102)
 19:   1292.93   0.000768    3.88  0.000185  (-0.013618 -0.000001  0.000011)
 20:   1393.86   0.002251   11.37  0.000504  ( 0.022448  0.000001 -0.000013)
 21:   1399.81   0.000170    0.86  0.000038  ( 0.000001  0.006147 -0.000003)
 22:   1433.43   0.000490    2.47  0.000107  ( 0.000001 -0.010325  0.000005)
 23:   1460.40   0.000000    0.00  0.000000  ( 0.000001 -0.000038 -0.000000)
 24:   1471.44   0.000867    4.38  0.000184  ( 0.013557  0.000001  0.000018)
 25:   1480.78   0.003853   19.47  0.000812  (-0.000011 -0.000024 -0.028494)
 26:   1493.92   0.003094   15.63  0.000646  (-0.000002  0.025421 -0.000018)
 27:   1703.94   0.004849   24.50  0.000888  (-0.000002  0.029799 -0.000004)
 28:   2992.11   0.004222   21.33  0.000440  (-0.020983 -0.000003  0.000017)
 29:   2997.08   0.008068   40.77  0.000840  (-0.000003  0.028984 -0.000010)
 30:   3048.81   0.000000    0.00  0.000000  ( 0.000006  0.000030 -0.000000)
 31:   3050.72   0.007809   39.46  0.000799  (-0.000010 -0.000013 -0.028263)
 32:   3102.03   0.005181   26.18  0.000521  ( 0.022829 -0.000014  0.000012)
 33:   3103.65   0.003893   19.67  0.000391  (-0.000016 -0.019785  0.000003)
 34:   3120.23   0.001898    9.59  0.000190  (-0.000001  0.013777 -0.000001)
 35:   3205.66   0.003420   17.29  0.000333  ( 0.018247  0.000000  0.000003)

--------------------------
THERMOCHEMISTRY AT 298.15K
--------------------------

Temperature         ...   298.15 K
Pressure            ...     1.00 atm
Total Mass          ...    56.11 AMU
Quasi RRHO          ...     True
Cut-Off Frequency   ...     1.00 cm^-1

Throughout the following assumptions are being made:
  (1) The electronic state is orbitally nondegenerate
  (2) There are no thermally accessible electronically excited states
  (3) Hindered rotations indicated by low frequency modes are not
      treated as such but are treated as vibrations and this may
      cause some error
  (4) All equations used are the standard statistical mechanics
      equations for an ideal gas
  (5) All vibrations are strictly harmonic

freq.     179.80  E(vib)   ...       0.37
freq.     223.48  E(vib)   ...       0.33
freq.     387.27  E(vib)   ...       0.20
freq.     441.78  E(vib)   ...       0.17
freq.     443.72  E(vib)   ...       0.17
freq.     703.81  E(vib)   ...       0.07
freq.     817.53  E(vib)   ...       0.05
freq.     898.70  E(vib)   ...       0.03
freq.     956.44  E(vib)   ...       0.03
freq.     982.98  E(vib)   ...       0.02
freq.    1016.56  E(vib)   ...       0.02
freq.    1082.61  E(vib)   ...       0.02
freq.    1100.18  E(vib)   ...       0.02
freq.    1292.93  E(vib)   ...       0.01
freq.    1393.86  E(vib)   ...       0.00
freq.    1399.81  E(vib)   ...       0.00
freq.    1433.43  E(vib)   ...       0.00
freq.    1460.40  E(vib)   ...       0.00
freq.    1471.44  E(vib)   ...       0.00
freq.    1480.78  E(vib)   ...       0.00
freq.    1493.92  E(vib)   ...       0.00
freq.    1703.94  E(vib)   ...       0.00
freq.    2992.11  E(vib)   ...       0.00
freq.    2997.08  E(vib)   ...       0.00
freq.    3048.81  E(vib)   ...       0.00
freq.    3050.72  E(vib)   ...       0.00
freq.    3102.03  E(vib)   ...       0.00
freq.    3103.65  E(vib)   ...       0.00
freq.    3120.23  E(vib)   ...       0.00
freq.    3205.66  E(vib)   ...       0.00

------------
INNER ENERGY
------------

The inner energy is: U= E(el) + E(ZPE) + E(vib) + E(rot) + E(trans)
    E(el)   - is the total energy from the electronic structure calculation
              = E(kin-el) + E(nuc-el) + E(el-el) + E(nuc-nuc)
    E(ZPE)  - the the zero temperature vibrational energy from the frequency calculation
    E(vib)  - the the finite temperature correction to E(ZPE) due to population
              of excited vibrational states
    E(rot)  - is the rotational thermal energy
    E(trans)- is the translational thermal energy

Summary of contributions to the inner energy U:
Electronic energy                ...   -157.17769396 Eh
Zero point energy                ...      0.10704120 Eh      67.17 kcal/mol
Thermal vibrational correction   ...      0.00244495 Eh       1.53 kcal/mol
Thermal rotational correction    ...      0.00141627 Eh       0.89 kcal/mol
Thermal translational correction ...      0.00141627 Eh       0.89 kcal/mol
-----------------------------------------------------------------------
Total thermal energy                   -157.06537527 Eh

Summary of corrections to the electronic energy:
(perhaps to be used in another calculation)
Total thermal correction                  0.00527749 Eh       3.31 kcal/mol
Non-thermal (ZPE) correction              0.10704120 Eh      67.17 kcal/mol
-----------------------------------------------------------------------
Total correction                          0.11231869 Eh      70.48 kcal/mol

--------
ENTHALPY
--------

The enthalpy is H = U + kB*T
                kB is Boltzmann's constant
Total thermal energy              ...   -157.06537527 Eh
Thermal Enthalpy correction       ...      0.00094421 Eh       0.59 kcal/mol
-----------------------------------------------------------------------
Total Enthalpy                    ...   -157.06443107 Eh

Note: Only C1 symmetry has been detected, increase convergence thresholds
      if your molecule has a higher symmetry. Symmetry factor of 1.0 is
      used for the rotational entropy correction.

Note: Rotational entropy computed according to Herzberg
Infrared and Raman Spectra, Chapter V,1, Van Nostrand Reinhold, 1945
Point Group:  C1, Symmetry Number:   1
Rotational constants in cm-1:     0.304753     0.281793     0.154795

Vibrational entropy computed according to the QRRHO of S. Grimme
Chem.Eur.J. 2012 18 9955 using a reference frequency of 100.0 cm-1

-------
ENTROPY
-------

The entropy contributions are T*S = T*(S(el)+S(vib)+S(rot)+S(trans))
     S(el)   - electronic entropy
     S(vib)  - vibrational entropy
     S(rot)  - rotational entropy
     S(trans)- translational entropy
The entropies will be listed as multiplied by the temperature to get
units of energy

Electronic entropy                ...      0.00000000 Eh      0.00 kcal/mol
Vibrational entropy               ...      0.00385551 Eh      2.42 kcal/mol
Rotational entropy                ...      0.01155047 Eh      7.25 kcal/mol
Translational entropy             ...      0.01805279 Eh     11.33 kcal/mol
-----------------------------------------------------------------------
Final entropy term                ...      0.03345878 Eh     21.00 kcal/mol

In case the symmetry of your molecule has not been determined correctly
or in case you have a reason to use a different symmetry number we print
out the resulting rotational entropy values for sn=1,12:

 non-linear molecules -----------------------------------
|  sn= 1 | S(rot)=       0.01155047 Eh      7.25 kcal/mol|
|  sn= 2 | S(rot)=       0.01089601 Eh      6.84 kcal/mol|
|  sn= 3 | S(rot)=       0.01051318 Eh      6.60 kcal/mol|
|  sn= 4 | S(rot)=       0.01024156 Eh      6.43 kcal/mol|
|  sn= 5 | S(rot)=       0.01003087 Eh      6.29 kcal/mol|
|  sn= 6 | S(rot)=       0.00985873 Eh      6.19 kcal/mol|
|  sn= 7 | S(rot)=       0.00971318 Eh      6.10 kcal/mol|
|  sn= 8 | S(rot)=       0.00958710 Eh      6.02 kcal/mol|
|  sn= 9 | S(rot)=       0.00947589 Eh      5.95 kcal/mol|
|  sn=10 | S(rot)=       0.00937641 Eh      5.88 kcal/mol|
|  sn=11 | S(rot)=       0.00928642 Eh      5.83 kcal/mol|
|  sn=12 | S(rot)=       0.00920427 Eh      5.78 kcal/mol|
 linear molecules ---------------------------------------
|  Dinfh | S(rot)=       0.00708732 Eh      4.45 kcal/mol|
|  Cinfv | S(rot)=       0.00774177 Eh      4.86 kcal/mol|
 --------------------------------------------------------

-------------------
GIBBS FREE ENERGY
-------------------

The Gibbs free energy is G = H - T*S

Total enthalpy                    ...   -157.06443107 Eh
Total entropy correction          ...     -0.03345878 Eh    -21.00 kcal/mol
-----------------------------------------------------------------------
Final Gibbs free energy         ...   -157.09788984 Eh

For completeness - the Gibbs free energy minus the electronic energy

                             ****ORCA TERMINATED NORMALLY****
TOTAL RUN TIME: 0 days 0 hours 3 minutes 36 seconds 256 msec
