                         Program Version 6.0.1  -  RELEASE   -
|  1> ! pbe def2-sv(p) def2/J RI DEFGRID1 loosescf d4 GCP(DFT/SV(P)) printgap
|  2> %output
|  3>     printlevel normal
|  4> end
|  5> * xyz 0 1
|  6> C -2.3874955011 0.0374762222 -0.1303578026
|  7> C -0.9525091403 0.4899802896 0.1158958617
|  8> C -0.0018565474 -0.6711686634 0.1628295146
|  9> C 1.3153214095 -0.6119159964 0.0424696723
| 10> C 2.1356750554 0.6203557498 -0.1586642732
| 11> H -3.0581887579 0.8934808192 -0.1641410149
| 12> H -2.7208595552 -0.6275035824 0.6637649265
| 13> H -2.4609524318 -0.493620146 -1.0771208548
| 14> H -0.6544758751 1.1861203581 -0.6717069126
| 15> H -0.9047182105 1.0328832014 1.0659121204
| 16> H -0.4678423996 -1.6347856693 0.3220258923
| 17> H 1.889499568 -1.5284478709 0.0980988681
| 18> H 2.8163811088 0.7518156161 0.6826710092
| 19> H 1.5180532089 1.5090427749 -0.2440201913
| 20> H 2.7425538833 0.5230363011 -1.058884554
| 21> *
| 22>
| 23>                          ****END OF INPUT****

CARTESIAN COORDINATES (ANGSTROEM)
---------------------------------
  C     -2.387496    0.037476   -0.130358
  C     -0.952509    0.489980    0.115896
  C     -0.001857   -0.671169    0.162830
  C      1.315321   -0.611916    0.042470
  C      2.135675    0.620356   -0.158664
  H     -3.058189    0.893481   -0.164141
  H     -2.720860   -0.627504    0.663765
  H     -2.460952   -0.493620   -1.077121
  H     -0.654476    1.186120   -0.671707
  H     -0.904718    1.032883    1.065912
  H     -0.467842   -1.634786    0.322026
  H      1.889500   -1.528448    0.098099
  H      2.816381    0.751816    0.682671
  H      1.518053    1.509043   -0.244020
  H      2.742554    0.523036   -1.058885

 Total Charge           Charge          ....    0
 Multiplicity           Mult            ....    1
 Number of Electrons    NEL             ....   40
 Basis Dimension        Dim             ....   90

ORBITAL ENERGIES
----------------

  NO   OCC          E(Eh)            E(eV)
   0   2.0000      -9.885034      -268.9854
   1   2.0000      -9.879574      -268.8369
   2   2.0000      -9.877189      -268.7720
   3   2.0000      -9.877090      -268.7693
   4   2.0000      -9.873257      -268.6650
   5   2.0000      -0.722206       -19.6522
   6   2.0000      -0.673439       -18.3252
   7   2.0000      -0.605429       -16.4746
   8   2.0000      -0.545660       -14.8482
   9   2.0000      -0.467473       -12.7206
  10   2.0000      -0.420713       -11.4482
  11   2.0000      -0.397335       -10.8120
  12   2.0000      -0.380850       -10.3634
  13   2.0000      -0.364446        -9.9171
  14   2.0000      -0.333826        -9.0839
  15   2.0000      -0.324290        -8.8244
  16   2.0000      -0.310589        -8.4516
  17   2.0000      -0.303476        -8.2580
  18   2.0000      -0.279142        -7.5958
  19   2.0000      -0.207983        -5.6595
  20   0.0000      -0.005690        -0.1548
  21   0.0000       0.046286         1.2595
  22   0.0000       0.063930         1.7396
  23   0.0000       0.067157         1.8274
  24   0.0000       0.099826         2.7164

MULLIKEN ATOMIC CHARGES
-----------------------
   0 C :   -0.288958
   1 C :   -0.145609
   2 C :   -0.144286
   3 C :   -0.153349
   4 C :   -0.232078
   5 H :    0.100927
   6 H :    0.102729
   7 H :    0.103936
   8 H :    0.102004
   9 H :    0.103523
  10 H :    0.059747
  11 H :    0.063239
  12 H :    0.111993
  13 H :    0.105758
  14 H :    0.110423
Sum of atomic charges:    0.0000000

LOEWDIN ATOMIC CHARGES
----------------------
   0 C :   -0.338891
   1 C :   -0.235497
   2 C :   -0.155861
   3 C :   -0.152674
   4 C :   -0.337949
   5 H :    0.118360
   6 H :    0.117712
   7 H :    0.118739
   8 H :    0.123122
   9 H :    0.126290
  10 H :    0.117701
  11 H :    0.117207
  12 H :    0.130637
  13 H :    0.122116
  14 H :    0.128987

  Mayer bond orders larger than 0.100000
B(  0-C ,  1-C ) :   1.1454 B(  0-C ,  5-H ) :   0.9529 B(  0-C ,  6-H ) :   0.9540
B(  0-C ,  7-H ) :   0.9594 B(  1-C ,  2-C ) :   1.0614 B(  1-C ,  8-H ) :   0.9127
B(  1-C ,  9-H ) :   0.9107 B(  2-C ,  3-C ) :   1.9961 B(  2-C , 10-H ) :   0.9348
B(  3-C ,  4-C ) :   1.1223 B(  3-C , 11-H ) :   0.9288 B(  4-C , 12-H ) :   0.9350
B(  4-C , 13-H ) :   0.9388 B(  4-C , 14-H ) :   0.9374

Dispersion correction           -0.009659536
FINAL SINGLE POINT ENERGY      -196.029411063602

DIPOLE MOMENT
-------------

Method             : SCF
Type of density    : Electron Density
Multiplicity       :   1
Irrep              :   0
Energy             :  -196.0776343492728131 Eh
Relativity type    :
Basis              : AO
                                X                 Y                 Z
Electronic contribution:      1.269459968      -1.394545768       0.365767870
Nuclear contribution   :     -1.220127436       1.512339274      -0.359692376
                        -----------------------------------------
Total Dipole Moment    :      0.049332532       0.117793506       0.006075494
                        -----------------------------------------
Magnitude (a.u.)       :      0.127851165
Magnitude (Debye)      :      0.324971836

Rotational constants in cm-1:             0.474150             0.081610             0.073027
Rotational constants in MHz :         14214.646633          2446.595966          2189.287800

                             ****ORCA TERMINATED NORMALLY****
TOTAL RUN TIME: 0 days 0 hours 0 minutes 5 seconds 754 msec
