                         Program Version 6.0.1  -  RELEASE   -
|  1> ! pbe def2-sv(p) def2/J RI DEFGRID1 loosescf d4 GCP(DFT/SV(P)) printgap
|  2> %output
|  3>     printlevel normal
|  4> end
|  5> * xyz 0 1
|  6> C -2.0609341479 0.4489763706 -0.3298438445
|  7> C -0.8259047159 0.2794986837 0.5476866861
|  8> C 0.4180789432 -0.1472047087 -0.2583365122
|  9> C 1.5160786602 0.9118514673 -0.1808674414
| 10> C 0.9534914954 -1.4939899193 0.224004788
| 11> H -2.9175719345 0.7520898695 0.2687903198
| 12> H -2.306574194 -0.4863181227 -0.8285032588
| 13> H -1.8891983865 1.208565113 -1.0895981114
| 14> H -0.625477482 1.2219901921 1.0606309578
| 15> H -1.0393592857 -0.4659679431 1.3159944747
| 16> H 0.1294892021 -0.2567406597 -1.3094228805
| 17> H 1.1505146439 1.8701091625 -0.543506769
| 18> H 2.372046389 0.6214921553 -0.7868095932
| 19> H 1.8516237033 1.0362560185 0.8469450069
| 20> H 1.2717413229 -1.4262880954 1.2625238668
| 21> H 1.8071310964 -1.8037774664 -0.375508565
| 22> H 0.1859794708 -2.2610651236 0.1469602434
| 23> *
| 24>
| 25>                          ****END OF INPUT****

CARTESIAN COORDINATES (ANGSTROEM)
---------------------------------
  C     -2.060934    0.448976   -0.329844
  C     -0.825905    0.279499    0.547687
  C      0.418079   -0.147205   -0.258337
  C      1.516079    0.911851   -0.180867
  C      0.953491   -1.493990    0.224005
  H     -2.917572    0.752090    0.268790
  H     -2.306574   -0.486318   -0.828503
  H     -1.889198    1.208565   -1.089598
  H     -0.625477    1.221990    1.060631
  H     -1.039359   -0.465968    1.315994
  H      0.129489   -0.256741   -1.309423
  H      1.150515    1.870109   -0.543507
  H      2.372046    0.621492   -0.786810
  H      1.851624    1.036256    0.846945
  H      1.271741   -1.426288    1.262524
  H      1.807131   -1.803777   -0.375509
  H      0.185979   -2.261065    0.146960

 Total Charge           Charge          ....    0
 Multiplicity           Mult            ....    1
 Number of Electrons    NEL             ....   42
 Basis Dimension        Dim             ....   94

ORBITAL ENERGIES
----------------

  NO   OCC          E(Eh)            E(eV)
   0   2.0000      -9.888761      -269.0869
   1   2.0000      -9.876842      -268.7625
   2   2.0000      -9.870524      -268.5906
   3   2.0000      -9.868561      -268.5372
   4   2.0000      -9.868483      -268.5351
   5   2.0000      -0.727409       -19.7938
   6   2.0000      -0.656056       -17.8522
   7   2.0000      -0.606594       -16.5063
   8   2.0000      -0.549221       -14.9451
   9   2.0000      -0.495382       -13.4800
  10   2.0000      -0.402419       -10.9504
  11   2.0000      -0.400527       -10.8989
  12   2.0000      -0.390882       -10.6364
  13   2.0000      -0.353093        -9.6081
  14   2.0000      -0.345325        -9.3968
  15   2.0000      -0.336175        -9.1478
  16   2.0000      -0.315699        -8.5906
  17   2.0000      -0.300685        -8.1821
  18   2.0000      -0.275971        -7.5096
  19   2.0000      -0.273688        -7.4474
  20   2.0000      -0.269900        -7.3443
  21   0.0000       0.036331         0.9886
  22   0.0000       0.064543         1.7563
  23   0.0000       0.075920         2.0659
  24   0.0000       0.078925         2.1477
  25   0.0000       0.103966         2.8291

MULLIKEN ATOMIC CHARGES
-----------------------
   0 C :   -0.295721
   1 C :   -0.142322
   2 C :   -0.169859
   3 C :   -0.257772
   4 C :   -0.257842
   5 H :    0.099878
   6 H :    0.102768
   7 H :    0.102920
   8 H :    0.080390
   9 H :    0.080425
  10 H :    0.074003
  11 H :    0.099972
  12 H :    0.095081
  13 H :    0.096552
  14 H :    0.096544
  15 H :    0.094985
  16 H :    0.100000
Sum of atomic charges:   -0.0000000

LOEWDIN ATOMIC CHARGES
----------------------
   0 C :   -0.339156
   1 C :   -0.225289
   2 C :   -0.157742
   3 C :   -0.329672
   4 C :   -0.329745
   5 H :    0.116773
   6 H :    0.115917
   7 H :    0.115953
   8 H :    0.114587
   9 H :    0.114507
  10 H :    0.112375
  11 H :    0.115527
  12 H :    0.114880
  13 H :    0.115345
  14 H :    0.115398
  15 H :    0.114822
  16 H :    0.115520

  Mayer bond orders larger than 0.100000
B(  0-C ,  1-C ) :   1.1573 B(  0-C ,  5-H ) :   0.9512 B(  0-C ,  6-H ) :   0.9547
B(  0-C ,  7-H ) :   0.9545 B(  1-C ,  2-C ) :   1.0337 B(  1-C ,  8-H ) :   0.9298
B(  1-C ,  9-H ) :   0.9304 B(  2-C ,  3-C ) :   1.1208 B(  2-C ,  4-C ) :   1.1201
B(  2-C , 10-H ) :   0.9176 B(  3-C , 11-H ) :   0.9502 B(  3-C , 12-H ) :   0.9518
B(  3-C , 13-H ) :   0.9486 B(  4-C , 14-H ) :   0.9488 B(  4-C , 15-H ) :   0.9520
B(  4-C , 16-H ) :   0.9501

Dispersion correction           -0.011408742
FINAL SINGLE POINT ENERGY      -197.233072051711

DIPOLE MOMENT
-------------

Method             : SCF
Type of density    : Electron Density
Multiplicity       :   1
Irrep              :   0
Energy             :  -197.2907946581411807 Eh
Relativity type    :
Basis              : AO
                                X                 Y                 Z
Electronic contribution:     -0.011654882      -0.007251107       0.015936368
Nuclear contribution   :     -0.009058369       0.009705367      -0.029556108
                        -----------------------------------------
Total Dipole Moment    :     -0.020713251       0.002454260      -0.013619739
                        -----------------------------------------
Magnitude (a.u.)       :      0.024911031
Magnitude (Debye)      :      0.063318808

Rotational constants in cm-1:             0.233840             0.109218             0.086242
Rotational constants in MHz :          7010.335943          3274.260980          2585.482659

                             ****ORCA TERMINATED NORMALLY****
TOTAL RUN TIME: 0 days 0 hours 0 minutes 16 seconds 268 msec
