                         Program Version 6.0.1  -  RELEASE   -
|  1> ! r2scan-3c def2/J RI DEFGRID2 scfconv6 printgap
|  2> %output
|  3>     printlevel normal
|  4> end
|  5> * xyz 0 1
|  6> C -1.3807958021 -0.8859803299 0.222789342
|  7> S 0.0024331452 0.175990082 -0.4306235765
|  8> O 0.0019805559 1.3782749762 0.4011529854
|  9> C 1.374994755 -0.8806095751 0.2217510312
| 10> H -1.0028387148 -1.7720721084 0.7174624166
| 11> H -2.0077956021 -1.1693282025 -0.6158328984
| 12> H -1.9463558001 -0.2756595087 0.9178989945
| 13> H 2.310833826 -0.3884970343 -0.0230450744
| 14> H 1.3261935222 -1.8491381855 -0.2626346403
| 15> H 1.2802584677 -0.9698543553 1.2983075329
| 16> *
| 17>
| 18>                          ****END OF INPUT****

CARTESIAN COORDINATES (ANGSTROEM)
---------------------------------
  C     -1.380796   -0.885980    0.222789
  S      0.002433    0.175990   -0.430624
  O      0.001981    1.378275    0.401153
  C      1.374995   -0.880610    0.221751
  H     -1.002839   -1.772072    0.717462
  H     -2.007796   -1.169328   -0.615833
  H     -1.946356   -0.275660    0.917899
  H      2.310834   -0.388497   -0.023045
  H      1.326194   -1.849138   -0.262635
  H      1.280258   -0.969854    1.298308

 Total Charge           Charge          ....    0
 Multiplicity           Mult            ....    1
 Number of Electrons    NEL             ....   42
 Basis Dimension        Dim             ....  119

ORBITAL ENERGIES
----------------

  NO   OCC          E(Eh)            E(eV)
   0   2.0000     -88.661467     -2412.6012
   1   2.0000     -18.906482      -514.4715
   2   2.0000     -10.056841      -273.6605
   3   2.0000     -10.055077      -273.6125
   4   2.0000      -7.944584      -216.1831
   5   2.0000      -5.890972      -160.3015
   6   2.0000      -5.889801      -160.2696
   7   2.0000      -5.883055      -160.0861
   8   2.0000      -0.991230       -26.9727
   9   2.0000      -0.748124       -20.3575
  10   2.0000      -0.686148       -18.6710
  11   2.0000      -0.570126       -15.5139
  12   2.0000      -0.433910       -11.8073
  13   2.0000      -0.427473       -11.6321
  14   2.0000      -0.422724       -11.5029
  15   2.0000      -0.396113       -10.7788
  16   2.0000      -0.379311       -10.3216
  17   2.0000      -0.360814        -9.8182
  18   2.0000      -0.332003        -9.0343
  19   2.0000      -0.241770        -6.5789
  20   2.0000      -0.200899        -5.4667
  21   0.0000       0.004998         0.1360
  22   0.0000       0.013860         0.3771
  23   0.0000       0.055598         1.5129
  24   0.0000       0.090595         2.4652
  25   0.0000       0.136307         3.7091

MULLIKEN ATOMIC CHARGES
-----------------------
   0 C :   -0.470014
   1 S :    0.450355
   2 O :   -0.537983
   3 C :   -0.459326
   4 H :    0.160419
   5 H :    0.164799
   6 H :    0.192741
   7 H :    0.170190
   8 H :    0.151548
   9 H :    0.177271
Sum of atomic charges:    0.0000000

LOEWDIN ATOMIC CHARGES
----------------------
   0 C :   -0.450050
   1 S :    0.615063
   2 O :   -0.722617
   3 C :   -0.450782
   4 H :    0.163936
   5 H :    0.163426
   6 H :    0.180978
   7 H :    0.169417
   8 H :    0.162202
   9 H :    0.168427

  Mayer bond orders larger than 0.100000
B(  0-C ,  1-S ) :   0.8630 B(  0-C ,  4-H ) :   0.9473 B(  0-C ,  5-H ) :   0.9517
B(  0-C ,  6-H ) :   0.9446 B(  1-S ,  2-O ) :   1.4969 B(  1-S ,  3-C ) :   0.8902
B(  3-C ,  7-H ) :   0.9441 B(  3-C ,  8-H ) :   0.9426 B(  3-C ,  9-H ) :   0.9442

Dispersion correction           -0.002095478
FINAL SINGLE POINT ENERGY      -553.129043282429

DIPOLE MOMENT
-------------

Method             : SCF
Type of density    : Electron Density
Multiplicity       :   1
Irrep              :   0
Energy             :  -553.1382446744186154 Eh
Relativity type    :
Basis              : AO
                                X                 Y                 Z
Electronic contribution:      0.022783262       4.587291115      -2.083594610
Nuclear contribution   :     -0.037290443      -6.011985999       1.924917078
                        -----------------------------------------
Total Dipole Moment    :     -0.014507181      -1.424694885      -0.158677532
                        -----------------------------------------
Magnitude (a.u.)       :      1.433577529
Magnitude (Debye)      :      3.643864497

Rotational constants in cm-1:             0.232514             0.220197             0.137493
Rotational constants in MHz :          6970.580710          6601.351260          4121.935171

                             ****ORCA TERMINATED NORMALLY****
TOTAL RUN TIME: 0 days 0 hours 0 minutes 7 seconds 397 msec
