                         Program Version 6.0.1  -  RELEASE   -
|  1> ! pbe def2-sv(p) def2/J RI DEFGRID1 loosescf d4 GCP(DFT/SV(P)) printgap
|  2> %output
|  3>     printlevel normal
|  4> end
|  5> * xyz 0 1
|  6> C -3.3823189394 -0.8050875148 -0.0464472651
|  7> O -1.9876392627 -0.7640574119 -0.3141155997
|  8> C -1.3490767652 0.3535679622 0.0544824728
|  9> O -1.9038042065 1.2792452314 0.5880502395
| 10> C 0.1271633626 0.3246519189 -0.2918937564
| 11> C 0.6675477021 -1.0802327958 -0.5523086484
| 12> C 2.1479474135 -1.0124987336 -0.9197927974
| 13> C 2.9487159482 -0.3257047874 0.1824901125
| 14> C 2.405800634 1.0765777488 0.4415962775
| 15> C 0.9296736509 1.0131314137 0.8166495317
| 16> H -3.7060951407 -1.8184199984 -0.2699039216
| 17> H -3.9100119008 -0.0871895711 -0.6777121807
| 18> H -3.5747192392 -0.5590608794 0.9996558796
| 19> H 0.2297082671 0.9189597995 -1.2096337023
| 20> H 0.5409722249 -1.6869356881 0.3465906896
| 21> H 0.1043445218 -1.5538519887 -1.3572637528
| 22> H 2.5310062668 -2.0215172446 -1.0846583186
| 23> H 2.2645569997 -0.4547633707 -1.8520448884
| 24> H 2.8806920484 -0.9149286829 1.0997646227
| 25> H 4.0013271023 -0.2709836935 -0.1025717854
| 26> H 2.9696808982 1.5523698457 1.2461071501
| 27> H 2.5274107748 1.6849604578 -0.4576148675
| 28> H 0.8122239371 0.4482532805 1.7443308201
| 29> H 0.5299892385 2.0142765 0.9829971783
| 30> *
| 31>
| 32>                          ****END OF INPUT****

CARTESIAN COORDINATES (ANGSTROEM)
---------------------------------
  C     -3.382319   -0.805088   -0.046447
  O     -1.987639   -0.764057   -0.314116
  C     -1.349077    0.353568    0.054482
  O     -1.903804    1.279245    0.588050
  C      0.127163    0.324652   -0.291894
  C      0.667548   -1.080233   -0.552309
  C      2.147947   -1.012499   -0.919793
  C      2.948716   -0.325705    0.182490
  C      2.405801    1.076578    0.441596
  C      0.929674    1.013131    0.816650
  H     -3.706095   -1.818420   -0.269904
  H     -3.910012   -0.087190   -0.677712
  H     -3.574719   -0.559061    0.999656
  H      0.229708    0.918960   -1.209634
  H      0.540972   -1.686936    0.346591
  H      0.104345   -1.553852   -1.357264
  H      2.531006   -2.021517   -1.084658
  H      2.264557   -0.454763   -1.852045
  H      2.880692   -0.914929    1.099765
  H      4.001327   -0.270984   -0.102572
  H      2.969681    1.552370    1.246107
  H      2.527411    1.684960   -0.457615
  H      0.812224    0.448253    1.744331
  H      0.529989    2.014276    0.982997

 Total Charge           Charge          ....    0
 Multiplicity           Mult            ....    1
 Number of Electrons    NEL             ....   78
 Basis Dimension        Dim             ....  168

ORBITAL ENERGIES
----------------

  NO   OCC          E(Eh)            E(eV)
   0   2.0000     -18.797207      -511.4980
   1   2.0000     -18.734702      -509.7972
   2   2.0000     -10.002276      -272.1758
   3   2.0000      -9.939026      -270.4547
   4   2.0000      -9.903777      -269.4955
   5   2.0000      -9.884278      -268.9649
   6   2.0000      -9.883928      -268.9554
   7   2.0000      -9.883465      -268.9428
   8   2.0000      -9.883005      -268.9302
   9   2.0000      -9.882190      -268.9081
  10   2.0000      -1.005510       -27.3613
  11   2.0000      -0.913456       -24.8564
  12   2.0000      -0.761854       -20.7311
  13   2.0000      -0.692505       -18.8440
  14   2.0000      -0.667654       -18.1678
  15   2.0000      -0.647842       -17.6287
  16   2.0000      -0.559946       -15.2369
  17   2.0000      -0.542273       -14.7560
  18   2.0000      -0.505996       -13.7688
  19   2.0000      -0.500464       -13.6183
  20   2.0000      -0.458509       -12.4767
  21   2.0000      -0.436285       -11.8719
  22   2.0000      -0.414294       -11.2735
  23   2.0000      -0.409926       -11.1546
  24   2.0000      -0.397162       -10.8073
  25   2.0000      -0.393423       -10.7056
  26   2.0000      -0.377757       -10.2793
  27   2.0000      -0.352877        -9.6023
  28   2.0000      -0.345717        -9.4074
  29   2.0000      -0.336525        -9.1573
  30   2.0000      -0.330668        -8.9979
  31   2.0000      -0.305644        -8.3170
  32   2.0000      -0.303665        -8.2631
  33   2.0000      -0.299043        -8.1374
  34   2.0000      -0.284217        -7.7339
  35   2.0000      -0.270605        -7.3635
  36   2.0000      -0.259868        -7.0714
  37   2.0000      -0.257436        -7.0052
  38   2.0000      -0.217341        -5.9141
  39   0.0000      -0.019159        -0.5213
  40   0.0000       0.036090         0.9821
  41   0.0000       0.047201         1.2844
  42   0.0000       0.056366         1.5338
  43   0.0000       0.073098         1.9891

MULLIKEN ATOMIC CHARGES
-----------------------
   0 C :   -0.110838
   1 O :   -0.237902
   2 C :    0.182937
   3 O :   -0.192846
   4 C :   -0.237064
   5 C :   -0.107579
   6 C :   -0.130162
   7 C :   -0.166735
   8 C :   -0.123132
   9 C :   -0.141017
  10 H :    0.119506
  11 H :    0.115806
  12 H :    0.119533
  13 H :    0.093529
  14 H :    0.074041
  15 H :    0.090133
  16 H :    0.085258
  17 H :    0.070199
  18 H :    0.075048
  19 H :    0.084800
  20 H :    0.087161
  21 H :    0.071492
  22 H :    0.076055
  23 H :    0.101776
Sum of atomic charges:   -0.0000000

LOEWDIN ATOMIC CHARGES
----------------------
   0 C :   -0.207346
   1 O :   -0.070173
   2 C :    0.045308
   3 O :   -0.153809
   4 C :   -0.167261
   5 C :   -0.219115
   6 C :   -0.225707
   7 C :   -0.228150
   8 C :   -0.225469
   9 C :   -0.211487
  10 H :    0.118997
  11 H :    0.117724
  12 H :    0.119083
  13 H :    0.138305
  14 H :    0.116219
  15 H :    0.119347
  16 H :    0.116653
  17 H :    0.113609
  18 H :    0.114112
  19 H :    0.115842
  20 H :    0.117758
  21 H :    0.114298
  22 H :    0.116883
  23 H :    0.124379

  Mayer bond orders larger than 0.100000
B(  0-C ,  1-O ) :   0.9471 B(  0-C , 10-H ) :   0.9589 B(  0-C , 11-H ) :   0.9544
B(  0-C , 12-H ) :   0.9478 B(  1-O ,  2-C ) :   1.2218 B(  2-C ,  3-O ) :   2.0723
B(  2-C ,  4-C ) :   0.9537 B(  4-C ,  5-C ) :   1.0984 B(  4-C ,  9-C ) :   1.1001
B(  4-C , 13-H ) :   0.8553 B(  5-C ,  6-C ) :   1.1308 B(  5-C , 14-H ) :   0.9131
B(  5-C , 15-H ) :   0.9063 B(  6-C ,  7-C ) :   1.1345 B(  6-C , 16-H ) :   0.9201
B(  6-C , 17-H ) :   0.9100 B(  7-C ,  8-C ) :   1.1311 B(  7-C , 18-H ) :   0.9152
B(  7-C , 19-H ) :   0.9197 B(  8-C ,  9-C ) :   1.1382 B(  8-C , 20-H ) :   0.9199
B(  8-C , 21-H ) :   0.9103 B(  9-C , 22-H ) :   0.9143 B(  9-C , 23-H ) :   0.9065

Dispersion correction           -0.022590236
FINAL SINGLE POINT ENERGY      -462.706926777165

DIPOLE MOMENT
-------------

Method             : SCF
Type of density    : Electron Density
Multiplicity       :   1
Irrep              :   0
Energy             :  -462.7952421398190381 Eh
Relativity type    :
Basis              : AO
                                X                 Y                 Z
Electronic contribution:     -7.596710817       1.986971628       0.270361010
Nuclear contribution   :      7.636293733      -2.571224845      -0.551293244
                        -----------------------------------------
Total Dipole Moment    :      0.039582916      -0.584253217      -0.280932234
                        -----------------------------------------
Magnitude (a.u.)       :      0.649493302
Magnitude (Debye)      :      1.650880776

Rotational constants in cm-1:             0.097244             0.026287             0.021759
Rotational constants in MHz :          2915.287044           788.075719           652.326669

                             ****ORCA TERMINATED NORMALLY****
TOTAL RUN TIME: 0 days 0 hours 0 minutes 8 seconds 324 msec
