                         Program Version 6.0.1  -  RELEASE   -
|  1> ! pbe def2-sv(p) def2/J RI DEFGRID1 loosescf d4 GCP(DFT/SV(P)) printgap
|  2> %output
|  3>     printlevel normal
|  4> end
|  5> * xyz 0 1
|  6> C -4.3829747188 -0.0007585739 -0.0011586738
|  7> C -3.6894833458 -0.1738437036 -1.1869370011
|  8> C -2.3061000294 -0.1733089983 -1.1889193885
|  9> C -1.6097726797 0.0004602655 0.000201567
| 10> C -2.3073646893 0.1737420168 1.1886219308
| 11> C -3.690766819 0.1730597413 1.185254287
| 12> C -0.1286030874 0.0004768779 0.0006062965
| 13> C 0.5930927827 -1.1753354907 0.1924643668
| 14> C 1.9784975968 -1.1919150619 0.1944193088
| 15> C 2.6592030079 -0.0003501861 -0.0002184435
| 16> C 1.9790734386 1.1916419187 -0.1942250501
| 17> C 0.5936455514 1.1759023449 -0.1914322974
| 18> Cl -0.2665024262 2.6503327149 -0.4309173353
| 19> Cl 4.3805497489 -0.000903751 -0.0009563417
| 20> Cl -0.2677949528 -2.6492677236 0.4324254316
| 21> H -5.4628429067 -0.0016187941 -0.0016252354
| 22> H -4.226458059 -0.3102144644 -2.1138981607
| 23> H -1.7592676069 -0.3081000137 -2.1107423424
| 24> H -1.7615999033 0.3090078872 2.1110060243
| 25> H -4.2287871383 0.3085771453 2.1117371957
| 26> H 2.5134140696 -2.1152408422 0.3444922814
| 27> H 2.5144667545 2.1146446023 -0.3446106329
| 28> *
| 29>
| 30>                          ****END OF INPUT****

CARTESIAN COORDINATES (ANGSTROEM)
---------------------------------
  C     -4.382975   -0.000759   -0.001159
  C     -3.689483   -0.173844   -1.186937
  C     -2.306100   -0.173309   -1.188919
  C     -1.609773    0.000460    0.000202
  C     -2.307365    0.173742    1.188622
  C     -3.690767    0.173060    1.185254
  C     -0.128603    0.000477    0.000606
  C      0.593093   -1.175335    0.192464
  C      1.978498   -1.191915    0.194419
  C      2.659203   -0.000350   -0.000218
  C      1.979073    1.191642   -0.194225
  C      0.593646    1.175902   -0.191432
  Cl    -0.266502    2.650333   -0.430917
  Cl     4.380550   -0.000904   -0.000956
  Cl    -0.267795   -2.649268    0.432425
  H     -5.462843   -0.001619   -0.001625
  H     -4.226458   -0.310214   -2.113898
  H     -1.759268   -0.308100   -2.110742
  H     -1.761600    0.309008    2.111006
  H     -4.228787    0.308577    2.111737
  H      2.513414   -2.115241    0.344492
  H      2.514467    2.114645   -0.344611

 Total Charge           Charge          ....    0
 Multiplicity           Mult            ....    1
 Number of Electrons    NEL             ....  130
 Basis Dimension        Dim             ....  236

ORBITAL ENERGIES
----------------

  NO   OCC          E(Eh)            E(eV)
   0   2.0000    -100.651892     -2738.8772
   1   2.0000    -100.651341     -2738.8622
   2   2.0000    -100.651327     -2738.8618
   3   2.0000      -9.971468      -271.3374
   4   2.0000      -9.971457      -271.3371
   5   2.0000      -9.968893      -271.2674
   6   2.0000      -9.932251      -270.2703
   7   2.0000      -9.918545      -269.8973
   8   2.0000      -9.918542      -269.8973
   9   2.0000      -9.917801      -269.8771
  10   2.0000      -9.899514      -269.3795
  11   2.0000      -9.899502      -269.3791
  12   2.0000      -9.896419      -269.2953
  13   2.0000      -9.896368      -269.2939
  14   2.0000      -9.895357      -269.2664
  15   2.0000      -9.188066      -250.0200
  16   2.0000      -9.187195      -249.9963
  17   2.0000      -9.187185      -249.9960
  18   2.0000      -7.019439      -191.0086
  19   2.0000      -7.018603      -190.9859
  20   2.0000      -7.018600      -190.9858
  21   2.0000      -7.008052      -190.6988
  22   2.0000      -7.007342      -190.6795
  23   2.0000      -7.007296      -190.6782
  24   2.0000      -7.007293      -190.6781
  25   2.0000      -7.006344      -190.6523
  26   2.0000      -7.006341      -190.6522
  27   2.0000      -0.850414       -23.1409
  28   2.0000      -0.813878       -22.1467
  29   2.0000      -0.811049       -22.0698
  30   2.0000      -0.782919       -21.3043
  31   2.0000      -0.746204       -20.3052
  32   2.0000      -0.707635       -19.2557
  33   2.0000      -0.676590       -18.4109
  34   2.0000      -0.674652       -18.3582
  35   2.0000      -0.651702       -17.7337
  36   2.0000      -0.567250       -15.4357
  37   2.0000      -0.559228       -15.2174
  38   2.0000      -0.550039       -14.9673
  39   2.0000      -0.532299       -14.4846
  40   2.0000      -0.490883       -13.3576
  41   2.0000      -0.469079       -12.7643
  42   2.0000      -0.460456       -12.5296
  43   2.0000      -0.427883       -11.6433
  44   2.0000      -0.419421       -11.4130
  45   2.0000      -0.412261       -11.2182
  46   2.0000      -0.408538       -11.1169
  47   2.0000      -0.391880       -10.6636
  48   2.0000      -0.386624       -10.5206
  49   2.0000      -0.380031       -10.3412
  50   2.0000      -0.361829        -9.8459
  51   2.0000      -0.360119        -9.7993
  52   2.0000      -0.334894        -9.1129
  53   2.0000      -0.333721        -9.0810
  54   2.0000      -0.333097        -9.0640
  55   2.0000      -0.309989        -8.4352
  56   2.0000      -0.308736        -8.4011
  57   2.0000      -0.284216        -7.7339
  58   2.0000      -0.282459        -7.6861
  59   2.0000      -0.271977        -7.4009
  60   2.0000      -0.271464        -7.3869
  61   2.0000      -0.235960        -6.4208
  62   2.0000      -0.230717        -6.2781
  63   2.0000      -0.229299        -6.2395
  64   2.0000      -0.227195        -6.1823
  65   0.0000      -0.062829        -1.7097
  66   0.0000      -0.060414        -1.6440
  67   0.0000      -0.043177        -1.1749
  68   0.0000      -0.038609        -1.0506
  69   0.0000      -0.024594        -0.6692

MULLIKEN ATOMIC CHARGES
-----------------------
   0 C :   -0.043151
   1 C :   -0.047947
   2 C :   -0.060533
   3 C :    0.009885
   4 C :   -0.060552
   5 C :   -0.047958
   6 C :    0.061950
   7 C :    0.043118
   8 C :   -0.101945
   9 C :    0.123442
  10 C :   -0.101963
  11 C :    0.043085
  12 Cl:   -0.051190
  13 Cl:   -0.068558
  14 Cl:   -0.051177
  15 H :    0.057065
  16 H :    0.056321
  17 H :    0.046907
  18 H :    0.046888
  19 H :    0.056321
  20 H :    0.044994
  21 H :    0.044997
Sum of atomic charges:   -0.0000000

LOEWDIN ATOMIC CHARGES
----------------------
   0 C :   -0.119479
   1 C :   -0.117553
   2 C :   -0.107538
   3 C :   -0.049193
   4 C :   -0.107547
   5 C :   -0.117552
   6 C :   -0.070370
   7 C :   -0.118017
   8 C :   -0.162766
   9 C :   -0.128482
  10 C :   -0.162767
  11 C :   -0.118034
  12 Cl:    0.161502
  13 Cl:    0.147845
  14 Cl:    0.161519
  15 H :    0.125177
  16 H :    0.125924
  17 H :    0.127074
  18 H :    0.127074
  19 H :    0.125923
  20 H :    0.138629
  21 H :    0.138629

  Mayer bond orders larger than 0.100000
B(  0-C ,  1-C ) :   1.3795 B(  0-C ,  5-C ) :   1.3795 B(  0-C , 15-H ) :   0.9643
B(  1-C ,  2-C ) :   1.3630 B(  1-C , 16-H ) :   0.9629 B(  2-C ,  3-C ) :   1.3892
B(  2-C , 17-H ) :   0.9645 B(  3-C ,  4-C ) :   1.3892 B(  3-C ,  6-C ) :   0.9631
B(  4-C ,  5-C ) :   1.3630 B(  4-C , 18-H ) :   0.9646 B(  5-C , 19-H ) :   0.9629
B(  6-C ,  7-C ) :   1.4325 B(  6-C , 11-C ) :   1.4325 B(  7-C ,  8-C ) :   1.3336
B(  7-C , 14-Cl) :   1.0388 B(  8-C ,  9-C ) :   1.3274 B(  8-C , 20-H ) :   0.9732
B(  9-C , 10-C ) :   1.3274 B(  9-C , 13-Cl) :   0.9648 B( 10-C , 11-C ) :   1.3335
B( 10-C , 21-H ) :   0.9732 B( 11-C , 12-Cl) :   1.0388

Dispersion correction           -0.036807025
FINAL SINGLE POINT ENERGY     -1840.126905216664

DIPOLE MOMENT
-------------

Method             : SCF
Type of density    : Electron Density
Multiplicity       :   1
Irrep              :   0
Energy             : -1840.1651642568133411 Eh
Relativity type    :
Basis              : AO
                                X                 Y                 Z
Electronic contribution:     16.555642467       0.002599580       0.004008382
Nuclear contribution   :    -16.806234001      -0.002978856      -0.004156344
                        -----------------------------------------
Total Dipole Moment    :     -0.250591534      -0.000379276      -0.000147962
                        -----------------------------------------
Magnitude (a.u.)       :      0.250591865
Magnitude (Debye)      :      0.636953901

Rotational constants in cm-1:             0.024901             0.009565             0.007445
Rotational constants in MHz :           746.499525           286.748660           223.185596

                             ****ORCA TERMINATED NORMALLY****
TOTAL RUN TIME: 0 days 0 hours 0 minutes 15 seconds 308 msec
