                         Program Version 6.0.1  -  RELEASE   -
|  1> ! pbe def2-sv(p) def2/J RI DEFGRID1 loosescf d4 GCP(DFT/SV(P)) printgap
|  2> %output
|  3>     printlevel normal
|  4> end
|  5> * xyz 0 1
|  6> C -1.9483202593 0.1414480145 -0.0002559898
|  7> C -0.5807201211 -0.5282854246 0.0003075126
|  8> C 0.5582286282 0.500630845 0.0002606461
|  9> N 1.8949222535 -0.0665329752 -0.0003211457
| 10> H -2.7403110406 -0.6039810206 0.0009617143
| 11> H -2.0645708384 0.7688087637 0.8807299153
| 12> H -2.0651683668 0.7666081203 -0.8827432757
| 13> H -0.4859844595 -1.1669495024 -0.8828020192
| 14> H -0.4864559028 -1.1666747368 0.8836815317
| 15> H 0.4722248136 1.1388449743 -0.8838635518
| 16> H 0.4726907591 1.1382199206 0.8848523928
| 17> H 2.0255367368 -0.6526388619 0.8182077689
| 18> H 2.0243474845 -0.6536946703 -0.8182816131
| 19> *
| 20>
| 21>                          ****END OF INPUT****

CARTESIAN COORDINATES (ANGSTROEM)
---------------------------------
  C     -1.948320    0.141448   -0.000256
  C     -0.580720   -0.528285    0.000308
  C      0.558229    0.500631    0.000261
  N      1.894922   -0.066533   -0.000321
  H     -2.740311   -0.603981    0.000962
  H     -2.064571    0.768809    0.880730
  H     -2.065168    0.766608   -0.882743
  H     -0.485984   -1.166950   -0.882802
  H     -0.486456   -1.166675    0.883682
  H      0.472225    1.138845   -0.883864
  H      0.472691    1.138220    0.884852
  H      2.025537   -0.652639    0.818208
  H      2.024347   -0.653695   -0.818282

 Total Charge           Charge          ....    0
 Multiplicity           Mult            ....    1
 Number of Electrons    NEL             ....   34
 Basis Dimension        Dim             ....   74

ORBITAL ENERGIES
----------------

  NO   OCC          E(Eh)            E(eV)
   0   2.0000     -13.953295      -379.6885
   1   2.0000      -9.902301      -269.4553
   2   2.0000      -9.881143      -268.8796
   3   2.0000      -9.873769      -268.6789
   4   2.0000      -0.790771       -21.5180
   5   2.0000      -0.687541       -18.7089
   6   2.0000      -0.583798       -15.8860
   7   2.0000      -0.522738       -14.2244
   8   2.0000      -0.449227       -12.2241
   9   2.0000      -0.398411       -10.8413
  10   2.0000      -0.392836       -10.6896
  11   2.0000      -0.357326        -9.7233
  12   2.0000      -0.323574        -8.8049
  13   2.0000      -0.322270        -8.7694
  14   2.0000      -0.300877        -8.1873
  15   2.0000      -0.287675        -7.8280
  16   2.0000      -0.176828        -4.8117
  17   0.0000       0.034421         0.9366
  18   0.0000       0.053514         1.4562
  19   0.0000       0.068751         1.8708
  20   0.0000       0.083841         2.2814
  21   0.0000       0.119914         3.2630

MULLIKEN ATOMIC CHARGES
-----------------------
   0 C :   -0.278970
   1 C :   -0.202708
   2 C :   -0.098401
   3 N :   -0.437789
   4 H :    0.103539
   5 H :    0.099666
   6 H :    0.099686
   7 H :    0.075753
   8 H :    0.075767
   9 H :    0.084369
  10 H :    0.084361
  11 H :    0.197366
  12 H :    0.197362
Sum of atomic charges:    0.0000000

LOEWDIN ATOMIC CHARGES
----------------------
   0 C :   -0.341865
   1 C :   -0.259841
   2 C :   -0.183906
   3 N :   -0.407156
   4 H :    0.119353
   5 H :    0.117420
   6 H :    0.117427
   7 H :    0.108566
   8 H :    0.108573
   9 H :    0.110485
  10 H :    0.110500
  11 H :    0.200229
  12 H :    0.200216

  Mayer bond orders larger than 0.100000
B(  0-C ,  1-C ) :   1.1357 B(  0-C ,  4-H ) :   0.9515 B(  0-C ,  5-H ) :   0.9556
B(  0-C ,  6-H ) :   0.9556 B(  1-C ,  2-C ) :   1.0990 B(  1-C ,  7-H ) :   0.9253
B(  1-C ,  8-H ) :   0.9253 B(  2-C ,  3-N ) :   1.1490 B(  2-C ,  9-H ) :   0.9337
B(  2-C , 10-H ) :   0.9337 B(  3-N , 11-H ) :   0.9114 B(  3-N , 12-H ) :   0.9114

Dispersion correction           -0.007087611
FINAL SINGLE POINT ENERGY      -174.033209345762

DIPOLE MOMENT
-------------

Method             : SCF
Type of density    : Electron Density
Multiplicity       :   1
Irrep              :   0
Energy             :  -174.0832369421497958 Eh
Relativity type    :
Basis              : AO
                                X                 Y                 Z
Electronic contribution:      2.382208781      -0.032877861      -0.000122705
Nuclear contribution   :     -2.661242234      -0.405140148       0.000695171
                        -----------------------------------------
Total Dipole Moment    :     -0.279033453      -0.438018009       0.000572466
                        -----------------------------------------
Magnitude (a.u.)       :      0.519345523
Magnitude (Debye)      :      1.320071412

Rotational constants in cm-1:             0.822116             0.124773             0.117492
Rotational constants in MHz :         24646.419712          3740.602592          3522.334546

                             ****ORCA TERMINATED NORMALLY****
TOTAL RUN TIME: 0 days 0 hours 0 minutes 14 seconds 405 msec
