                         Program Version 6.0.1  -  RELEASE   -
|  1> ! pbe def2-sv(p) def2/J RI DEFGRID1 loosescf d4 GCP(DFT/SV(P)) printgap
|  2> %output
|  3>     printlevel normal
|  4> end
|  5> * xyz 0 1
|  6> C -1.3807958021 -0.8859803299 0.222789342
|  7> S 0.0024331452 0.175990082 -0.4306235765
|  8> O 0.0019805559 1.3782749762 0.4011529854
|  9> C 1.374994755 -0.8806095751 0.2217510312
| 10> H -1.0028387148 -1.7720721084 0.7174624166
| 11> H -2.0077956021 -1.1693282025 -0.6158328984
| 12> H -1.9463558001 -0.2756595087 0.9178989945
| 13> H 2.310833826 -0.3884970343 -0.0230450744
| 14> H 1.3261935222 -1.8491381855 -0.2626346403
| 15> H 1.2802584677 -0.9698543553 1.2983075329
| 16> *
| 17>
| 18>                          ****END OF INPUT****

CARTESIAN COORDINATES (ANGSTROEM)
---------------------------------
  C     -1.380796   -0.885980    0.222789
  S      0.002433    0.175990   -0.430624
  O      0.001981    1.378275    0.401153
  C      1.374995   -0.880610    0.221751
  H     -1.002839   -1.772072    0.717462
  H     -2.007796   -1.169328   -0.615833
  H     -1.946356   -0.275660    0.917899
  H      2.310834   -0.388497   -0.023045
  H      1.326194   -1.849138   -0.262635
  H      1.280258   -0.969854    1.298308

 Total Charge           Charge          ....    0
 Multiplicity           Mult            ....    1
 Number of Electrons    NEL             ....   42
 Basis Dimension        Dim             ....   72

ORBITAL ENERGIES
----------------

  NO   OCC          E(Eh)            E(eV)
   0   2.0000     -88.125666     -2398.0213
   1   2.0000     -18.705804      -509.0108
   2   2.0000      -9.902871      -269.4708
   3   2.0000      -9.901093      -269.4224
   4   2.0000      -7.758874      -211.1297
   5   2.0000      -5.786257      -157.4521
   6   2.0000      -5.784849      -157.4137
   7   2.0000      -5.777634      -157.2174
   8   2.0000      -0.930651       -25.3243
   9   2.0000      -0.703885       -19.1537
  10   2.0000      -0.643171       -17.5016
  11   2.0000      -0.536940       -14.6109
  12   2.0000      -0.415690       -11.3115
  13   2.0000      -0.410015       -11.1571
  14   2.0000      -0.403036       -10.9672
  15   2.0000      -0.379466       -10.3258
  16   2.0000      -0.356298        -9.6954
  17   2.0000      -0.345575        -9.4036
  18   2.0000      -0.312306        -8.4983
  19   2.0000      -0.222893        -6.0652
  20   2.0000      -0.183076        -4.9818
  21   0.0000       0.007932         0.2158
  22   0.0000       0.018915         0.5147
  23   0.0000       0.036737         0.9997
  24   0.0000       0.065946         1.7945
  25   0.0000       0.081112         2.2072

MULLIKEN ATOMIC CHARGES
-----------------------
   0 C :   -0.389959
   1 S :    0.425402
   2 O :   -0.510401
   3 C :   -0.392238
   4 H :    0.139835
   5 H :    0.142095
   6 H :    0.155502
   7 H :    0.152354
   8 H :    0.131021
   9 H :    0.146389
Sum of atomic charges:    0.0000000

LOEWDIN ATOMIC CHARGES
----------------------
   0 C :   -0.497718
   1 S :    0.758222
   2 O :   -0.553638
   3 C :   -0.495065
   4 H :    0.130252
   5 H :    0.128126
   6 H :    0.141393
   7 H :    0.132417
   8 H :    0.125045
   9 H :    0.130966

  Mayer bond orders larger than 0.100000
B(  0-C ,  1-S ) :   0.8573 B(  0-C ,  4-H ) :   0.9419 B(  0-C ,  5-H ) :   0.9447
B(  0-C ,  6-H ) :   0.9367 B(  1-S ,  2-O ) :   1.6053 B(  1-S ,  3-C ) :   0.8902
B(  3-C ,  7-H ) :   0.9442 B(  3-C ,  8-H ) :   0.9321 B(  3-C ,  9-H ) :   0.9348

Dispersion correction           -0.006779197
FINAL SINGLE POINT ENERGY      -552.523567987125

DIPOLE MOMENT
-------------

Method             : SCF
Type of density    : Electron Density
Multiplicity       :   1
Irrep              :   0
Energy             :  -552.5573804532492659 Eh
Relativity type    :
Basis              : AO
                                X                 Y                 Z
Electronic contribution:      0.021091088       4.718900626      -2.161985900
Nuclear contribution   :     -0.037290443      -6.011985999       1.924917078
                        -----------------------------------------
Total Dipole Moment    :     -0.016199356      -1.293085373      -0.237068822
                        -----------------------------------------
Magnitude (a.u.)       :      1.314737170
Magnitude (Debye)      :      3.341796310

Rotational constants in cm-1:             0.232514             0.220197             0.137493
Rotational constants in MHz :          6970.580710          6601.351260          4121.935171

                             ****ORCA TERMINATED NORMALLY****
TOTAL RUN TIME: 0 days 0 hours 0 minutes 2 seconds 818 msec
