                         Program Version 6.0.1  -  RELEASE   -
|  1> ! r2scan-3c def2/J RI DEFGRID2 scfconv6 printgap
|  2> %output
|  3>     printlevel normal
|  4> end
|  5> * xyz 0 1
|  6> C -2.3874955011 0.0374762222 -0.1303578026
|  7> C -0.9525091403 0.4899802896 0.1158958617
|  8> C -0.0018565474 -0.6711686634 0.1628295146
|  9> C 1.3153214095 -0.6119159964 0.0424696723
| 10> C 2.1356750554 0.6203557498 -0.1586642732
| 11> H -3.0581887579 0.8934808192 -0.1641410149
| 12> H -2.7208595552 -0.6275035824 0.6637649265
| 13> H -2.4609524318 -0.493620146 -1.0771208548
| 14> H -0.6544758751 1.1861203581 -0.6717069126
| 15> H -0.9047182105 1.0328832014 1.0659121204
| 16> H -0.4678423996 -1.6347856693 0.3220258923
| 17> H 1.889499568 -1.5284478709 0.0980988681
| 18> H 2.8163811088 0.7518156161 0.6826710092
| 19> H 1.5180532089 1.5090427749 -0.2440201913
| 20> H 2.7425538833 0.5230363011 -1.058884554
| 21> *
| 22>
| 23>                          ****END OF INPUT****

CARTESIAN COORDINATES (ANGSTROEM)
---------------------------------
  C     -2.387496    0.037476   -0.130358
  C     -0.952509    0.489980    0.115896
  C     -0.001857   -0.671169    0.162830
  C      1.315321   -0.611916    0.042470
  C      2.135675    0.620356   -0.158664
  H     -3.058189    0.893481   -0.164141
  H     -2.720860   -0.627504    0.663765
  H     -2.460952   -0.493620   -1.077121
  H     -0.654476    1.186120   -0.671707
  H     -0.904718    1.032883    1.065912
  H     -0.467842   -1.634786    0.322026
  H      1.889500   -1.528448    0.098099
  H      2.816381    0.751816    0.682671
  H      1.518053    1.509043   -0.244020
  H      2.742554    0.523036   -1.058885

 Total Charge           Charge          ....    0
 Multiplicity           Mult            ....    1
 Number of Electrons    NEL             ....   40
 Basis Dimension        Dim             ....  145

ORBITAL ENERGIES
----------------

  NO   OCC          E(Eh)            E(eV)
   0   2.0000     -10.027986      -272.8754
   1   2.0000     -10.022647      -272.7301
   2   2.0000     -10.021934      -272.7107
   3   2.0000     -10.019267      -272.6381
   4   2.0000     -10.017459      -272.5889
   5   2.0000      -0.771638       -20.9973
   6   2.0000      -0.718996       -19.5649
   7   2.0000      -0.647161       -17.6102
   8   2.0000      -0.581519       -15.8239
   9   2.0000      -0.495203       -13.4751
  10   2.0000      -0.439809       -11.9678
  11   2.0000      -0.414311       -11.2740
  12   2.0000      -0.397447       -10.8151
  13   2.0000      -0.379876       -10.3369
  14   2.0000      -0.348535        -9.4841
  15   2.0000      -0.337947        -9.1960
  16   2.0000      -0.323729        -8.8091
  17   2.0000      -0.316166        -8.6033
  18   2.0000      -0.290497        -7.9048
  19   2.0000      -0.217013        -5.9052
  20   0.0000      -0.001466        -0.0399
  21   0.0000       0.093273         2.5381
  22   0.0000       0.112117         3.0509
  23   0.0000       0.130623         3.5544
  24   0.0000       0.143134         3.8949

MULLIKEN ATOMIC CHARGES
-----------------------
   0 C :   -0.480846
   1 C :   -0.236707
   2 C :   -0.173062
   3 C :   -0.117791
   4 C :   -0.469691
   5 H :    0.144435
   6 H :    0.141480
   7 H :    0.151722
   8 H :    0.142288
   9 H :    0.153511
  10 H :    0.148969
  11 H :    0.147954
  12 H :    0.152345
  13 H :    0.146158
  14 H :    0.149236
Sum of atomic charges:   -0.0000000

LOEWDIN ATOMIC CHARGES
----------------------
   0 C :   -0.422021
   1 C :   -0.312811
   2 C :   -0.215664
   3 C :   -0.210298
   4 C :   -0.410573
   5 H :    0.150009
   6 H :    0.150453
   7 H :    0.152327
   8 H :    0.157874
   9 H :    0.161484
  10 H :    0.164171
  11 H :    0.159255
  12 H :    0.161042
  13 H :    0.155359
  14 H :    0.159391

  Mayer bond orders larger than 0.100000
B(  0-C ,  1-C ) :   0.8927 B(  0-C ,  5-H ) :   0.9759 B(  0-C ,  6-H ) :   0.9756
B(  0-C ,  7-H ) :   0.9863 B(  1-C ,  2-C ) :   0.9054 B(  1-C ,  8-H ) :   0.9853
B(  1-C ,  9-H ) :   0.9633 B(  2-C ,  3-C ) :   1.9463 B(  2-C , 10-H ) :   0.9513
B(  3-C ,  4-C ) :   0.9060 B(  3-C , 11-H ) :   0.9435 B(  4-C , 12-H ) :   0.9657
B(  4-C , 13-H ) :   0.9886 B(  4-C , 14-H ) :   0.9685

Dispersion correction           -0.003215173
FINAL SINGLE POINT ENERGY      -196.459441837400

DIPOLE MOMENT
-------------

Method             : SCF
Type of density    : Electron Density
Multiplicity       :   1
Irrep              :   0
Energy             :  -196.4624057573045945 Eh
Relativity type    :
Basis              : AO
                                X                 Y                 Z
Electronic contribution:      1.252508111      -1.371910218       0.362223254
Nuclear contribution   :     -1.220127436       1.512339274      -0.359692376
                        -----------------------------------------
Total Dipole Moment    :      0.032380676       0.140429056       0.002530877
                        -----------------------------------------
Magnitude (a.u.)       :      0.144136163
Magnitude (Debye)      :      0.366365010

Rotational constants in cm-1:             0.474150             0.081610             0.073027
Rotational constants in MHz :         14214.646633          2446.595966          2189.287800

                             ****ORCA TERMINATED NORMALLY****
TOTAL RUN TIME: 0 days 0 hours 0 minutes 9 seconds 354 msec
