                         Program Version 6.0.1  -  RELEASE   -
|  1> ! pbe def2-sv(p) def2/J RI DEFGRID1 loosescf d4 GCP(DFT/SV(P)) printgap
|  2> %output
|  3>     printlevel normal
|  4> end
|  5> * xyz 0 1
|  6> C 3.5386345053 -0.5286557173 -0.0513790635
|  7> C 2.2160073129 -0.0582382695 0.5498300057
|  8> H 2.4299195883 0.4167277006 1.5129262025
|  9> C 1.2555245413 -1.2359226995 0.7848323217
| 10> C 0.2765883117 -1.3801721021 -0.3750197758
| 11> C -0.6972298149 -0.1911125692 -0.4369445899
| 12> H -1.0575602876 -0.0953116413 -1.4696904146
| 13> C 0.0592799237 1.1121991851 -0.0810624565
| 14> H -0.0723142816 1.3360754688 0.9830033922
| 15> C 1.5579437074 0.9781326783 -0.3674246135
| 16> O -0.4708379867 2.2419139197 -0.7435867359
| 17> C -1.9383634685 -0.3780589201 0.4613179866
| 18> C -2.8890546298 0.8124032529 0.3283955315
| 19> C -2.7170922844 -1.6523590044 0.125961082
| 20> H 3.365375745 -1.0696773288 -0.9794064367
| 21> H 4.1833954329 0.3211656388 -0.2649705681
| 22> H 4.0598395043 -1.1890043015 0.6382197037
| 23> H 1.8275760751 -2.1577501107 0.9040945261
| 24> H 0.6909869889 -1.0808826692 1.7053629589
| 25> H 0.8399169996 -1.4433747028 -1.3080069139
| 26> H -0.2755520297 -2.3127277954 -0.2785481668
| 27> H 1.6966497011 0.6966566379 -1.4147676393
| 28> H 2.0271247001 1.9538460508 -0.2260463891
| 29> H -0.3601099685 2.1168401147 -1.6929781351
| 30> H -1.6028091559 -0.4409547826 1.5025129281
| 31> H -3.7146671791 0.7126858306 1.0299597158
| 32> H -3.2992544406 0.8510566583 -0.6789378218
| 33> H -2.3833483934 1.7522065995 0.5229532336
| 34> H -2.9207574819 -1.7045787916 -0.9417487944
| 35> H -3.668520779 -1.6480589199 0.6531980908
| 36> H -2.1836073666 -2.5513301241 0.4225162388
| 37> *
| 38>
| 39>                          ****END OF INPUT****

CARTESIAN COORDINATES (ANGSTROEM)
---------------------------------
  C      3.538635   -0.528656   -0.051379
  C      2.216007   -0.058238    0.549830
  H      2.429920    0.416728    1.512926
  C      1.255525   -1.235923    0.784832
  C      0.276588   -1.380172   -0.375020
  C     -0.697230   -0.191113   -0.436945
  H     -1.057560   -0.095312   -1.469690
  C      0.059280    1.112199   -0.081062
  H     -0.072314    1.336075    0.983003
  C      1.557944    0.978133   -0.367425
  O     -0.470838    2.241914   -0.743587
  C     -1.938363   -0.378059    0.461318
  C     -2.889055    0.812403    0.328396
  C     -2.717092   -1.652359    0.125961
  H      3.365376   -1.069677   -0.979406
  H      4.183395    0.321166   -0.264971
  H      4.059840   -1.189004    0.638220
  H      1.827576   -2.157750    0.904095
  H      0.690987   -1.080883    1.705363
  H      0.839917   -1.443375   -1.308007
  H     -0.275552   -2.312728   -0.278548
  H      1.696650    0.696657   -1.414768
  H      2.027125    1.953846   -0.226046
  H     -0.360110    2.116840   -1.692978
  H     -1.602809   -0.440955    1.502513
  H     -3.714667    0.712686    1.029960
  H     -3.299254    0.851057   -0.678938
  H     -2.383348    1.752207    0.522953
  H     -2.920757   -1.704579   -0.941749
  H     -3.668521   -1.648059    0.653198
  H     -2.183607   -2.551330    0.422516

 Total Charge           Charge          ....    0
 Multiplicity           Mult            ....    1
 Number of Electrons    NEL             ....   88
 Basis Dimension        Dim             ....  194

ORBITAL ENERGIES
----------------

  NO   OCC          E(Eh)            E(eV)
   0   2.0000     -18.737551      -509.8747
   1   2.0000      -9.931650      -270.2539
   2   2.0000      -9.893746      -269.2225
   3   2.0000      -9.890164      -269.1251
   4   2.0000      -9.889955      -269.1194
   5   2.0000      -9.881162      -268.8801
   6   2.0000      -9.880841      -268.8713
   7   2.0000      -9.878886      -268.8182
   8   2.0000      -9.873629      -268.6751
   9   2.0000      -9.869308      -268.5575
  10   2.0000      -9.859692      -268.2959
  11   2.0000      -0.918858       -25.0034
  12   2.0000      -0.760090       -20.6831
  13   2.0000      -0.720410       -19.6033
  14   2.0000      -0.667434       -18.1618
  15   2.0000      -0.653025       -17.7697
  16   2.0000      -0.605175       -16.4677
  17   2.0000      -0.600558       -16.3420
  18   2.0000      -0.558144       -15.1879
  19   2.0000      -0.536921       -14.6104
  20   2.0000      -0.499142       -13.5823
  21   2.0000      -0.480582       -13.0773
  22   2.0000      -0.449165       -12.2224
  23   2.0000      -0.435910       -11.8617
  24   2.0000      -0.409698       -11.1485
  25   2.0000      -0.397070       -10.8048
  26   2.0000      -0.387983       -10.5576
  27   2.0000      -0.380619       -10.3572
  28   2.0000      -0.360565        -9.8115
  29   2.0000      -0.352716        -9.5979
  30   2.0000      -0.347749        -9.4627
  31   2.0000      -0.335790        -9.1373
  32   2.0000      -0.333922        -9.0865
  33   2.0000      -0.329851        -8.9757
  34   2.0000      -0.316019        -8.5993
  35   2.0000      -0.312677        -8.5084
  36   2.0000      -0.293837        -7.9957
  37   2.0000      -0.289641        -7.8815
  38   2.0000      -0.284326        -7.7369
  39   2.0000      -0.282280        -7.6812
  40   2.0000      -0.267807        -7.2874
  41   2.0000      -0.261634        -7.1194
  42   2.0000      -0.248617        -6.7652
  43   2.0000      -0.203297        -5.5320
  44   0.0000       0.026348         0.7170
  45   0.0000       0.029235         0.7955
  46   0.0000       0.048294         1.3141
  47   0.0000       0.054362         1.4793
  48   0.0000       0.073260         1.9935

MULLIKEN ATOMIC CHARGES
-----------------------
   0 C :   -0.237601
   1 C :   -0.183747
   2 H :    0.067669
   3 C :   -0.124096
   4 C :   -0.091510
   5 C :   -0.104925
   6 H :    0.034010
   7 C :    0.037276
   8 H :    0.061396
   9 C :   -0.065827
  10 O :   -0.414322
  11 C :   -0.185955
  12 C :   -0.234591
  13 C :   -0.239408
  14 H :    0.094542
  15 H :    0.099315
  16 H :    0.099280
  17 H :    0.077279
  18 H :    0.081213
  19 H :    0.066952
  20 H :    0.080992
  21 H :    0.045160
  22 H :    0.085576
  23 H :    0.290011
  24 H :    0.070330
  25 H :    0.089862
  26 H :    0.081532
  27 H :    0.125555
  28 H :    0.090736
  29 H :    0.095360
  30 H :    0.107939
Sum of atomic charges:   -0.0000000

LOEWDIN ATOMIC CHARGES
----------------------
   0 C :   -0.328023
   1 C :   -0.150886
   2 H :    0.116066
   3 C :   -0.219879
   4 C :   -0.219246
   5 C :   -0.144630
   6 H :    0.109528
   7 C :   -0.048091
   8 H :    0.111969
   9 C :   -0.230231
  10 O :   -0.315295
  11 C :   -0.148753
  12 C :   -0.333324
  13 C :   -0.331551
  14 H :    0.114858
  15 H :    0.117788
  16 H :    0.116815
  17 H :    0.117124
  18 H :    0.115076
  19 H :    0.113686
  20 H :    0.117934
  21 H :    0.109357
  22 H :    0.120708
  23 H :    0.277371
  24 H :    0.111452
  25 H :    0.112439
  26 H :    0.113543
  27 H :    0.124222
  28 H :    0.116634
  29 H :    0.118640
  30 H :    0.114703

  Mayer bond orders larger than 0.100000
B(  0-C ,  1-C ) :   1.1165 B(  0-C , 14-H ) :   0.9466 B(  0-C , 15-H ) :   0.9489
B(  0-C , 16-H ) :   0.9466 B(  1-C ,  2-H ) :   0.8945 B(  1-C ,  3-C ) :   1.0820
B(  1-C ,  9-C ) :   1.0904 B(  3-C ,  4-C ) :   1.1854 B(  3-C , 17-H ) :   0.9154
B(  3-C , 18-H ) :   0.9024 B(  4-C ,  5-C ) :   1.0924 B(  4-C , 19-H ) :   0.8881
B(  4-C , 20-H ) :   0.9012 B(  5-C ,  6-H ) :   0.8612 B(  5-C ,  7-C ) :   0.9942
B(  5-C , 11-C ) :   1.0566 B(  7-C ,  8-H ) :   0.8778 B(  7-C ,  9-C ) :   1.1523
B(  7-C , 10-O ) :   1.0106 B(  9-C , 21-H ) :   0.8753 B(  9-C , 22-H ) :   0.9040
B( 10-O , 23-H ) :   0.8529 B( 11-C , 12-C ) :   1.1189 B( 11-C , 13-C ) :   1.1121
B( 11-C , 24-H ) :   0.8916 B( 12-C , 25-H ) :   0.9456 B( 12-C , 26-H ) :   0.9485
B( 12-C , 27-H ) :   0.9316 B( 13-C , 28-H ) :   0.9475 B( 13-C , 29-H ) :   0.9466
B( 13-C , 30-H ) :   0.9378

Dispersion correction           -0.031973315
FINAL SINGLE POINT ENERGY      -467.187448637779

DIPOLE MOMENT
-------------

Method             : SCF
Type of density    : Electron Density
Multiplicity       :   1
Irrep              :   0
Energy             :  -467.3001058770840928 Eh
Relativity type    :
Basis              : AO
                                X                 Y                 Z
Electronic contribution:      0.682964725       4.756377939      -0.819171955
Nuclear contribution   :     -0.398872865      -5.160780345       0.570296679
                        -----------------------------------------
Total Dipole Moment    :      0.284091860      -0.404402407      -0.248875276
                        -----------------------------------------
Magnitude (a.u.)       :      0.553342927
Magnitude (Debye)      :      1.406485944

Rotational constants in cm-1:             0.058057             0.025151             0.019295
Rotational constants in MHz :          1740.504533           754.004037           578.448842

                             ****ORCA TERMINATED NORMALLY****
TOTAL RUN TIME: 0 days 0 hours 0 minutes 11 seconds 905 msec
