                         Program Version 6.0.1  -  RELEASE   -
|  1> ! pbe def2-sv(p) def2/J RI DEFGRID1 loosescf d4 GCP(DFT/SV(P)) printgap
|  2> %output
|  3>     printlevel normal
|  4> end
|  5> * xyz 0 1
|  6> C -2.5493174317 -0.9123188709 0.2554151429
|  7> C -1.1374958383 -0.4445094678 0.6398928585
|  8> H -1.0487622449 -0.3715349827 1.7341560027
|  9> C -0.8537334679 0.9430803509 0.0408690388
| 10> H -1.1158820555 0.9149238841 -1.0319098552
| 11> C 0.6322270224 1.2991009494 0.1813151362
| 12> H 0.8613481388 1.4786989717 1.2388389903
| 13> C 1.503624138 0.1531183975 -0.3329875306
| 14> H 1.3274787817 0.0152242285 -1.4149672776
| 15> C 1.0940453374 -1.1481836648 0.3814678962
| 16> H 1.2538265897 -1.0109044804 1.473214904
| 17> O -0.251715543 -1.422455872 0.1316089523
| 18> O 1.8172704041 -2.2310240602 -0.0863754603
| 19> O 2.8702112109 0.3803209607 -0.0914081678
| 20> O 0.9411598621 2.5145265592 -0.4679936644
| 21> O -1.6544170741 1.878572731 0.7156509053
| 22> O -2.6413500451 -1.1570839401 -1.1192781772
| 23> H -3.2649806677 -0.1244624626 0.493861221
| 24> H -2.7884360019 -1.8162766424 0.8303371247
| 25> H 2.7284006518 -1.9359806119 -0.2136734856
| 26> H 3.0388514089 1.3256732178 -0.199781617
| 27> H 0.718481834 2.4366986231 -1.4049478887
| 28> H -1.3202700872 2.761685218 0.5100968909
| 29> H -1.9335351752 -1.776701448 -1.3408695042
| 30> *
| 31>
| 32>                          ****END OF INPUT****

CARTESIAN COORDINATES (ANGSTROEM)
---------------------------------
  C     -2.549317   -0.912319    0.255415
  C     -1.137496   -0.444509    0.639893
  H     -1.048762   -0.371535    1.734156
  C     -0.853733    0.943080    0.040869
  H     -1.115882    0.914924   -1.031910
  C      0.632227    1.299101    0.181315
  H      0.861348    1.478699    1.238839
  C      1.503624    0.153118   -0.332988
  H      1.327479    0.015224   -1.414967
  C      1.094045   -1.148184    0.381468
  H      1.253827   -1.010904    1.473215
  O     -0.251716   -1.422456    0.131609
  O      1.817270   -2.231024   -0.086375
  O      2.870211    0.380321   -0.091408
  O      0.941160    2.514527   -0.467994
  O     -1.654417    1.878573    0.715651
  O     -2.641350   -1.157084   -1.119278
  H     -3.264981   -0.124462    0.493861
  H     -2.788436   -1.816277    0.830337
  H      2.728401   -1.935981   -0.213673
  H      3.038851    1.325673   -0.199782
  H      0.718482    2.436699   -1.404948
  H     -1.320270    2.761685    0.510097
  H     -1.933535   -1.776701   -1.340870

 Total Charge           Charge          ....    0
 Multiplicity           Mult            ....    1
 Number of Electrons    NEL             ....   96
 Basis Dimension        Dim             ....  192

ORBITAL ENERGIES
----------------

  NO   OCC          E(Eh)            E(eV)
   0   2.0000     -18.782569      -511.0997
   1   2.0000     -18.781758      -511.0776
   2   2.0000     -18.769627      -510.7475
   3   2.0000     -18.760212      -510.4913
   4   2.0000     -18.758615      -510.4479
   5   2.0000     -18.745657      -510.0952
   6   2.0000      -9.994651      -271.9683
   7   2.0000      -9.956242      -270.9231
   8   2.0000      -9.950553      -270.7683
   9   2.0000      -9.950154      -270.7574
  10   2.0000      -9.949483      -270.7392
  11   2.0000      -9.929406      -270.1929
  12   2.0000      -0.992549       -27.0086
  13   2.0000      -0.966507       -26.3000
  14   2.0000      -0.947561       -25.7844
  15   2.0000      -0.931786       -25.3552
  16   2.0000      -0.928963       -25.2784
  17   2.0000      -0.915494       -24.9119
  18   2.0000      -0.713272       -19.4091
  19   2.0000      -0.697925       -18.9915
  20   2.0000      -0.618859       -16.8400
  21   2.0000      -0.591364       -16.0918
  22   2.0000      -0.580007       -15.7828
  23   2.0000      -0.536715       -14.6047
  24   2.0000      -0.503188       -13.6924
  25   2.0000      -0.492988       -13.4149
  26   2.0000      -0.484264       -13.1775
  27   2.0000      -0.457634       -12.4529
  28   2.0000      -0.451121       -12.2756
  29   2.0000      -0.445159       -12.1134
  30   2.0000      -0.438500       -11.9322
  31   2.0000      -0.426441       -11.6041
  32   2.0000      -0.377123       -10.2620
  33   2.0000      -0.373039       -10.1509
  34   2.0000      -0.368618       -10.0306
  35   2.0000      -0.365947        -9.9579
  36   2.0000      -0.335425        -9.1274
  37   2.0000      -0.329310        -8.9610
  38   2.0000      -0.318311        -8.6617
  39   2.0000      -0.304328        -8.2812
  40   2.0000      -0.289228        -7.8703
  41   2.0000      -0.277253        -7.5444
  42   2.0000      -0.267276        -7.2729
  43   2.0000      -0.248507        -6.7622
  44   2.0000      -0.246671        -6.7123
  45   2.0000      -0.221155        -6.0179
  46   2.0000      -0.218983        -5.9588
  47   2.0000      -0.213387        -5.8066
  48   0.0000      -0.001331        -0.0362
  49   0.0000       0.028166         0.7664
  50   0.0000       0.033974         0.9245
  51   0.0000       0.043415         1.1814
  52   0.0000       0.057926         1.5762

MULLIKEN ATOMIC CHARGES
-----------------------
   0 C :    0.096265
   1 C :   -0.017414
   2 H :    0.062171
   3 C :    0.058902
   4 H :    0.041467
   5 C :    0.019064
   6 H :    0.070057
   7 C :    0.014752
   8 H :    0.047946
   9 C :    0.220747
  10 H :    0.039595
  11 O :   -0.299907
  12 O :   -0.378763
  13 O :   -0.423567
  14 O :   -0.419801
  15 O :   -0.410452
  16 O :   -0.438982
  17 H :    0.098492
  18 H :    0.082875
  19 H :    0.316809
  20 H :    0.310212
  21 H :    0.302784
  22 H :    0.303976
  23 H :    0.302773
Sum of atomic charges:   -0.0000000

LOEWDIN ATOMIC CHARGES
----------------------
   0 C :   -0.121416
   1 C :   -0.068898
   2 H :    0.110111
   3 C :   -0.078902
   4 H :    0.098685
   5 C :   -0.094944
   6 H :    0.119310
   7 C :   -0.104713
   8 H :    0.099517
   9 C :    0.012405
  10 H :    0.082951
  11 O :   -0.131098
  12 O :   -0.299062
  13 O :   -0.325452
  14 O :   -0.313911
  15 O :   -0.316093
  16 O :   -0.330207
  17 H :    0.123867
  18 H :    0.102256
  19 H :    0.294898
  20 H :    0.288174
  21 H :    0.286957
  22 H :    0.285132
  23 H :    0.280434

  Mayer bond orders larger than 0.100000
B(  0-C ,  1-C ) :   1.0451 B(  0-C , 16-O ) :   1.0638 B(  0-C , 17-H ) :   0.9156
B(  0-C , 18-H ) :   0.9148 B(  1-C ,  2-H ) :   0.8700 B(  1-C ,  3-C ) :   1.0028
B(  1-C , 11-O ) :   0.9918 B(  3-C ,  4-H ) :   0.8544 B(  3-C ,  5-C ) :   1.0283
B(  3-C , 15-O ) :   1.0693 B(  5-C ,  6-H ) :   0.8615 B(  5-C ,  7-C ) :   1.0113
B(  5-C , 14-O ) :   1.0093 B(  7-C ,  8-H ) :   0.8595 B(  7-C ,  9-C ) :   0.9973
B(  7-C , 13-O ) :   1.0670 B(  9-C , 10-H ) :   0.8819 B(  9-C , 11-O ) :   1.0272
B(  9-C , 12-O ) :   1.1456 B( 12-O , 19-H ) :   0.8322 B( 13-O , 20-H ) :   0.8296
B( 14-O , 21-H ) :   0.8460 B( 15-O , 22-H ) :   0.8347 B( 16-O , 23-H ) :   0.8362

Dispersion correction           -0.024071189
FINAL SINGLE POINT ENERGY      -685.700747086082

DIPOLE MOMENT
-------------

Method             : SCF
Type of density    : Electron Density
Multiplicity       :   1
Irrep              :   0
Energy             :  -685.8320765013834261 Eh
Relativity type    :
Basis              : AO
                                X                 Y                 Z
Electronic contribution:      2.186046441      -0.840071113      -0.836495258
Nuclear contribution   :     -1.432028896       1.779199275       0.619063509
                        -----------------------------------------
Total Dipole Moment    :      0.754017545       0.939128162      -0.217431749
                        -----------------------------------------
Magnitude (a.u.)       :      1.223838522
Magnitude (Debye)      :      3.110750309

Rotational constants in cm-1:             0.038646             0.027604             0.018027
Rotational constants in MHz :          1158.579781           827.547771           540.437431

                             ****ORCA TERMINATED NORMALLY****
TOTAL RUN TIME: 0 days 0 hours 0 minutes 10 seconds 737 msec
