                         Program Version 6.0.1  -  RELEASE   -
|  1> ! pbe def2-sv(p) def2/J RI DEFGRID1 loosescf d4 GCP(DFT/SV(P)) printgap
|  2> %output
|  3>     printlevel normal
|  4> end
|  5> * xyz 0 1
|  6> C -2.8217818439 0.7801553172 -0.6647571032
|  7> O -2.0936953792 0.5234809936 0.5131908741
|  8> C -0.8268395931 0.0068518418 0.2835193202
|  9> C -0.6327159993 -1.3681638905 0.260096938
| 10> C 0.6438035854 -1.8663379961 0.0645826261
| 11> C 1.715094337 -1.014258465 -0.1131565934
| 12> C 1.5278288982 0.3687385124 -0.0906327202
| 13> C 0.2414560426 0.8699115722 0.1024096669
| 14> N 2.6034166707 1.2255803189 -0.1904511579
| 15> H -2.9798273153 -0.1370408656 -1.2449701633
| 16> H -2.3111684314 1.5137152038 -1.3003091758
| 17> H -3.7840379877 1.1807335139 -0.3499766618
| 18> H -1.4739794802 -2.0278060524 0.4042213053
| 19> H 0.8041735642 -2.9343824987 0.0470451197
| 20> H 2.7085918543 -1.4109759029 -0.2651117433
| 21> H 0.0736270428 1.9370436931 0.1284499583
| 22> H 2.4001637197 2.1796158733 -0.4385616071
| 23> H 3.443430492 0.8499788371 -0.5983702583
| 24> *
| 25>
| 26>                          ****END OF INPUT****

CARTESIAN COORDINATES (ANGSTROEM)
---------------------------------
  C     -2.821782    0.780155   -0.664757
  O     -2.093695    0.523481    0.513191
  C     -0.826840    0.006852    0.283519
  C     -0.632716   -1.368164    0.260097
  C      0.643804   -1.866338    0.064583
  C      1.715094   -1.014258   -0.113157
  C      1.527829    0.368739   -0.090633
  C      0.241456    0.869912    0.102410
  N      2.603417    1.225580   -0.190451
  H     -2.979827   -0.137041   -1.244970
  H     -2.311168    1.513715   -1.300309
  H     -3.784038    1.180734   -0.349977
  H     -1.473979   -2.027806    0.404221
  H      0.804174   -2.934382    0.047045
  H      2.708592   -1.410976   -0.265112
  H      0.073627    1.937044    0.128450
  H      2.400164    2.179616   -0.438562
  H      3.443430    0.849979   -0.598370

 Total Charge           Charge          ....    0
 Multiplicity           Mult            ....    1
 Number of Electrons    NEL             ....   66
 Basis Dimension        Dim             ....  144

ORBITAL ENERGIES
----------------

  NO   OCC          E(Eh)            E(eV)
   0   2.0000     -18.756135      -510.3804
   1   2.0000     -13.996133      -380.8542
   2   2.0000      -9.933786      -270.3121
   3   2.0000      -9.930205      -270.2146
   4   2.0000      -9.926392      -270.1109
   5   2.0000      -9.886655      -269.0296
   6   2.0000      -9.879386      -268.8317
   7   2.0000      -9.877222      -268.7729
   8   2.0000      -9.872026      -268.6315
   9   2.0000      -0.942067       -25.6349
  10   2.0000      -0.836275       -22.7562
  11   2.0000      -0.751453       -20.4481
  12   2.0000      -0.666839       -18.1456
  13   2.0000      -0.650447       -17.6996
  14   2.0000      -0.608367       -16.5545
  15   2.0000      -0.544231       -14.8093
  16   2.0000      -0.530875       -14.4459
  17   2.0000      -0.476544       -12.9674
  18   2.0000      -0.469035       -12.7631
  19   2.0000      -0.429618       -11.6905
  20   2.0000      -0.413165       -11.2428
  21   2.0000      -0.404215       -10.9992
  22   2.0000      -0.402054       -10.9404
  23   2.0000      -0.374395       -10.1878
  24   2.0000      -0.369760       -10.0617
  25   2.0000      -0.339499        -9.2382
  26   2.0000      -0.324762        -8.8372
  27   2.0000      -0.309038        -8.4094
  28   2.0000      -0.290462        -7.9039
  29   2.0000      -0.263586        -7.1725
  30   2.0000      -0.214392        -5.8339
  31   2.0000      -0.208499        -5.6736
  32   2.0000      -0.172491        -4.6937
  33   0.0000      -0.023348        -0.6353
  34   0.0000      -0.007647        -0.2081
  35   0.0000       0.032792         0.8923
  36   0.0000       0.056062         1.5255
  37   0.0000       0.062202         1.6926

MULLIKEN ATOMIC CHARGES
-----------------------
   0 C :   -0.078135
   1 O :   -0.307665
   2 C :    0.208641
   3 C :   -0.116108
   4 C :   -0.064784
   5 C :   -0.121907
   6 C :    0.172342
   7 C :   -0.195833
   8 N :   -0.339975
   9 H :    0.089000
  10 H :    0.085648
  11 H :    0.114329
  12 H :    0.031323
  13 H :    0.048552
  14 H :    0.019106
  15 H :    0.010963
  16 H :    0.222162
  17 H :    0.222340
Sum of atomic charges:   -0.0000000

LOEWDIN ATOMIC CHARGES
----------------------
   0 C :   -0.197714
   1 O :   -0.133028
   2 C :    0.036030
   3 C :   -0.174640
   4 C :   -0.112794
   5 C :   -0.172281
   6 C :   -0.002742
   7 C :   -0.178886
   8 N :   -0.314706
   9 H :    0.099560
  10 H :    0.097136
  11 H :    0.114736
  12 H :    0.125184
  13 H :    0.122947
  14 H :    0.117495
  15 H :    0.122890
  16 H :    0.225324
  17 H :    0.225490

  Mayer bond orders larger than 0.100000
B(  0-C ,  1-O ) :   0.9966 B(  0-C ,  9-H ) :   0.9427 B(  0-C , 10-H ) :   0.9427
B(  0-C , 11-H ) :   0.9623 B(  1-O ,  2-C ) :   1.0214 B(  2-C ,  3-C ) :   1.3818
B(  2-C ,  7-C ) :   1.3781 B(  3-C ,  4-C ) :   1.3219 B(  3-C , 12-H ) :   0.9661
B(  4-C ,  5-C ) :   1.3835 B(  4-C , 13-H ) :   0.9580 B(  5-C ,  6-C ) :   1.3279
B(  5-C , 14-H ) :   0.9634 B(  6-C ,  7-C ) :   1.2655 B(  6-C ,  8-N ) :   1.2316
B(  7-C , 15-H ) :   0.9624 B(  8-N , 16-H ) :   0.8833 B(  8-N , 17-H ) :   0.8830

Dispersion correction           -0.017666149
FINAL SINGLE POINT ENERGY      -401.245711687736

DIPOLE MOMENT
-------------

Method             : SCF
Type of density    : Electron Density
Multiplicity       :   1
Irrep              :   0
Energy             :  -401.3054277278958466 Eh
Relativity type    :
Basis              : AO
                                X                 Y                 Z
Electronic contribution:      1.634843022      -0.669927286       2.520136776
Nuclear contribution   :     -1.066576024       1.094202139      -3.387347387
                        -----------------------------------------
Total Dipole Moment    :      0.568266998       0.424274854      -0.867210611
                        -----------------------------------------
Magnitude (a.u.)       :      1.120263708
Magnitude (Debye)      :      2.847484053

Rotational constants in cm-1:             0.103319             0.040538             0.030709
Rotational constants in MHz :          3097.434594          1215.301980           920.645903

                             ****ORCA TERMINATED NORMALLY****
TOTAL RUN TIME: 0 days 0 hours 0 minutes 30 seconds 536 msec
