                         Program Version 6.0.1  -  RELEASE   -
|  1> ! r2scan-3c def2/J RI DEFGRID2 scfconv6 printgap
|  2> %output
|  3>     printlevel normal
|  4> end
|  5> * xyz 0 1
|  6> C -2.3976858214 -0.0177024907 1.5586261345
|  7> O -1.1705375047 -0.016950428 0.8413604129
|  8> C -1.2274258674 -0.0375366493 -0.4942059046
|  9> O -2.2615917735 -0.0524413561 -1.1129256808
| 10> C 0.1340514292 -0.0359764029 -1.1629290176
| 11> C 0.9707910196 -1.2725222643 -0.8029698149
| 12> C 1.5835242165 -1.1954044204 0.5914592487
| 13> C 2.4087594623 0.0775909335 0.7429640805
| 14> C 1.5246795049 1.297743382 0.5107833791
| 15> C 0.9167388174 1.2567788589 -0.887045193
| 16> H -2.48857075 -0.9620348136 2.0970933764
| 17> H -3.2328284511 0.0968301553 0.8653498012
| 18> H -2.3748740766 0.8111120142 2.2658617208
| 19> H -0.0918028236 -0.0757971884 -2.2349279007
| 20> H 0.3513002461 -2.1678144162 -0.892534148
| 21> H 1.7761720868 -1.3517321814 -1.5377192207
| 22> H 0.794208501 -1.2020336193 1.3430715267
| 23> H 2.2135344217 -2.0727974097 0.7541127025
| 24> H 2.8477314894 0.1199490156 1.7416183221
| 25> H 3.2256710364 0.0735865777 0.0168519763
| 26> H 0.7318505938 1.3131765707 1.2586977826
| 27> H 2.1109436047 2.2129616119 0.6196837798
| 28> H 0.2606415606 2.1168574045 -1.0383366326
| 29> H 1.7218091263 1.319676815 -1.6234794194
| 30> *
| 31>
| 32>                          ****END OF INPUT****

CARTESIAN COORDINATES (ANGSTROEM)
---------------------------------
  C     -2.397686   -0.017702    1.558626
  O     -1.170538   -0.016950    0.841360
  C     -1.227426   -0.037537   -0.494206
  O     -2.261592   -0.052441   -1.112926
  C      0.134051   -0.035976   -1.162929
  C      0.970791   -1.272522   -0.802970
  C      1.583524   -1.195404    0.591459
  C      2.408759    0.077591    0.742964
  C      1.524680    1.297743    0.510783
  C      0.916739    1.256779   -0.887045
  H     -2.488571   -0.962035    2.097093
  H     -3.232828    0.096830    0.865350
  H     -2.374874    0.811112    2.265862
  H     -0.091803   -0.075797   -2.234928
  H      0.351300   -2.167814   -0.892534
  H      1.776172   -1.351732   -1.537719
  H      0.794209   -1.202034    1.343072
  H      2.213534   -2.072797    0.754113
  H      2.847731    0.119949    1.741618
  H      3.225671    0.073587    0.016852
  H      0.731851    1.313177    1.258698
  H      2.110944    2.212962    0.619684
  H      0.260642    2.116857   -1.038337
  H      1.721809    1.319677   -1.623479

 Total Charge           Charge          ....    0
 Multiplicity           Mult            ....    1
 Number of Electrons    NEL             ....   78
 Basis Dimension        Dim             ....  270

ORBITAL ENERGIES
----------------

  NO   OCC          E(Eh)            E(eV)
   0   2.0000     -19.000536      -517.0309
   1   2.0000     -18.929337      -515.0934
   2   2.0000     -10.151102      -276.2255
   3   2.0000     -10.084573      -274.4152
   4   2.0000     -10.046491      -273.3789
   5   2.0000     -10.033331      -273.0208
   6   2.0000     -10.033206      -273.0174
   7   2.0000     -10.022558      -272.7277
   8   2.0000     -10.021512      -272.6992
   9   2.0000     -10.021259      -272.6923
  10   2.0000      -1.074919       -29.2500
  11   2.0000      -0.981200       -26.6998
  12   2.0000      -0.808459       -21.9993
  13   2.0000      -0.732288       -19.9266
  14   2.0000      -0.712885       -19.3986
  15   2.0000      -0.691931       -18.8284
  16   2.0000      -0.596284       -16.2257
  17   2.0000      -0.578922       -15.7533
  18   2.0000      -0.545002       -14.8303
  19   2.0000      -0.522546       -14.2192
  20   2.0000      -0.462147       -12.5756
  21   2.0000      -0.457321       -12.4443
  22   2.0000      -0.448568       -12.2062
  23   2.0000      -0.431429       -11.7398
  24   2.0000      -0.411129       -11.1874
  25   2.0000      -0.410824       -11.1791
  26   2.0000      -0.397949       -10.8287
  27   2.0000      -0.373879       -10.1738
  28   2.0000      -0.356500        -9.7008
  29   2.0000      -0.349790        -9.5183
  30   2.0000      -0.341805        -9.3010
  31   2.0000      -0.337225        -9.1764
  32   2.0000      -0.324401        -8.8274
  33   2.0000      -0.314180        -8.5493
  34   2.0000      -0.281559        -7.6616
  35   2.0000      -0.274698        -7.4749
  36   2.0000      -0.274076        -7.4580
  37   2.0000      -0.270123        -7.3504
  38   2.0000      -0.233970        -6.3667
  39   0.0000      -0.013755        -0.3743
  40   0.0000       0.059014         1.6059
  41   0.0000       0.084925         2.3109
  42   0.0000       0.094404         2.5689
  43   0.0000       0.107963         2.9378

MULLIKEN ATOMIC CHARGES
-----------------------
   0 C :   -0.315580
   1 O :   -0.163595
   2 C :    0.225812
   3 O :   -0.411381
   4 C :    0.132087
   5 C :   -0.409212
   6 C :   -0.256813
   7 C :   -0.346269
   8 C :   -0.257380
   9 C :   -0.407976
  10 H :    0.147812
  11 H :    0.192120
  12 H :    0.146597
  13 H :    0.172801
  14 H :    0.150399
  15 H :    0.161561
  16 H :    0.166962
  17 H :    0.147508
  18 H :    0.151848
  19 H :    0.145472
  20 H :    0.166332
  21 H :    0.147772
  22 H :    0.151021
  23 H :    0.162101
Sum of atomic charges:    0.0000000

LOEWDIN ATOMIC CHARGES
----------------------
   0 C :   -0.049927
   1 O :   -0.622197
   2 C :    0.364719
   3 O :   -0.431979
   4 C :   -0.154027
   5 C :   -0.272293
   6 C :   -0.299245
   7 C :   -0.299738
   8 C :   -0.299119
   9 C :   -0.271665
  10 H :    0.171879
  11 H :    0.196598
  12 H :    0.172538
  13 H :    0.184548
  14 H :    0.164525
  15 H :    0.161630
  16 H :    0.170699
  17 H :    0.153885
  18 H :    0.155575
  19 H :    0.153050
  20 H :    0.170221
  21 H :    0.153992
  22 H :    0.164703
  23 H :    0.161629

  Mayer bond orders larger than 0.100000
B(  0-C ,  1-O ) :   0.8430 B(  0-C , 10-H ) :   0.9619 B(  0-C , 11-H ) :   0.9699
B(  0-C , 12-H ) :   0.9654 B(  1-O ,  2-C ) :   1.0271 B(  2-C ,  3-O ) :   1.8770
B(  2-C ,  4-C ) :   0.9880 B(  4-C ,  5-C ) :   0.8848 B(  4-C ,  9-C ) :   0.8813
B(  4-C , 13-H ) :   0.9371 B(  5-C ,  6-C ) :   0.8980 B(  5-C , 14-H ) :   0.9479
B(  5-C , 15-H ) :   0.9868 B(  6-C ,  7-C ) :   0.8985 B(  6-C , 16-H ) :   0.9876
B(  6-C , 17-H ) :   0.9387 B(  7-C ,  8-C ) :   0.8978 B(  7-C , 18-H ) :   0.9493
B(  7-C , 19-H ) :   1.0065 B(  8-C ,  9-C ) :   0.8991 B(  8-C , 20-H ) :   0.9884
B(  8-C , 21-H ) :   0.9385 B(  9-C , 22-H ) :   0.9469 B(  9-C , 23-H ) :   0.9866

Dispersion correction           -0.008022884
FINAL SINGLE POINT ENERGY      -463.629863851338

DIPOLE MOMENT
-------------

Method             : SCF
Type of density    : Electron Density
Multiplicity       :   1
Irrep              :   0
Energy             :  -463.6354712213893663 Eh
Relativity type    :
Basis              : AO
                                X                 Y                 Z
Electronic contribution:     -6.806795509      -0.199839474      -2.767834774
Nuclear contribution   :      7.309773416       0.216570169       3.406533724
                        -----------------------------------------
Total Dipole Moment    :      0.502977907       0.016730694       0.638698950
                        -----------------------------------------
Magnitude (a.u.)       :      0.813143923
Magnitude (Debye)      :      2.066847598

Rotational constants in cm-1:             0.069315             0.033629             0.031282
Rotational constants in MHz :          2077.999990          1008.178880           937.800412

                             ****ORCA TERMINATED NORMALLY****
TOTAL RUN TIME: 0 days 0 hours 0 minutes 29 seconds 36 msec
