                         Program Version 6.0.1  -  RELEASE   -
|  1> ! pbe def2-sv(p) def2/J RI DEFGRID1 loosescf d4 GCP(DFT/SV(P)) printgap
|  2> %output
|  3>     printlevel normal
|  4> end
|  5> * xyz 0 1
|  6> C -2.6660080302 0.5608716338 -0.0006950352
|  7> O -1.8153991297 -0.5633692412 0.0002130948
|  8> C -0.4618117274 -0.4125307791 0.0002679663
|  9> C 0.2496058244 -1.6118281164 0.0003229821
| 10> C 1.629151408 -1.6429119326 4.50255e-05
| 11> C 2.3390964892 -0.4563815557 -0.0004152328
| 12> C 1.6506744253 0.7418141807 -0.0003104929
| 13> C 0.2621420625 0.7889227476 0.000160553
| 14> O -0.3760065259 2.0057976947 0.0004202755
| 15> H -2.520836577 1.1766681914 -0.8908202841
| 16> H -2.5226514406 1.1768760518 0.8896400159
| 17> H -3.6768333576 0.1536756221 -0.0018205063
| 18> H -0.3272472541 -2.5230564725 0.0006811606
| 19> H 2.1453057443 -2.5902735544 0.0003000877
| 20> H 3.4179254741 -0.4565607681 -0.0006593261
| 21> H 2.1962291105 1.677513512 -0.0005230344
| 22> H 0.2899327567 2.7036300284 0.0005866756
| 23> *
| 24>
| 25>                          ****END OF INPUT****

CARTESIAN COORDINATES (ANGSTROEM)
---------------------------------
  C     -2.666008    0.560872   -0.000695
  O     -1.815399   -0.563369    0.000213
  C     -0.461812   -0.412531    0.000268
  C      0.249606   -1.611828    0.000323
  C      1.629151   -1.642912    0.000045
  C      2.339096   -0.456382   -0.000415
  C      1.650674    0.741814   -0.000310
  C      0.262142    0.788923    0.000161
  O     -0.376007    2.005798    0.000420
  H     -2.520837    1.176668   -0.890820
  H     -2.522651    1.176876    0.889640
  H     -3.676833    0.153676   -0.001821
  H     -0.327247   -2.523056    0.000681
  H      2.145306   -2.590274    0.000300
  H      3.417925   -0.456561   -0.000659
  H      2.196229    1.677514   -0.000523
  H      0.289933    2.703630    0.000587

 Total Charge           Charge          ....    0
 Multiplicity           Mult            ....    1
 Number of Electrons    NEL             ....   66
 Basis Dimension        Dim             ....  142

ORBITAL ENERGIES
----------------

  NO   OCC          E(Eh)            E(eV)
   0   2.0000     -18.783248      -511.1182
   1   2.0000     -18.778190      -510.9805
   2   2.0000      -9.952013      -270.8080
   3   2.0000      -9.946873      -270.6682
   4   2.0000      -9.925988      -270.0999
   5   2.0000      -9.891399      -269.1587
   6   2.0000      -9.885160      -268.9889
   7   2.0000      -9.883083      -268.9324
   8   2.0000      -9.882429      -268.9146
   9   2.0000      -0.970870       -26.4187
  10   2.0000      -0.953125       -25.9359
  11   2.0000      -0.768085       -20.9007
  12   2.0000      -0.681030       -18.5318
  13   2.0000      -0.661846       -18.0097
  14   2.0000      -0.618486       -16.8299
  15   2.0000      -0.565489       -15.3877
  16   2.0000      -0.528410       -14.3788
  17   2.0000      -0.497636       -13.5414
  18   2.0000      -0.461294       -12.5524
  19   2.0000      -0.434563       -11.8251
  20   2.0000      -0.419223       -11.4076
  21   2.0000      -0.411875       -11.2077
  22   2.0000      -0.380803       -10.3622
  23   2.0000      -0.372495       -10.1361
  24   2.0000      -0.358149        -9.7457
  25   2.0000      -0.348819        -9.4918
  26   2.0000      -0.317315        -8.6346
  27   2.0000      -0.307539        -8.3686
  28   2.0000      -0.306059        -8.3283
  29   2.0000      -0.274328        -7.4649
  30   2.0000      -0.270847        -7.3701
  31   2.0000      -0.208656        -5.6778
  32   2.0000      -0.174928        -4.7600
  33   0.0000      -0.025869        -0.7039
  34   0.0000      -0.011403        -0.3103
  35   0.0000       0.019187         0.5221
  36   0.0000       0.043709         1.1894
  37   0.0000       0.071633         1.9492

MULLIKEN ATOMIC CHARGES
-----------------------
   0 C :   -0.098594
   1 O :   -0.264487
   2 C :    0.171061
   3 C :   -0.145008
   4 C :   -0.042728
   5 C :   -0.052646
   6 C :   -0.168369
   7 C :    0.145298
   8 O :   -0.353230
   9 H :    0.108535
  10 H :    0.108531
  11 H :    0.112791
  12 H :    0.045115
  13 H :    0.048382
  14 H :    0.046428
  15 H :    0.022744
  16 H :    0.316176
Sum of atomic charges:   -0.0000000

LOEWDIN ATOMIC CHARGES
----------------------
   0 C :   -0.205473
   1 O :   -0.090627
   2 C :    0.011280
   3 C :   -0.137285
   4 C :   -0.139177
   5 C :   -0.141031
   6 C :   -0.170208
   7 C :   -0.007578
   8 O :   -0.245288
   9 H :    0.109415
  10 H :    0.109410
  11 H :    0.113960
  12 H :    0.130885
  13 H :    0.123363
  14 H :    0.122565
  15 H :    0.119329
  16 H :    0.296459

  Mayer bond orders larger than 0.100000
B(  0-C ,  1-O ) :   0.9707 B(  0-C ,  9-H ) :   0.9497 B(  0-C , 10-H ) :   0.9497
B(  0-C , 11-H ) :   0.9572 B(  1-O ,  2-C ) :   1.1596 B(  2-C ,  3-C ) :   1.3842
B(  2-C ,  7-C ) :   1.3098 B(  3-C ,  4-C ) :   1.3581 B(  3-C , 12-H ) :   0.9617
B(  4-C ,  5-C ) :   1.3480 B(  4-C , 13-H ) :   0.9711 B(  5-C ,  6-C ) :   1.3558
B(  5-C , 14-H ) :   0.9672 B(  6-C ,  7-C ) :   1.3328 B(  6-C , 15-H ) :   0.9512
B(  7-C ,  8-O ) :   1.1466 B(  8-O , 16-H ) :   0.8393

Dispersion correction           -0.016918229
FINAL SINGLE POINT ENERGY      -421.082737812788

DIPOLE MOMENT
-------------

Method             : SCF
Type of density    : Electron Density
Multiplicity       :   1
Irrep              :   0
Energy             :  -421.1424583547847078 Eh
Relativity type    :
Basis              : AO
                                X                 Y                 Z
Electronic contribution:      1.122197984      -0.476102109       0.002210727
Nuclear contribution   :     -0.968921252       1.258319431      -0.002444131
                        -----------------------------------------
Total Dipole Moment    :      0.153276732       0.782217322      -0.000233404
                        -----------------------------------------
Magnitude (a.u.)       :      0.797093313
Magnitude (Debye)      :      2.026050190

Rotational constants in cm-1:             0.101464             0.049339             0.033406
Rotational constants in MHz :          3041.806129          1479.131773          1001.500766

                             ****ORCA TERMINATED NORMALLY****
TOTAL RUN TIME: 0 days 0 hours 0 minutes 11 seconds 688 msec
