                         Program Version 6.0.1  -  RELEASE   -
|  1> ! pbe def2-sv(p) def2/J RI DEFGRID1 loosescf d4 GCP(DFT/SV(P)) printgap
|  2> %output
|  3>     printlevel normal
|  4> end
|  5> * xyz 0 1
|  6> C -3.1126741228 -0.2705782733 -0.6205033302
|  7> C -1.5901276503 -0.3184309195 -0.4972529073
|  8> H -1.1578578674 -0.1922831186 -1.4985451693
|  9> C -1.0913250575 -1.6369750891 0.0850622744
| 10> C 0.4329205987 -1.6877366046 0.0634872689
| 11> C 1.0823907469 -0.4482887623 0.7302856485
| 12> H 1.676905135 -0.7854573763 1.5870702991
| 13> C 0.0325799171 0.5256559193 1.2779132608
| 14> C -1.0873981101 0.8556256434 0.3228609889
| 15> O -1.569088074 1.9593938803 0.2438277787
| 16> C 2.0413989176 0.2022610716 -0.2430800546
| 17> C 1.7462079345 1.2598919914 -0.9798502154
| 18> C 3.3757307238 -0.4784896863 -0.3331925569
| 19> H -3.5752984789 -0.4676000635 0.3445373308
| 20> H -3.424304643 0.7154255583 -0.9549156882
| 21> H -3.4631472758 -1.0138065144 -1.3325374679
| 22> H -1.4640049637 -1.7535036018 1.1049098272
| 23> H -1.4864377199 -2.4679511165 -0.5035107193
| 24> H 0.7706050601 -2.6004172729 0.5574306539
| 25> H 0.757364088 -1.740683275 -0.9784874168
| 26> H -0.4443186437 0.0750151676 2.1537632001
| 27> H 0.510174204 1.4509572185 1.6049566373
| 28> H 2.4579570515 1.671884842 -1.6756594869
| 29> H 0.8005618037 1.7680664495 -0.9240517256
| 30> H 3.2504088177 -1.544819428 -0.5163241325
| 31> H 3.9786051438 -0.053431974 -1.1308771568
| 32> H 3.9161658184 -0.3660707841 0.6068032527
| 33> *
| 34>
| 35>                          ****END OF INPUT****

CARTESIAN COORDINATES (ANGSTROEM)
---------------------------------
  C     -3.112674   -0.270578   -0.620503
  C     -1.590128   -0.318431   -0.497253
  H     -1.157858   -0.192283   -1.498545
  C     -1.091325   -1.636975    0.085062
  C      0.432921   -1.687737    0.063487
  C      1.082391   -0.448289    0.730286
  H      1.676905   -0.785457    1.587070
  C      0.032580    0.525656    1.277913
  C     -1.087398    0.855626    0.322861
  O     -1.569088    1.959394    0.243828
  C      2.041399    0.202261   -0.243080
  C      1.746208    1.259892   -0.979850
  C      3.375731   -0.478490   -0.333193
  H     -3.575298   -0.467600    0.344537
  H     -3.424305    0.715426   -0.954916
  H     -3.463147   -1.013807   -1.332537
  H     -1.464005   -1.753504    1.104910
  H     -1.486438   -2.467951   -0.503511
  H      0.770605   -2.600417    0.557431
  H      0.757364   -1.740683   -0.978487
  H     -0.444319    0.075015    2.153763
  H      0.510174    1.450957    1.604957
  H      2.457957    1.671885   -1.675659
  H      0.800562    1.768066   -0.924052
  H      3.250409   -1.544819   -0.516324
  H      3.978605   -0.053432   -1.130877
  H      3.916166   -0.366071    0.606803

 Total Charge           Charge          ....    0
 Multiplicity           Mult            ....    1
 Number of Electrons    NEL             ....   84
 Basis Dimension        Dim             ....  186

ORBITAL ENERGIES
----------------

  NO   OCC          E(Eh)            E(eV)
   0   2.0000     -18.734338      -509.7873
   1   2.0000      -9.968417      -271.2544
   2   2.0000      -9.909788      -269.6590
   3   2.0000      -9.902789      -269.4686
   4   2.0000      -9.901106      -269.4228
   5   2.0000      -9.895873      -269.2804
   6   2.0000      -9.895602      -269.2730
   7   2.0000      -9.891789      -269.1693
   8   2.0000      -9.883623      -268.9471
   9   2.0000      -9.876279      -268.7472
  10   2.0000      -9.869729      -268.5690
  11   2.0000      -0.936946       -25.4956
  12   2.0000      -0.772965       -21.0335
  13   2.0000      -0.728063       -19.8116
  14   2.0000      -0.682427       -18.5698
  15   2.0000      -0.661051       -17.9881
  16   2.0000      -0.614880       -16.7317
  17   2.0000      -0.607756       -16.5379
  18   2.0000      -0.555776       -15.1234
  19   2.0000      -0.531780       -14.4705
  20   2.0000      -0.473412       -12.8822
  21   2.0000      -0.467297       -12.7158
  22   2.0000      -0.439489       -11.9591
  23   2.0000      -0.425063       -11.5666
  24   2.0000      -0.413059       -11.2399
  25   2.0000      -0.396524       -10.7900
  26   2.0000      -0.379726       -10.3329
  27   2.0000      -0.377526       -10.2730
  28   2.0000      -0.375836       -10.2270
  29   2.0000      -0.363345        -9.8871
  30   2.0000      -0.350423        -9.5355
  31   2.0000      -0.345950        -9.4138
  32   2.0000      -0.334415        -9.0999
  33   2.0000      -0.330751        -9.0002
  34   2.0000      -0.322245        -8.7687
  35   2.0000      -0.313755        -8.5377
  36   2.0000      -0.301594        -8.2068
  37   2.0000      -0.292836        -7.9685
  38   2.0000      -0.278232        -7.5711
  39   2.0000      -0.273073        -7.4307
  40   2.0000      -0.220592        -6.0026
  41   2.0000      -0.190172        -5.1748
  42   0.0000      -0.050064        -1.3623
  43   0.0000      -0.013578        -0.3695
  44   0.0000       0.022082         0.6009
  45   0.0000       0.046961         1.2779
  46   0.0000       0.056581         1.5396

MULLIKEN ATOMIC CHARGES
-----------------------
   0 C :   -0.212738
   1 C :   -0.199202
   2 H :    0.097093
   3 C :   -0.112456
   4 C :   -0.094465
   5 C :   -0.146411
   6 H :    0.066083
   7 C :   -0.043295
   8 C :   -0.023227
   9 O :   -0.160128
  10 C :   -0.079603
  11 C :   -0.250625
  12 C :   -0.213198
  13 H :    0.093572
  14 H :    0.120136
  15 H :    0.097737
  16 H :    0.074840
  17 H :    0.087515
  18 H :    0.084900
  19 H :    0.090659
  20 H :    0.102197
  21 H :    0.096919
  22 H :    0.082102
  23 H :    0.121792
  24 H :    0.107671
  25 H :    0.100826
  26 H :    0.111306
Sum of atomic charges:   -0.0000000

LOEWDIN ATOMIC CHARGES
----------------------
   0 C :   -0.323083
   1 C :   -0.178673
   2 H :    0.142079
   3 C :   -0.216401
   4 C :   -0.212286
   5 C :   -0.130283
   6 H :    0.124167
   7 C :   -0.236809
   8 C :    0.046863
   9 O :   -0.122639
  10 C :   -0.052976
  11 C :   -0.272579
  12 C :   -0.322687
  13 H :    0.119213
  14 H :    0.128004
  15 H :    0.118830
  16 H :    0.115637
  17 H :    0.122201
  18 H :    0.120279
  19 H :    0.122903
  20 H :    0.145361
  21 H :    0.135402
  22 H :    0.120207
  23 H :    0.126152
  24 H :    0.126288
  25 H :    0.124681
  26 H :    0.130149

  Mayer bond orders larger than 0.100000
B(  0-C ,  1-C ) :   1.1215 B(  0-C , 13-H ) :   0.9505 B(  0-C , 14-H ) :   0.9379
B(  0-C , 15-H ) :   0.9488 B(  1-C ,  2-H ) :   0.8523 B(  1-C ,  3-C ) :   1.1098
B(  1-C ,  8-C ) :   0.9226 B(  3-C ,  4-C ) :   1.1828 B(  3-C , 16-H ) :   0.8892
B(  3-C , 17-H ) :   0.9113 B(  4-C ,  5-C ) :   1.0370 B(  4-C , 18-H ) :   0.9080
B(  4-C , 19-H ) :   0.9084 B(  5-C ,  6-H ) :   0.8738 B(  5-C ,  7-C ) :   1.1193
B(  5-C , 10-C ) :   0.9975 B(  7-C ,  8-C ) :   1.0610 B(  7-C , 20-H ) :   0.8555
B(  7-C , 21-H ) :   0.8917 B(  8-C ,  9-O ) :   2.1578 B( 10-C , 11-C ) :   2.0493
B( 10-C , 12-C ) :   1.1196 B( 11-C , 22-H ) :   0.9013 B( 11-C , 23-H ) :   0.8874
B( 12-C , 24-H ) :   0.9309 B( 12-C , 25-H ) :   0.9420 B( 12-C , 26-H ) :   0.9285

Dispersion correction           -0.029241154
FINAL SINGLE POINT ENERGY      -464.824585979199

DIPOLE MOMENT
-------------

Method             : SCF
Type of density    : Electron Density
Multiplicity       :   1
Irrep              :   0
Energy             :  -464.9103876573557272 Eh
Relativity type    :
Basis              : AO
                                X                 Y                 Z
Electronic contribution:     -2.416018122       5.713086039       1.577416321
Nuclear contribution   :      2.888217322      -6.823946573      -1.455644006
                        -----------------------------------------
Total Dipole Moment    :      0.472199199      -1.110860534       0.121772315
                        -----------------------------------------
Magnitude (a.u.)       :      1.213182471
Magnitude (Debye)      :      3.083664778

Rotational constants in cm-1:             0.062346             0.026998             0.022496
Rotational constants in MHz :          1869.091907           809.391729           674.399330

                             ****ORCA TERMINATED NORMALLY****
TOTAL RUN TIME: 0 days 0 hours 0 minutes 26 seconds 136 msec
