                         Program Version 6.0.0  -   RELEASE  -
|  1> ! r2SCAN-3c DEF2-TZVP FREQ
|  2> * xyzfile 0 1 censo.xyz
|  3>
|  4>                          ****END OF INPUT****

CARTESIAN COORDINATES (ANGSTROEM)
---------------------------------
  C     -2.770361   -0.787370   -0.000144
  O     -1.790700    0.263397    0.000090
  C     -0.471535   -0.110395    0.000046
  C      0.000874   -1.418744    0.000046
  C      1.378133   -1.658452    0.000003
  C      2.275861   -0.598010   -0.000043
  C      1.804556    0.715949   -0.000044
  C      0.440239    0.961376    0.000001
  O     -0.009263    2.262691   -0.000005
  H     -2.674196   -1.407821   -0.897819
  H     -3.738979   -0.287097   -0.000183
  H     -2.674396   -1.408051    0.897393
  H     -0.691216   -2.252330    0.000082
  H      1.737391   -2.682171    0.000004
  H      3.344845   -0.782924   -0.000082
  H      2.488678    1.558755   -0.000088
  H     -0.978590    2.249580   -0.000008

 Total Charge           Charge          ....    0
 Multiplicity           Mult            ....    1
 Number of Electrons    NEL             ....   66
 Basis Dimension        Dim             ....  327

ORBITAL ENERGIES
----------------

  NO   OCC          E(Eh)            E(eV)
   0   2.0000     -19.000385      -517.0268
   1   2.0000     -18.978878      -516.4415
   2   2.0000     -10.098123      -274.7839
   3   2.0000     -10.094386      -274.6822
   4   2.0000     -10.091000      -274.5901
   5   2.0000     -10.037392      -273.1313
   6   2.0000     -10.030822      -272.9525
   7   2.0000     -10.030139      -272.9340
   8   2.0000     -10.029612      -272.9196
   9   2.0000      -1.043732       -28.4014
  10   2.0000      -1.010524       -27.4977
  11   2.0000      -0.814237       -22.1565
  12   2.0000      -0.723693       -19.6927
  13   2.0000      -0.710885       -19.3442
  14   2.0000      -0.669658       -18.2223
  15   2.0000      -0.575293       -15.6545
  16   2.0000      -0.574952       -15.6452
  17   2.0000      -0.520776       -14.1710
  18   2.0000      -0.489836       -13.3291
  19   2.0000      -0.455691       -12.4000
  20   2.0000      -0.446444       -12.1484
  21   2.0000      -0.425421       -11.5763
  22   2.0000      -0.415085       -11.2950
  23   2.0000      -0.393738       -10.7142
  24   2.0000      -0.380260       -10.3474
  25   2.0000      -0.357650        -9.7321
  26   2.0000      -0.349507        -9.5106
  27   2.0000      -0.319704        -8.6996
  28   2.0000      -0.317577        -8.6417
  29   2.0000      -0.309198        -8.4137
  30   2.0000      -0.299091        -8.1387
  31   2.0000      -0.222572        -6.0565
  32   2.0000      -0.191708        -5.2166
  33   0.0000      -0.025183        -0.6853
  34   0.0000      -0.013357        -0.3635
  35   0.0000       0.028071         0.7638
  36   0.0000       0.048020         1.3067
  37   0.0000       0.075806         2.0628

MULLIKEN ATOMIC CHARGES
-----------------------
   0 C :   -0.171349
   1 O :   -0.332287
   2 C :    0.311700
   3 C :   -0.229170
   4 C :   -0.145230
   5 C :   -0.114868
   6 C :   -0.201038
   7 C :    0.165501
   8 O :   -0.409582
   9 H :    0.119221
  10 H :    0.127000
  11 H :    0.119216
  12 H :    0.110229
  13 H :    0.105962
  14 H :    0.105864
  15 H :    0.109932
  16 H :    0.328897
Sum of atomic charges:    0.0000000

LOEWDIN ATOMIC CHARGES
----------------------
   0 C :   -0.305757
   1 O :    0.202358
   2 C :   -0.243307
   3 C :   -0.148912
   4 C :   -0.161376
   5 C :   -0.156178
   6 C :   -0.123198
   7 C :   -0.241919
   8 O :    0.075004
   9 H :    0.109445
  10 H :    0.114199
  11 H :    0.109442
  12 H :    0.146011
  13 H :    0.141749
  14 H :    0.142459
  15 H :    0.149787
  16 H :    0.190193

  Mayer bond orders larger than 0.100000
B(  0-C ,  1-O ) :   0.9281 B(  0-C ,  9-H ) :   0.9673 B(  0-C , 10-H ) :   0.9752
B(  0-C , 11-H ) :   0.9673 B(  1-O ,  2-C ) :   1.0083 B(  2-C ,  3-C ) :   1.3041
B(  2-C ,  7-C ) :   1.2464 B(  3-C ,  4-C ) :   1.3599 B(  3-C , 12-H ) :   0.9663
B(  4-C ,  5-C ) :   1.4310 B(  4-C , 13-H ) :   0.9671 B(  5-C ,  6-C ) :   1.3695
B(  5-C , 14-H ) :   0.9765 B(  6-C ,  7-C ) :   1.4383 B(  6-C , 15-H ) :   0.9784
B(  7-C ,  8-O ) :   1.1608 B(  8-O , 16-H ) :   0.8639

Dispersion correction           -0.005376598
FINAL SINGLE POINT ENERGY      -421.933719072377

DIPOLE MOMENT
-------------

Method             : SCF
Type of density    : Electron Density
Multiplicity       :   1
Irrep              :   0
Energy             :  -421.9368314014083694 Eh
Relativity type    :
Basis              : AO
                                X                 Y                 Z
Electronic contribution:      2.121882319       4.074320931       0.000486951
Nuclear contribution   :     -3.010797802      -4.700229364      -0.000596926
                        -----------------------------------------
Total Dipole Moment    :     -0.888915483      -0.625908433      -0.000109975
                        -----------------------------------------
Magnitude (a.u.)       :      1.087167013
Magnitude (Debye)      :      2.763358939

VIBRATIONAL FREQUENCIES
-----------------------

Scaling factor for frequencies =  1.000000000  (already applied!)

     0:       0.00 cm**-1
     1:       0.00 cm**-1
     2:       0.00 cm**-1
     3:       0.00 cm**-1
     4:       0.00 cm**-1
     5:       0.00 cm**-1
     6:     109.62 cm**-1
     7:     186.20 cm**-1
     8:     239.84 cm**-1
     9:     254.70 cm**-1
    10:     315.66 cm**-1
    11:     351.01 cm**-1
    12:     457.68 cm**-1
    13:     461.83 cm**-1
    14:     509.54 cm**-1
    15:     537.89 cm**-1
    16:     569.85 cm**-1
    17:     598.62 cm**-1
    18:     704.97 cm**-1
    19:     742.80 cm**-1
    20:     766.06 cm**-1
    21:     832.94 cm**-1
    22:     843.22 cm**-1
    23:     900.25 cm**-1
    24:     929.34 cm**-1
    25:    1020.76 cm**-1
    26:    1055.86 cm**-1
    27:    1126.55 cm**-1
    28:    1160.66 cm**-1
    29:    1179.22 cm**-1
    30:    1188.36 cm**-1
    31:    1222.52 cm**-1
    32:    1233.53 cm**-1
    33:    1271.54 cm**-1
    34:    1330.95 cm**-1
    35:    1397.56 cm**-1
    36:    1463.70 cm**-1
    37:    1482.36 cm**-1
    38:    1490.24 cm**-1
    39:    1498.94 cm**-1
    40:    1523.04 cm**-1
    41:    1621.99 cm**-1
    42:    1644.22 cm**-1
    43:    2999.95 cm**-1
    44:    3077.31 cm**-1
    45:    3131.55 cm**-1
    46:    3164.02 cm**-1
    47:    3174.05 cm**-1
    48:    3184.90 cm**-1
    49:    3196.29 cm**-1
    50:    3729.21 cm**-1

IR SPECTRUM
-----------

 Mode   freq       eps      Int      T**2         TX        TY        TZ
       cm**-1   L/(mol*cm) km/mol    a.u.
----------------------------------------------------------------------------
  6:    109.62   0.000694    3.51  0.001977  (-0.000038  0.000016  0.044463)
  7:    186.20   0.000143    0.72  0.000240  ( 0.000014 -0.000007 -0.015486)
  8:    239.84   0.000189    0.95  0.000246  (-0.015336 -0.003229  0.000008)
  9:    254.70   0.000016    0.08  0.000020  ( 0.000001  0.000011  0.004444)
 10:    315.66   0.000000    0.00  0.000000  (-0.000005 -0.000003 -0.000629)
 11:    351.01   0.000865    4.37  0.000769  (-0.016224  0.022497  0.000004)
 12:    457.68   0.013551   68.48  0.009240  ( 0.000001  0.000012 -0.096123)
 13:    461.83   0.006064   30.65  0.004098  ( 0.000003  0.000024  0.064014)
 14:    509.54   0.000250    1.26  0.000153  (-0.011446 -0.004684 -0.000008)
 15:    537.89   0.002125   10.74  0.001233  (-0.000589  0.035109  0.000002)
 16:    569.85   0.000233    1.18  0.000128  (-0.000016 -0.000002  0.011298)
 17:    598.62   0.000693    3.50  0.000361  ( 0.015882 -0.010435  0.000002)
 18:    704.97   0.000048    0.24  0.000021  (-0.000006  0.000005 -0.004632)
 19:    742.80   0.014812   74.85  0.006223  (-0.000007 -0.000002  0.078885)
 20:    766.06   0.005081   25.68  0.002070  (-0.031987  0.032350  0.000007)
 21:    832.94   0.000001    0.01  0.000000  ( 0.000001  0.000003 -0.000691)
 22:    843.22   0.001372    6.93  0.000508  (-0.004090 -0.022157  0.000003)
 23:    900.25   0.000953    4.82  0.000331  (-0.000005  0.000003  0.018180)
 24:    929.34   0.000063    0.32  0.000021  (-0.000001 -0.000000  0.004613)
 25:   1020.76   0.016675   84.27  0.005098  ( 0.051586  0.049362  0.000008)
 26:   1055.86   0.004415   22.31  0.001305  (-0.033628  0.013189 -0.000001)
 27:   1126.55   0.005248   26.52  0.001454  (-0.032813 -0.019418 -0.000000)
 28:   1160.66   0.000095    0.48  0.000026  ( 0.000007 -0.000008 -0.005059)
 29:   1179.22   0.001021    5.16  0.000270  ( 0.014489 -0.007767  0.000000)
 30:   1188.36   0.002116   10.69  0.000556  ( 0.022741 -0.006196  0.000002)
 31:   1222.52   0.009678   48.91  0.002470  ( 0.041999 -0.026579  0.000001)
 32:   1233.53   0.035519  179.50  0.008986  ( 0.010964  0.094158 -0.000000)
 33:   1271.54   0.036987  186.91  0.009077  (-0.090810  0.028824  0.000000)
 34:   1330.95   0.002131   10.77  0.000500  ( 0.003644  0.022055 -0.000001)
 35:   1397.56   0.007754   39.18  0.001731  ( 0.022359  0.035092 -0.000000)
 36:   1463.70   0.002802   14.16  0.000597  ( 0.008988 -0.022730 -0.000005)
 37:   1482.36   0.001785    9.02  0.000376  ( 0.000014 -0.000007  0.019387)
 38:   1490.24   0.002771   14.00  0.000580  (-0.022766  0.007873  0.000009)
 39:   1498.94   0.006536   33.03  0.001361  (-0.036258  0.006785  0.000003)
 40:   1523.04   0.029714  150.16  0.006088  ( 0.062325 -0.046944  0.000001)
 41:   1621.99   0.005433   27.46  0.001045  (-0.006642 -0.031643 -0.000001)
 42:   1644.22   0.002914   14.73  0.000553  ( 0.023128 -0.004257 -0.000000)
 43:   2999.95   0.009710   49.07  0.001010  (-0.025627 -0.018796 -0.000003)
 44:   3077.31   0.006098   30.82  0.000618  (-0.000003 -0.000002  0.024868)
 45:   3131.55   0.003332   16.84  0.000332  (-0.016126  0.008483  0.000001)
 46:   3164.02   0.000082    0.42  0.000008  ( 0.002194  0.001817 -0.000000)
 47:   3174.05   0.002188   11.06  0.000215  ( 0.006327 -0.013231 -0.000000)
 48:   3184.90   0.002685   13.57  0.000263  (-0.016188 -0.001035  0.000001)
 49:   3196.29   0.001069    5.40  0.000104  ( 0.003086  0.009740 -0.000000)
 50:   3729.21   0.016539   83.58  0.001384  ( 0.034972 -0.012687  0.000000)

--------------------------
THERMOCHEMISTRY AT 298.15K
--------------------------

Temperature         ...   298.15 K
Pressure            ...     1.00 atm
Total Mass          ...   124.14 AMU
Quasi RRHO          ...     True
Cut-Off Frequency   ...     1.00 cm^-1

Throughout the following assumptions are being made:
  (1) The electronic state is orbitally nondegenerate
  (2) There are no thermally accessible electronically excited states
  (3) Hindered rotations indicated by low frequency modes are not
      treated as such but are treated as vibrations and this may
      cause some error
  (4) All equations used are the standard statistical mechanics
      equations for an ideal gas
  (5) All vibrations are strictly harmonic

freq.     109.62  E(vib)   ...       0.45
freq.     186.20  E(vib)   ...       0.37
freq.     239.84  E(vib)   ...       0.31
freq.     254.70  E(vib)   ...       0.30
freq.     315.66  E(vib)   ...       0.25
freq.     351.01  E(vib)   ...       0.23
freq.     457.68  E(vib)   ...       0.16
freq.     461.83  E(vib)   ...       0.16
freq.     509.54  E(vib)   ...       0.14
freq.     537.89  E(vib)   ...       0.12
freq.     569.85  E(vib)   ...       0.11
freq.     598.62  E(vib)   ...       0.10
freq.     704.97  E(vib)   ...       0.07
freq.     742.80  E(vib)   ...       0.06
freq.     766.06  E(vib)   ...       0.06
freq.     832.94  E(vib)   ...       0.04
freq.     843.22  E(vib)   ...       0.04
freq.     900.25  E(vib)   ...       0.03
freq.     929.34  E(vib)   ...       0.03
freq.    1020.76  E(vib)   ...       0.02
freq.    1055.86  E(vib)   ...       0.02
freq.    1126.55  E(vib)   ...       0.01
freq.    1160.66  E(vib)   ...       0.01
freq.    1179.22  E(vib)   ...       0.01
freq.    1188.36  E(vib)   ...       0.01
freq.    1222.52  E(vib)   ...       0.01
freq.    1233.53  E(vib)   ...       0.01
freq.    1271.54  E(vib)   ...       0.01
freq.    1330.95  E(vib)   ...       0.01
freq.    1397.56  E(vib)   ...       0.00
freq.    1463.70  E(vib)   ...       0.00
freq.    1482.36  E(vib)   ...       0.00
freq.    1490.24  E(vib)   ...       0.00
freq.    1498.94  E(vib)   ...       0.00
freq.    1523.04  E(vib)   ...       0.00
freq.    1621.99  E(vib)   ...       0.00
freq.    1644.22  E(vib)   ...       0.00
freq.    2999.95  E(vib)   ...       0.00
freq.    3077.31  E(vib)   ...       0.00
freq.    3131.55  E(vib)   ...       0.00
freq.    3164.02  E(vib)   ...       0.00
freq.    3174.05  E(vib)   ...       0.00
freq.    3184.90  E(vib)   ...       0.00
freq.    3196.29  E(vib)   ...       0.00
freq.    3729.21  E(vib)   ...       0.00

------------
INNER ENERGY
------------

The inner energy is: U= E(el) + E(ZPE) + E(vib) + E(rot) + E(trans)
    E(el)   - is the total energy from the electronic structure calculation
              = E(kin-el) + E(nuc-el) + E(el-el) + E(nuc-nuc)
    E(ZPE)  - the the zero temperature vibrational energy from the frequency calculation
    E(vib)  - the the finite temperature correction to E(ZPE) due to population
              of excited vibrational states
    E(rot)  - is the rotational thermal energy
    E(trans)- is the translational thermal energy

Summary of contributions to the inner energy U:
Electronic energy                ...   -421.93371907 Eh
Zero point energy                ...      0.13641963 Eh      85.60 kcal/mol
Thermal vibrational correction   ...      0.00507237 Eh       3.18 kcal/mol
Thermal rotational correction    ...      0.00141627 Eh       0.89 kcal/mol
Thermal translational correction ...      0.00141627 Eh       0.89 kcal/mol
-----------------------------------------------------------------------
Total thermal energy                   -421.78939453 Eh

Summary of corrections to the electronic energy:
(perhaps to be used in another calculation)
Total thermal correction                  0.00790491 Eh       4.96 kcal/mol
Non-thermal (ZPE) correction              0.13641963 Eh      85.60 kcal/mol
-----------------------------------------------------------------------
Total correction                          0.14432454 Eh      90.56 kcal/mol

--------
ENTHALPY
--------

The enthalpy is H = U + kB*T
                kB is Boltzmann's constant
Total thermal energy              ...   -421.78939453 Eh
Thermal Enthalpy correction       ...      0.00094421 Eh       0.59 kcal/mol
-----------------------------------------------------------------------
Total Enthalpy                    ...   -421.78845032 Eh

Note: Only C1 symmetry has been detected, increase convergence thresholds
      if your molecule has a higher symmetry. Symmetry factor of 1.0 is
      used for the rotational entropy correction.

Note: Rotational entropy computed according to Herzberg
Infrared and Raman Spectra, Chapter V,1, Van Nostrand Reinhold, 1945
Point Group:  C1, Symmetry Number:   1
Rotational constants in cm-1:     0.086179     0.051907     0.032598

Vibrational entropy computed according to the QRRHO of S. Grimme
Chem.Eur.J. 2012 18 9955 using a reference frequency of 100.0 cm-1

-------
ENTROPY
-------

The entropy contributions are T*S = T*(S(el)+S(vib)+S(rot)+S(trans))
     S(el)   - electronic entropy
     S(vib)  - vibrational entropy
     S(rot)  - rotational entropy
     S(trans)- translational entropy
The entropies will be listed as multiplied by the temperature to get
units of energy

Electronic entropy                ...      0.00000000 Eh      0.00 kcal/mol
Vibrational entropy               ...      0.00809444 Eh      5.08 kcal/mol
Rotational entropy                ...      0.01368084 Eh      8.58 kcal/mol
Translational entropy             ...      0.01917748 Eh     12.03 kcal/mol
-----------------------------------------------------------------------
Final entropy term                ...      0.04095277 Eh     25.70 kcal/mol

In case the symmetry of your molecule has not been determined correctly
or in case you have a reason to use a different symmetry number we print
out the resulting rotational entropy values for sn=1,12:

 non-linear molecules -----------------------------------
|  sn= 1 | S(rot)=       0.01368084 Eh      8.58 kcal/mol|
|  sn= 2 | S(rot)=       0.01302639 Eh      8.17 kcal/mol|
|  sn= 3 | S(rot)=       0.01264356 Eh      7.93 kcal/mol|
|  sn= 4 | S(rot)=       0.01237193 Eh      7.76 kcal/mol|
|  sn= 5 | S(rot)=       0.01216124 Eh      7.63 kcal/mol|
|  sn= 6 | S(rot)=       0.01198910 Eh      7.52 kcal/mol|
|  sn= 7 | S(rot)=       0.01184355 Eh      7.43 kcal/mol|
|  sn= 8 | S(rot)=       0.01171748 Eh      7.35 kcal/mol|
|  sn= 9 | S(rot)=       0.01160627 Eh      7.28 kcal/mol|
|  sn=10 | S(rot)=       0.01150679 Eh      7.22 kcal/mol|
|  sn=11 | S(rot)=       0.01141680 Eh      7.16 kcal/mol|
|  sn=12 | S(rot)=       0.01133464 Eh      7.11 kcal/mol|
 linear molecules ---------------------------------------
|  Dinfh | S(rot)=       0.00855820 Eh      5.37 kcal/mol|
|  Cinfv | S(rot)=       0.00921266 Eh      5.78 kcal/mol|

                             ****ORCA TERMINATED NORMALLY****
TOTAL RUN TIME: 0 days 0 hours 13 minutes 58 seconds 685 msec
