                         Program Version 6.0.0  -   RELEASE  -
|  1> ! r2SCAN-3c DEF2-TZVP FREQ
|  2> * xyzfile 0 1 vacuum_censo.xyz
|  3>
|  4>                          ****END OF INPUT****

CARTESIAN COORDINATES (ANGSTROEM)
---------------------------------
  C     -2.759838   -0.788898    0.000484
  O     -1.788120    0.252663   -0.000227
  C     -0.465810   -0.119530   -0.000126
  C      0.013186   -1.423007   -0.000138
  C      1.391482   -1.652186   -0.000018
  C      2.277145   -0.583611    0.000113
  C      1.797534    0.725442    0.000112
  C      0.431990    0.963065   -0.000013
  O     -0.031786    2.245020   -0.000002
  H     -2.665715   -1.414056    0.897377
  H     -2.666499   -1.414594   -0.896119
  H     -3.731771   -0.294096    0.000746
  H     -0.670710   -2.263197   -0.000254
  H      1.760614   -2.671791   -0.000027
  H      3.347148   -0.760555    0.000225
  H      2.470920    1.575781    0.000230
  H     -0.997886    2.203862   -0.000036

 Total Charge           Charge          ....    0
 Multiplicity           Mult            ....    1
 Number of Electrons    NEL             ....   66
 Basis Dimension        Dim             ....  327

ORBITAL ENERGIES
----------------

  NO   OCC          E(Eh)            E(eV)
   0   2.0000     -19.000718      -517.0358
   1   2.0000     -18.980156      -516.4763
   2   2.0000     -10.097336      -274.7625
   3   2.0000     -10.093705      -274.6637
   4   2.0000     -10.090400      -274.5737
   5   2.0000     -10.037315      -273.1292
   6   2.0000     -10.030235      -272.9366
   7   2.0000     -10.029623      -272.9199
   8   2.0000     -10.028797      -272.8974
   9   2.0000      -1.047346       -28.4997
  10   2.0000      -1.016082       -27.6490
  11   2.0000      -0.814904       -22.1747
  12   2.0000      -0.724475       -19.7140
  13   2.0000      -0.711175       -19.3521
  14   2.0000      -0.669208       -18.2101
  15   2.0000      -0.576491       -15.6871
  16   2.0000      -0.575152       -15.6507
  17   2.0000      -0.522596       -14.2206
  18   2.0000      -0.491440       -13.3728
  19   2.0000      -0.456694       -12.4273
  20   2.0000      -0.447155       -12.1677
  21   2.0000      -0.425971       -11.5913
  22   2.0000      -0.415355       -11.3024
  23   2.0000      -0.394427       -10.7329
  24   2.0000      -0.382132       -10.3983
  25   2.0000      -0.359406        -9.7799
  26   2.0000      -0.349507        -9.5106
  27   2.0000      -0.318868        -8.6768
  28   2.0000      -0.318513        -8.6672
  29   2.0000      -0.309928        -8.4336
  30   2.0000      -0.299072        -8.1382
  31   2.0000      -0.222812        -6.0630
  32   2.0000      -0.191564        -5.2127
  33   0.0000      -0.024734        -0.6730
  34   0.0000      -0.012931        -0.3519
  35   0.0000       0.030050         0.8177
  36   0.0000       0.048089         1.3086
  37   0.0000       0.076357         2.0778

MULLIKEN ATOMIC CHARGES
-----------------------
   0 C :   -0.170523
   1 O :   -0.334023
   2 C :    0.312842
   3 C :   -0.229565
   4 C :   -0.144969
   5 C :   -0.114487
   6 C :   -0.201627
   7 C :    0.167182
   8 O :   -0.405971
   9 H :    0.117205
  10 H :    0.117194
  11 H :    0.125958
  12 H :    0.110820
  13 H :    0.106033
  14 H :    0.105292
  15 H :    0.109020
  16 H :    0.329620
Sum of atomic charges:    0.0000000

LOEWDIN ATOMIC CHARGES
----------------------
   0 C :   -0.315190
   1 O :    0.205547
   2 C :   -0.240210
   3 C :   -0.148685
   4 C :   -0.161893
   5 C :   -0.156224
   6 C :   -0.123411
   7 C :   -0.252990
   8 O :    0.089403
   9 H :    0.109359
  10 H :    0.109351
  11 H :    0.114222
  12 H :    0.146280
  13 H :    0.141751
  14 H :    0.142615
  15 H :    0.149407
  16 H :    0.190667

  Mayer bond orders larger than 0.100000
B(  0-C ,  1-O ) :   0.9319 B(  0-C ,  9-H ) :   0.9676 B(  0-C , 10-H ) :   0.9676
B(  0-C , 11-H ) :   0.9753 B(  1-O ,  2-C ) :   0.9922 B(  2-C ,  3-C ) :   1.3075
B(  2-C ,  7-C ) :   1.2452 B(  3-C ,  4-C ) :   1.3590 B(  3-C , 12-H ) :   0.9660
B(  4-C ,  5-C ) :   1.4321 B(  4-C , 13-H ) :   0.9675 B(  5-C ,  6-C ) :   1.3702
B(  5-C , 14-H ) :   0.9767 B(  6-C ,  7-C ) :   1.4358 B(  6-C , 15-H ) :   0.9792
B(  7-C ,  8-O ) :   1.1669 B(  8-O , 16-H ) :   0.8614

Dispersion correction           -0.005386598
FINAL SINGLE POINT ENERGY      -421.934118876763

DIPOLE MOMENT
-------------

Method             : SCF
Type of density    : Electron Density
Multiplicity       :   1
Irrep              :   0
Energy             :  -421.9373330403722662 Eh
Relativity type    :
Basis              : AO
                                X                 Y                 Z
Electronic contribution:      2.112650474       4.099392276      -0.001494111
Nuclear contribution   :     -2.983521517      -4.708719605       0.001798907
                        -----------------------------------------
Total Dipole Moment    :     -0.870871043      -0.609327329       0.000304796
                        -----------------------------------------
Magnitude (a.u.)       :      1.062871705
Magnitude (Debye)      :      2.701605173

VIBRATIONAL FREQUENCIES
-----------------------

Scaling factor for frequencies =  1.000000000  (already applied!)

     0:       0.00 cm**-1
     1:       0.00 cm**-1
     2:       0.00 cm**-1
     3:       0.00 cm**-1
     4:       0.00 cm**-1
     5:       0.00 cm**-1
     6:      90.12 cm**-1
     7:     182.60 cm**-1
     8:     235.97 cm**-1
     9:     257.97 cm**-1
    10:     313.25 cm**-1
    11:     351.76 cm**-1
    12:     434.81 cm**-1
    13:     456.21 cm**-1
    14:     511.25 cm**-1
    15:     540.00 cm**-1
    16:     568.13 cm**-1
    17:     598.52 cm**-1
    18:     704.09 cm**-1
    19:     740.42 cm**-1
    20:     769.27 cm**-1
    21:     832.27 cm**-1
    22:     851.05 cm**-1
    23:     897.88 cm**-1
    24:     928.64 cm**-1
    25:    1044.83 cm**-1
    26:    1060.98 cm**-1
    27:    1130.99 cm**-1
    28:    1170.17 cm**-1
    29:    1180.01 cm**-1
    30:    1195.55 cm**-1
    31:    1227.03 cm**-1
    32:    1248.89 cm**-1
    33:    1284.01 cm**-1
    34:    1336.56 cm**-1
    35:    1406.37 cm**-1
    36:    1471.31 cm**-1
    37:    1483.04 cm**-1
    38:    1494.96 cm**-1
    39:    1502.78 cm**-1
    40:    1529.49 cm**-1
    41:    1631.39 cm**-1
    42:    1647.57 cm**-1
    43:    2985.41 cm**-1
    44:    3056.29 cm**-1
    45:    3124.01 cm**-1
    46:    3168.00 cm**-1
    47:    3179.60 cm**-1
    48:    3189.14 cm**-1
    49:    3197.90 cm**-1
    50:    3758.03 cm**-1

IR SPECTRUM
-----------

 Mode   freq       eps      Int      T**2         TX        TY        TZ
       cm**-1   L/(mol*cm) km/mol    a.u.
----------------------------------------------------------------------------
  6:     90.12   0.000714    3.61  0.002471  ( 0.000147 -0.000064  0.049713)
  7:    182.60   0.000167    0.84  0.000285  ( 0.000033 -0.000017  0.016874)
  8:    235.97   0.000215    1.08  0.000284  ( 0.016445  0.003654  0.000022)
  9:    257.97   0.000037    0.19  0.000044  ( 0.000006 -0.000029  0.006666)
 10:    313.25   0.000023    0.12  0.000023  ( 0.000002  0.000016 -0.004806)
 11:    351.76   0.000886    4.48  0.000786  ( 0.015212 -0.023542  0.000013)
 12:    434.81   0.019036   96.20  0.013662  ( 0.000003  0.000014 -0.116885)
 13:    456.21   0.000122    0.62  0.000084  (-0.000008 -0.000079  0.009138)
 14:    511.25   0.000257    1.30  0.000157  ( 0.011903  0.003876 -0.000019)
 15:    540.00   0.002067   10.45  0.001195  ( 0.002305 -0.034485  0.000008)
 16:    568.13   0.000134    0.68  0.000073  (-0.000038 -0.000010 -0.008567)
 17:    598.52   0.000662    3.35  0.000345  (-0.015728  0.009889  0.000004)
 18:    704.09   0.000016    0.08  0.000007  ( 0.000015 -0.000018 -0.002695)
 19:    740.42   0.014942   75.51  0.006297  ( 0.000020  0.000008  0.079356)
 20:    769.27   0.004908   24.80  0.001991  ( 0.034423 -0.028391  0.000015)
 21:    832.27   0.000005    0.02  0.000002  (-0.000003 -0.000003 -0.001328)
 22:    851.05   0.001365    6.90  0.000501  (-0.005602 -0.021660 -0.000005)
 23:    897.88   0.001014    5.13  0.000353  ( 0.000016 -0.000013  0.018777)
 24:    928.64   0.000050    0.25  0.000017  ( 0.000001  0.000002  0.004097)
 25:   1044.83   0.011033   55.76  0.003295  (-0.028721 -0.049703  0.000020)
 26:   1060.98   0.006954   35.14  0.002045  ( 0.044835  0.005926 -0.000013)
 27:   1130.99   0.006055   30.60  0.001671  ( 0.035247  0.020696 -0.000003)
 28:   1170.17   0.000095    0.48  0.000025  (-0.000013  0.000021 -0.005038)
 29:   1180.01   0.000845    4.27  0.000223  (-0.013810  0.005711 -0.000001)
 30:   1195.55   0.004292   21.69  0.001120  (-0.031811  0.010405  0.000007)
 31:   1227.03   0.012185   61.58  0.003099  (-0.046436  0.030703  0.000004)
 32:   1248.89   0.032729  165.40  0.008178  (-0.049806 -0.075481  0.000002)
 33:   1284.01   0.037580  189.91  0.009133  ( 0.074509 -0.059848  0.000001)
 34:   1336.56   0.001943    9.82  0.000454  (-0.008959 -0.019324 -0.000002)
 35:   1406.37   0.007393   37.36  0.001640  (-0.020906 -0.034689  0.000000)
 36:   1471.31   0.003088   15.61  0.000655  (-0.010396  0.023386 -0.000024)
 37:   1483.04   0.001755    8.87  0.000369  (-0.000034  0.000025  0.019220)
 38:   1494.96   0.002851   14.41  0.000595  ( 0.023554 -0.006354  0.000015)
 39:   1502.78   0.006891   34.82  0.001431  ( 0.036634 -0.009429  0.000004)
 40:   1529.49   0.031244  157.90  0.006375  (-0.063195  0.048798  0.000002)
 41:   1631.39   0.006567   33.19  0.001256  ( 0.002480  0.035356 -0.000003)
 42:   1647.57   0.002243   11.34  0.000425  (-0.020357  0.003237  0.000000)
 43:   2985.41   0.010362   52.36  0.001083  ( 0.026166  0.019961 -0.000005)
 44:   3056.29   0.006688   33.80  0.000683  ( 0.000010  0.000003  0.026131)
 45:   3124.01   0.003681   18.60  0.000368  ( 0.017330 -0.008209 -0.000000)
 46:   3168.00   0.000129    0.65  0.000013  (-0.003245 -0.001461 -0.000001)
 47:   3179.60   0.002446   12.36  0.000240  (-0.009168  0.012492 -0.000000)
 48:   3189.14   0.002581   13.04  0.000253  ( 0.015174  0.004723  0.000002)
 49:   3197.90   0.000965    4.87  0.000094  (-0.000822 -0.009667 -0.000001)
 50:   3758.03   0.017047   86.15  0.001416  (-0.036030  0.010837 -0.000001)

--------------------------
THERMOCHEMISTRY AT 298.15K
--------------------------

Temperature         ...   298.15 K
Pressure            ...     1.00 atm
Total Mass          ...   124.14 AMU
Quasi RRHO          ...     True
Cut-Off Frequency   ...     1.00 cm^-1

Throughout the following assumptions are being made:
  (1) The electronic state is orbitally nondegenerate
  (2) There are no thermally accessible electronically excited states
  (3) Hindered rotations indicated by low frequency modes are not
      treated as such but are treated as vibrations and this may
      cause some error
  (4) All equations used are the standard statistical mechanics
      equations for an ideal gas
  (5) All vibrations are strictly harmonic

freq.      90.12  E(vib)   ...       0.47
freq.     182.60  E(vib)   ...       0.37
freq.     235.97  E(vib)   ...       0.32
freq.     257.97  E(vib)   ...       0.30
freq.     313.25  E(vib)   ...       0.25
freq.     351.76  E(vib)   ...       0.23
freq.     434.81  E(vib)   ...       0.17
freq.     456.21  E(vib)   ...       0.16
freq.     511.25  E(vib)   ...       0.14
freq.     540.00  E(vib)   ...       0.12
freq.     568.13  E(vib)   ...       0.11
freq.     598.52  E(vib)   ...       0.10
freq.     704.09  E(vib)   ...       0.07
freq.     740.42  E(vib)   ...       0.06
freq.     769.27  E(vib)   ...       0.06
freq.     832.27  E(vib)   ...       0.04
freq.     851.05  E(vib)   ...       0.04
freq.     897.88  E(vib)   ...       0.03
freq.     928.64  E(vib)   ...       0.03
freq.    1044.83  E(vib)   ...       0.02
freq.    1060.98  E(vib)   ...       0.02
freq.    1130.99  E(vib)   ...       0.01
freq.    1170.17  E(vib)   ...       0.01
freq.    1180.01  E(vib)   ...       0.01
freq.    1195.55  E(vib)   ...       0.01
freq.    1227.03  E(vib)   ...       0.01
freq.    1248.89  E(vib)   ...       0.01
freq.    1284.01  E(vib)   ...       0.01
freq.    1336.56  E(vib)   ...       0.01
freq.    1406.37  E(vib)   ...       0.00
freq.    1471.31  E(vib)   ...       0.00
freq.    1483.04  E(vib)   ...       0.00
freq.    1494.96  E(vib)   ...       0.00
freq.    1502.78  E(vib)   ...       0.00
freq.    1529.49  E(vib)   ...       0.00
freq.    1631.39  E(vib)   ...       0.00
freq.    1647.57  E(vib)   ...       0.00
freq.    2985.41  E(vib)   ...       0.00
freq.    3056.29  E(vib)   ...       0.00
freq.    3124.01  E(vib)   ...       0.00
freq.    3168.00  E(vib)   ...       0.00
freq.    3179.60  E(vib)   ...       0.00
freq.    3189.14  E(vib)   ...       0.00
freq.    3197.90  E(vib)   ...       0.00
freq.    3758.03  E(vib)   ...       0.00

------------
INNER ENERGY
------------

The inner energy is: U= E(el) + E(ZPE) + E(vib) + E(rot) + E(trans)
    E(el)   - is the total energy from the electronic structure calculation
              = E(kin-el) + E(nuc-el) + E(el-el) + E(nuc-nuc)
    E(ZPE)  - the the zero temperature vibrational energy from the frequency calculation
    E(vib)  - the the finite temperature correction to E(ZPE) due to population
              of excited vibrational states
    E(rot)  - is the rotational thermal energy
    E(trans)- is the translational thermal energy

Summary of contributions to the inner energy U:
Electronic energy                ...   -421.93411888 Eh
Zero point energy                ...      0.13661836 Eh      85.73 kcal/mol
Thermal vibrational correction   ...      0.00513228 Eh       3.22 kcal/mol
Thermal rotational correction    ...      0.00141627 Eh       0.89 kcal/mol
Thermal translational correction ...      0.00141627 Eh       0.89 kcal/mol
-----------------------------------------------------------------------
Total thermal energy                   -421.78953570 Eh

Summary of corrections to the electronic energy:
(perhaps to be used in another calculation)
Total thermal correction                  0.00796482 Eh       5.00 kcal/mol
Non-thermal (ZPE) correction              0.13661836 Eh      85.73 kcal/mol
-----------------------------------------------------------------------
Total correction                          0.14458318 Eh      90.73 kcal/mol

--------
ENTHALPY
--------

The enthalpy is H = U + kB*T
                kB is Boltzmann's constant
Total thermal energy              ...   -421.78953570 Eh
Thermal Enthalpy correction       ...      0.00094421 Eh       0.59 kcal/mol
-----------------------------------------------------------------------
Total Enthalpy                    ...   -421.78859149 Eh

Note: Only C1 symmetry has been detected, increase convergence thresholds
      if your molecule has a higher symmetry. Symmetry factor of 1.0 is
      used for the rotational entropy correction.

Note: Rotational entropy computed according to Herzberg
Infrared and Raman Spectra, Chapter V,1, Van Nostrand Reinhold, 1945
Point Group:  C1, Symmetry Number:   1
Rotational constants in cm-1:     0.086874     0.052051     0.032754

Vibrational entropy computed according to the QRRHO of S. Grimme
Chem.Eur.J. 2012 18 9955 using a reference frequency of 100.0 cm-1

-------
ENTROPY
-------

The entropy contributions are T*S = T*(S(el)+S(vib)+S(rot)+S(trans))
     S(el)   - electronic entropy
     S(vib)  - vibrational entropy
     S(rot)  - rotational entropy
     S(trans)- translational entropy
The entropies will be listed as multiplied by the temperature to get
units of energy

Electronic entropy                ...      0.00000000 Eh      0.00 kcal/mol
Vibrational entropy               ...      0.00822674 Eh      5.16 kcal/mol
Rotational entropy                ...      0.01367349 Eh      8.58 kcal/mol
Translational entropy             ...      0.01917748 Eh     12.03 kcal/mol
-----------------------------------------------------------------------
Final entropy term                ...      0.04107772 Eh     25.78 kcal/mol

In case the symmetry of your molecule has not been determined correctly
or in case you have a reason to use a different symmetry number we print
out the resulting rotational entropy values for sn=1,12:

 non-linear molecules -----------------------------------
|  sn= 1 | S(rot)=       0.01367349 Eh      8.58 kcal/mol|
|  sn= 2 | S(rot)=       0.01301904 Eh      8.17 kcal/mol|
|  sn= 3 | S(rot)=       0.01263621 Eh      7.93 kcal/mol|
|  sn= 4 | S(rot)=       0.01236458 Eh      7.76 kcal/mol|
|  sn= 5 | S(rot)=       0.01215389 Eh      7.63 kcal/mol|
|  sn= 6 | S(rot)=       0.01198175 Eh      7.52 kcal/mol|
|  sn= 7 | S(rot)=       0.01183620 Eh      7.43 kcal/mol|
|  sn= 8 | S(rot)=       0.01171012 Eh      7.35 kcal/mol|
|  sn= 9 | S(rot)=       0.01159892 Eh      7.28 kcal/mol|
|  sn=10 | S(rot)=       0.01149944 Eh      7.22 kcal/mol|
|  sn=11 | S(rot)=       0.01140945 Eh      7.16 kcal/mol|
|  sn=12 | S(rot)=       0.01132729 Eh      7.11 kcal/mol|
 linear molecules ---------------------------------------
|  Dinfh | S(rot)=       0.00855370 Eh      5.37 kcal/mol|
|  Cinfv | S(rot)=       0.00920816 Eh      5.78 kcal/mol|

                             ****ORCA TERMINATED NORMALLY****
TOTAL RUN TIME: 0 days 0 hours 13 minutes 59 seconds 353 msec
