                         Program Version 6.0.1  -  RELEASE   -
|  1> ! pbe def2-sv(p) def2/J RI DEFGRID1 loosescf d4 GCP(DFT/SV(P)) printgap
|  2> %output
|  3>     printlevel normal
|  4> end
|  5> * xyz 0 1
|  6> C -2.5462431414 0.9933693736 0.0057471687
|  7> C -1.2382842789 0.2610391019 -0.0057299792
|  8> C -1.1898763124 -1.1254624988 -0.0028842394
|  9> C 0.0283734364 -1.784541233 0.0009094041
| 10> C 1.2123955253 -1.0751495904 0.0020995517
| 11> C 1.1756412818 0.3156986556 -0.0001263574
| 12> C -0.0460127111 0.9736804073 -0.004004181
| 13> O 2.3580160333 0.9923407832 0.0006151606
| 14> H -2.5400762267 1.805609861 -0.7188990892
| 15> H -3.3688680176 0.3220965764 -0.2264150299
| 16> H -2.724739287 1.4258649125 0.9905151119
| 17> H -2.1088033983 -1.6927893988 -0.0050644905
| 18> H 0.0546076968 -2.8641170931 0.0017073545
| 19> H 2.1693626916 -1.5714602029 0.0038719404
| 20> H -0.0699915747 2.0568229405 -0.0064180411
| 21> H 2.1889414417 1.9421090283 -0.0015308504
| 22> *
| 23>
| 24>                          ****END OF INPUT****

CARTESIAN COORDINATES (ANGSTROEM)
---------------------------------
  C     -2.546243    0.993369    0.005747
  C     -1.238284    0.261039   -0.005730
  C     -1.189876   -1.125462   -0.002884
  C      0.028373   -1.784541    0.000909
  C      1.212396   -1.075150    0.002100
  C      1.175641    0.315699   -0.000126
  C     -0.046013    0.973680   -0.004004
  O      2.358016    0.992341    0.000615
  H     -2.540076    1.805610   -0.718899
  H     -3.368868    0.322097   -0.226415
  H     -2.724739    1.425865    0.990515
  H     -2.108803   -1.692789   -0.005064
  H      0.054608   -2.864117    0.001707
  H      2.169363   -1.571460    0.003872
  H     -0.069992    2.056823   -0.006418
  H      2.188941    1.942109   -0.001531

 Total Charge           Charge          ....    0
 Multiplicity           Mult            ....    1
 Number of Electrons    NEL             ....   58
 Basis Dimension        Dim             ....  128

ORBITAL ENERGIES
----------------

  NO   OCC          E(Eh)            E(eV)
   0   2.0000     -18.778449      -510.9876
   1   2.0000      -9.948305      -270.7072
   2   2.0000      -9.901881      -269.4439
   3   2.0000      -9.889088      -269.0958
   4   2.0000      -9.885928      -269.0098
   5   2.0000      -9.884144      -268.9612
   6   2.0000      -9.881029      -268.8765
   7   2.0000      -9.880197      -268.8538
   8   2.0000      -0.961027       -26.1509
   9   2.0000      -0.772051       -21.0086
  10   2.0000      -0.694386       -18.8952
  11   2.0000      -0.660328       -17.9684
  12   2.0000      -0.617141       -16.7933
  13   2.0000      -0.559160       -15.2155
  14   2.0000      -0.521635       -14.1944
  15   2.0000      -0.485567       -13.2129
  16   2.0000      -0.445015       -12.1095
  17   2.0000      -0.416922       -11.3450
  18   2.0000      -0.382178       -10.3996
  19   2.0000      -0.380556       -10.3554
  20   2.0000      -0.362578        -9.8662
  21   2.0000      -0.353628        -9.6227
  22   2.0000      -0.352792        -9.6000
  23   2.0000      -0.329017        -8.9530
  24   2.0000      -0.307645        -8.3714
  25   2.0000      -0.290568        -7.9068
  26   2.0000      -0.286805        -7.8044
  27   2.0000      -0.219288        -5.9671
  28   2.0000      -0.192091        -5.2271
  29   0.0000      -0.031782        -0.8648
  30   0.0000      -0.013429        -0.3654
  31   0.0000       0.025484         0.6934
  32   0.0000       0.048458         1.3186
  33   0.0000       0.065986         1.7956

MULLIKEN ATOMIC CHARGES
-----------------------
   0 C :   -0.228092
   1 C :    0.048196
   2 C :   -0.115908
   3 C :   -0.047515
   4 C :   -0.126074
   5 C :    0.253502
   6 C :   -0.229784
   7 O :   -0.335691
   8 H :    0.109190
   9 H :    0.103672
  10 H :    0.118169
  11 H :    0.031259
  12 H :    0.051343
  13 H :    0.043098
  14 H :    0.010312
  15 H :    0.314324
Sum of atomic charges:    0.0000000

LOEWDIN ATOMIC CHARGES
----------------------
   0 C :   -0.321885
   1 C :   -0.040210
   2 C :   -0.152205
   3 C :   -0.112038
   4 C :   -0.155074
   5 C :    0.025404
   6 C :   -0.178670
   7 O :   -0.237098
   8 H :    0.128221
   9 H :    0.125250
  10 H :    0.133372
  11 H :    0.119364
  12 H :    0.124156
  13 H :    0.129498
  14 H :    0.115877
  15 H :    0.296040

  Mayer bond orders larger than 0.100000
B(  0-C ,  1-C ) :   1.0918 B(  0-C ,  8-H ) :   0.9399 B(  0-C ,  9-H ) :   0.9453
B(  0-C , 10-H ) :   0.9340 B(  1-C ,  2-C ) :   1.4094 B(  1-C ,  6-C ) :   1.3670
B(  2-C ,  3-C ) :   1.3457 B(  2-C , 11-H ) :   0.9619 B(  3-C ,  4-C ) :   1.3784
B(  3-C , 12-H ) :   0.9631 B(  4-C ,  5-C ) :   1.3596 B(  4-C , 13-H ) :   0.9660
B(  5-C ,  6-C ) :   1.3073 B(  5-C ,  7-O ) :   1.1802 B(  6-C , 14-H ) :   0.9535
B(  7-O , 15-H ) :   0.8447

Dispersion correction           -0.015389314
FINAL SINGLE POINT ENERGY      -346.022819667142

DIPOLE MOMENT
-------------

Method             : SCF
Type of density    : Electron Density
Multiplicity       :   1
Irrep              :   0
Energy             :  -346.0725297153262545 Eh
Relativity type    :
Basis              : AO
                                X                 Y                 Z
Electronic contribution:      5.675021415      -0.764770668      -0.020367756
Nuclear contribution   :     -5.968939032       1.350785117       0.035440873
                        -----------------------------------------
Total Dipole Moment    :     -0.293917617       0.586014449       0.015073116
                        -----------------------------------------
Magnitude (a.u.)       :      0.655764972
Magnitude (Debye)      :      1.666822095

Rotational constants in cm-1:             0.122995             0.060724             0.040962
Rotational constants in MHz :          3687.308149          1820.454375          1228.004435

                             ****ORCA TERMINATED NORMALLY****
TOTAL RUN TIME: 0 days 0 hours 0 minutes 17 seconds 634 msec
