                         Program Version 6.0.0  -   RELEASE  -
|  1> ! r2SCAN-3c DEF2-TZVP FREQ
|  2> * xyzfile 0 1 censo.xyz
|  3>
|  4>                          ****END OF INPUT****

CARTESIAN COORDINATES (ANGSTROEM)
---------------------------------
  C     -2.938362   -0.371804   -0.000036
  C     -2.696890    1.019555   -0.000021
  C     -1.410878    1.507876   -0.000001
  C     -0.301286    0.625488   -0.000003
  C      1.032523    1.098318   -0.000015
  C      2.078758    0.203842   -0.000038
  C      1.847322   -1.190458   -0.000015
  C      0.561516   -1.667658    0.000002
  C     -0.547696   -0.785550   -0.000004
  C     -1.882971   -1.254249   -0.000023
  O      3.397660    0.597567   -0.000080
  H     -3.958973   -0.740781   -0.000063
  H     -3.536226    1.708187   -0.000025
  H     -1.227638    2.578652    0.000010
  H      1.224100    2.168290   -0.000020
  H      2.697544   -1.864741   -0.000018
  H      0.380041   -2.738604    0.000016
  H     -2.057936   -2.326628   -0.000034
  H      3.438325    1.564789   -0.000172

 Total Charge           Charge          ....    0
 Multiplicity           Mult            ....    1
 Number of Electrons    NEL             ....   76
 Basis Dimension        Dim             ....  389

ORBITAL ENERGIES
----------------

  NO   OCC          E(Eh)            E(eV)
   0   2.0000     -18.990768      -516.7651
   1   2.0000     -10.101919      -274.8872
   2   2.0000     -10.051812      -273.5237
   3   2.0000     -10.045488      -273.3516
   4   2.0000     -10.043891      -273.3082
   5   2.0000     -10.039109      -273.1781
   6   2.0000     -10.038432      -273.1596
   7   2.0000     -10.038248      -273.1546
   8   2.0000     -10.038183      -273.1529
   9   2.0000     -10.037422      -273.1321
  10   2.0000     -10.035091      -273.0687
  11   2.0000      -1.028120       -27.9766
  12   2.0000      -0.841434       -22.8966
  13   2.0000      -0.787326       -21.4242
  14   2.0000      -0.743437       -20.2299
  15   2.0000      -0.709148       -19.2969
  16   2.0000      -0.687473       -18.7071
  17   2.0000      -0.610422       -16.6104
  18   2.0000      -0.581391       -15.8204
  19   2.0000      -0.569451       -15.4956
  20   2.0000      -0.517427       -14.0799
  21   2.0000      -0.486720       -13.2443
  22   2.0000      -0.479391       -13.0449
  23   2.0000      -0.428240       -11.6530
  24   2.0000      -0.418938       -11.3999
  25   2.0000      -0.415664       -11.3108
  26   2.0000      -0.390530       -10.6269
  27   2.0000      -0.388447       -10.5702
  28   2.0000      -0.381861       -10.3910
  29   2.0000      -0.356913        -9.7121
  30   2.0000      -0.350337        -9.5331
  31   2.0000      -0.344357        -9.3704
  32   2.0000      -0.314086        -8.5467
  33   2.0000      -0.303782        -8.2663
  34   2.0000      -0.289790        -7.8856
  35   2.0000      -0.266864        -7.2617
  36   2.0000      -0.221078        -6.0158
  37   2.0000      -0.196861        -5.3569
  38   0.0000      -0.067320        -1.8319
  39   0.0000      -0.033107        -0.9009
  40   0.0000      -0.007340        -0.1997
  41   0.0000       0.033042         0.8991
  42   0.0000       0.058865         1.6018

MULLIKEN ATOMIC CHARGES
-----------------------
   0 C :   -0.111506
   1 C :   -0.087989
   2 C :   -0.219769
   3 C :    0.168019
   4 C :   -0.292888
   5 C :    0.320768
   6 C :   -0.195834
   7 C :   -0.170957
   8 C :    0.155998
   9 C :   -0.195877
  10 O :   -0.397562
  11 H :    0.108151
  12 H :    0.108447
  13 H :    0.093332
  14 H :    0.088399
  15 H :    0.114245
  16 H :    0.102151
  17 H :    0.098812
  18 H :    0.314061
Sum of atomic charges:    0.0000000

LOEWDIN ATOMIC CHARGES
----------------------
   0 C :   -0.148825
   1 C :   -0.141350
   2 C :   -0.108065
   3 C :   -0.093781
   4 C :   -0.114198
   5 C :   -0.265240
   6 C :   -0.114720
   7 C :   -0.094288
   8 C :   -0.099921
   9 C :   -0.102853
  10 O :    0.075651
  11 H :    0.142394
  12 H :    0.143105
  13 H :    0.144573
  14 H :    0.143828
  15 H :    0.150583
  16 H :    0.148450
  17 H :    0.146174
  18 H :    0.188482

  Mayer bond orders larger than 0.100000
B(  0-C ,  1-C ) :   1.2590 B(  0-C ,  9-C ) :   1.5176 B(  0-C , 11-H ) :   0.9713
B(  1-C ,  2-C ) :   1.5225 B(  1-C , 12-H ) :   0.9694 B(  2-C ,  3-C ) :   1.1788
B(  2-C , 13-H ) :   0.9876 B(  3-C ,  4-C ) :   1.2203 B(  3-C ,  8-C ) :   1.2028
B(  4-C ,  5-C ) :   1.4297 B(  4-C , 14-H ) :   0.9494 B(  5-C ,  6-C ) :   1.2447
B(  5-C , 10-O ) :   1.1111 B(  6-C ,  7-C ) :   1.5353 B(  6-C , 15-H ) :   0.9786
B(  7-C ,  8-C ) :   1.1790 B(  7-C , 16-H ) :   0.9859 B(  8-C ,  9-C ) :   1.1970
B(  9-C , 17-H ) :   0.9839 B( 10-O , 18-H ) :   0.8852

Dispersion correction           -0.007389874
FINAL SINGLE POINT ENERGY      -461.041884225521

DIPOLE MOMENT
-------------

Method             : SCF
Type of density    : Electron Density
Multiplicity       :   1
Irrep              :   0
Energy             :  -461.0392606566269933 Eh
Relativity type    :
Basis              : AO
                                X                 Y                 Z
Electronic contribution:      2.772640863       0.075620891       0.000048464
Nuclear contribution   :     -2.810434224       0.329749698      -0.000109085
                        -----------------------------------------
Total Dipole Moment    :     -0.037793361       0.405370589      -0.000060620
                        -----------------------------------------
Magnitude (a.u.)       :      0.407128551
Magnitude (Debye)      :      1.034838535

VIBRATIONAL FREQUENCIES
-----------------------

Scaling factor for frequencies =  1.000000000  (already applied!)

     0:       0.00 cm**-1
     1:       0.00 cm**-1
     2:       0.00 cm**-1
     3:       0.00 cm**-1
     4:       0.00 cm**-1
     5:       0.00 cm**-1
     6:     130.54 cm**-1
     7:     184.59 cm**-1
     8:     298.85 cm**-1
     9:     304.76 cm**-1
    10:     410.40 cm**-1
    11:     434.25 cm**-1
    12:     446.16 cm**-1
    13:     474.40 cm**-1
    14:     476.01 cm**-1
    15:     533.31 cm**-1
    16:     544.20 cm**-1
    17:     639.29 cm**-1
    18:     652.64 cm**-1
    19:     729.92 cm**-1
    20:     747.39 cm**-1
    21:     770.41 cm**-1
    22:     780.63 cm**-1
    23:     812.30 cm**-1
    24:     835.59 cm**-1
    25:     871.48 cm**-1
    26:     920.77 cm**-1
    27:     934.96 cm**-1
    28:     952.85 cm**-1
    29:     961.70 cm**-1
    30:     978.55 cm**-1
    31:    1040.92 cm**-1
    32:    1140.75 cm**-1
    33:    1162.38 cm**-1
    34:    1171.50 cm**-1
    35:    1190.35 cm**-1
    36:    1200.06 cm**-1
    37:    1249.43 cm**-1
    38:    1290.17 cm**-1
    39:    1303.00 cm**-1
    40:    1388.94 cm**-1
    41:    1404.96 cm**-1
    42:    1410.61 cm**-1
    43:    1483.68 cm**-1
    44:    1495.30 cm**-1
    45:    1552.96 cm**-1
    46:    1612.30 cm**-1
    47:    1632.89 cm**-1
    48:    1655.25 cm**-1
    49:    3148.95 cm**-1
    50:    3150.73 cm**-1
    51:    3154.53 cm**-1
    52:    3159.99 cm**-1
    53:    3167.22 cm**-1
    54:    3180.15 cm**-1
    55:    3183.23 cm**-1
    56:    3749.55 cm**-1

IR SPECTRUM
-----------

 Mode   freq       eps      Int      T**2         TX        TY        TZ
       cm**-1   L/(mol*cm) km/mol    a.u.
----------------------------------------------------------------------------
  6:    130.54   0.000140    0.71  0.000334  (-0.000026  0.000014  0.018278)
  7:    184.59   0.000048    0.24  0.000081  (-0.000006  0.000010  0.008999)
  8:    298.85   0.000423    2.14  0.000441  ( 0.020781 -0.003084  0.000003)
  9:    304.76   0.000000    0.00  0.000000  (-0.000014  0.000006  0.000085)
 10:    410.40   0.000007    0.04  0.000005  ( 0.000000 -0.000008  0.002334)
 11:    434.25   0.000382    1.93  0.000274  ( 0.004075  0.016053  0.000005)
 12:    446.16   0.016867   85.24  0.011797  (-0.000002  0.000016  0.108615)
 13:    474.40   0.002777   14.03  0.001827  ( 0.038884  0.017743 -0.000042)
 14:    476.01   0.006857   34.65  0.004495  (-0.000005 -0.000014 -0.067046)
 15:    533.31   0.000652    3.30  0.000382  ( 0.019357  0.002626 -0.000001)
 16:    544.20   0.000106    0.54  0.000061  (-0.000003 -0.000008  0.007792)
 17:    639.29   0.000906    4.58  0.000442  (-0.020145  0.006043 -0.000000)
 18:    652.64   0.000141    0.71  0.000067  ( 0.000007  0.000002  0.008206)
 19:    729.92   0.002414   12.20  0.001032  ( 0.031961  0.003221 -0.000005)
 20:    747.39   0.005488   27.73  0.002291  (-0.000010 -0.000000 -0.047868)
 21:    770.41   0.000409    2.06  0.000165  (-0.000004 -0.000008 -0.012865)
 22:    780.63   0.000024    0.12  0.000009  (-0.000741 -0.002992  0.000001)
 23:    812.30   0.000007    0.04  0.000003  (-0.000001  0.000002  0.001688)
 24:    835.59   0.014891   75.25  0.005561  ( 0.000001  0.000002 -0.074574)
 25:    871.48   0.000009    0.05  0.000003  ( 0.000000  0.000002 -0.001795)
 26:    920.77   0.001067    5.39  0.000362  (-0.018994 -0.000895  0.000001)
 27:    934.96   0.000289    1.46  0.000096  (-0.000000  0.000002  0.009823)
 28:    952.85   0.000066    0.34  0.000022  ( 0.000000 -0.000001 -0.004661)
 29:    961.70   0.000002    0.01  0.000001  (-0.000003  0.000001  0.000870)
 30:    978.55   0.001097    5.54  0.000350  ( 0.018665  0.001172 -0.000001)
 31:   1040.92   0.000884    4.47  0.000265  ( 0.016274  0.000322  0.000000)
 32:   1140.75   0.006474   32.72  0.001771  ( 0.041841 -0.004521 -0.000002)
 33:   1162.38   0.000220    1.11  0.000059  ( 0.003600 -0.006785  0.000001)
 34:   1171.50   0.004506   22.77  0.001200  ( 0.034595  0.001882 -0.000001)
 35:   1190.35   0.026726  135.06  0.007007  ( 0.076365  0.034277 -0.000003)
 36:   1200.06   0.024121  121.90  0.006272  (-0.076202 -0.021579  0.000002)
 37:   1249.43   0.000884    4.47  0.000221  ( 0.014564 -0.002928 -0.000001)
 38:   1290.17   0.001711    8.65  0.000414  ( 0.017650 -0.010114 -0.000001)
 39:   1303.00   0.001402    7.09  0.000336  ( 0.018193  0.002192 -0.000001)
 40:   1388.94   0.000396    2.00  0.000089  (-0.006381 -0.006947  0.000000)
 41:   1404.96   0.001052    5.32  0.000234  (-0.011877 -0.009622  0.000000)
 42:   1410.61   0.009568   48.35  0.002117  (-0.043411 -0.015239  0.000001)
 43:   1483.68   0.002546   12.87  0.000536  (-0.023120  0.001008  0.000001)
 44:   1495.30   0.004418   22.33  0.000922  (-0.029444 -0.007424  0.000001)
 45:   1552.96   0.004834   24.43  0.000971  (-0.030919 -0.003914  0.000000)
 46:   1612.30   0.000817    4.13  0.000158  (-0.003743 -0.012009  0.000000)
 47:   1632.89   0.008121   41.04  0.001552  ( 0.037827  0.011009 -0.000001)
 48:   1655.25   0.018980   95.92  0.003578  ( 0.059708  0.003635 -0.000002)
 49:   3148.95   0.002544   12.86  0.000252  ( 0.010966  0.011484 -0.000000)
 50:   3150.73   0.001540    7.78  0.000153  ( 0.005492  0.011061  0.000000)
 51:   3154.53   0.000248    1.25  0.000024  (-0.004590 -0.001850 -0.000000)
 52:   3159.99   0.001075    5.43  0.000106  (-0.000549 -0.010287  0.000000)
 53:   3167.22   0.005492   27.75  0.000541  ( 0.001951  0.023180  0.000000)
 54:   3180.15   0.004031   20.37  0.000396  ( 0.019759 -0.002256  0.000000)
 55:   3183.23   0.001004    5.07  0.000098  ( 0.005208 -0.008442  0.000000)
 56:   3749.55   0.011598   58.61  0.000965  ( 0.022012  0.021926 -0.000003)

--------------------------
THERMOCHEMISTRY AT 298.15K
--------------------------

Temperature         ...   298.15 K
Pressure            ...     1.00 atm
Total Mass          ...   144.17 AMU
Quasi RRHO          ...     True
Cut-Off Frequency   ...     1.00 cm^-1

Throughout the following assumptions are being made:
  (1) The electronic state is orbitally nondegenerate
  (2) There are no thermally accessible electronically excited states
  (3) Hindered rotations indicated by low frequency modes are not
      treated as such but are treated as vibrations and this may
      cause some error
  (4) All equations used are the standard statistical mechanics
      equations for an ideal gas
  (5) All vibrations are strictly harmonic

freq.     130.54  E(vib)   ...       0.43
freq.     184.59  E(vib)   ...       0.37
freq.     298.85  E(vib)   ...       0.26
freq.     304.76  E(vib)   ...       0.26
freq.     410.40  E(vib)   ...       0.19
freq.     434.25  E(vib)   ...       0.17
freq.     446.16  E(vib)   ...       0.17
freq.     474.40  E(vib)   ...       0.15
freq.     476.01  E(vib)   ...       0.15
freq.     533.31  E(vib)   ...       0.13
freq.     544.20  E(vib)   ...       0.12
freq.     639.29  E(vib)   ...       0.09
freq.     652.64  E(vib)   ...       0.08
freq.     729.92  E(vib)   ...       0.06
freq.     747.39  E(vib)   ...       0.06
freq.     770.41  E(vib)   ...       0.05
freq.     780.63  E(vib)   ...       0.05
freq.     812.30  E(vib)   ...       0.05
freq.     835.59  E(vib)   ...       0.04
freq.     871.48  E(vib)   ...       0.04
freq.     920.77  E(vib)   ...       0.03
freq.     934.96  E(vib)   ...       0.03
freq.     952.85  E(vib)   ...       0.03
freq.     961.70  E(vib)   ...       0.03
freq.     978.55  E(vib)   ...       0.03
freq.    1040.92  E(vib)   ...       0.02
freq.    1140.75  E(vib)   ...       0.01
freq.    1162.38  E(vib)   ...       0.01
freq.    1171.50  E(vib)   ...       0.01
freq.    1190.35  E(vib)   ...       0.01
freq.    1200.06  E(vib)   ...       0.01
freq.    1249.43  E(vib)   ...       0.01
freq.    1290.17  E(vib)   ...       0.01
freq.    1303.00  E(vib)   ...       0.01
freq.    1388.94  E(vib)   ...       0.00
freq.    1404.96  E(vib)   ...       0.00
freq.    1410.61  E(vib)   ...       0.00
freq.    1483.68  E(vib)   ...       0.00
freq.    1495.30  E(vib)   ...       0.00
freq.    1552.96  E(vib)   ...       0.00
freq.    1612.30  E(vib)   ...       0.00
freq.    1632.89  E(vib)   ...       0.00
freq.    1655.25  E(vib)   ...       0.00
freq.    3148.95  E(vib)   ...       0.00
freq.    3150.73  E(vib)   ...       0.00
freq.    3154.53  E(vib)   ...       0.00
freq.    3159.99  E(vib)   ...       0.00
freq.    3167.22  E(vib)   ...       0.00
freq.    3180.15  E(vib)   ...       0.00
freq.    3183.23  E(vib)   ...       0.00
freq.    3749.55  E(vib)   ...       0.00

------------
INNER ENERGY
------------

The inner energy is: U= E(el) + E(ZPE) + E(vib) + E(rot) + E(trans)
    E(el)   - is the total energy from the electronic structure calculation
              = E(kin-el) + E(nuc-el) + E(el-el) + E(nuc-nuc)
    E(ZPE)  - the the zero temperature vibrational energy from the frequency calculation
    E(vib)  - the the finite temperature correction to E(ZPE) due to population
              of excited vibrational states
    E(rot)  - is the rotational thermal energy
    E(trans)- is the translational thermal energy

Summary of contributions to the inner energy U:
Electronic energy                ...   -461.04188423 Eh
Zero point energy                ...      0.15059993 Eh      94.50 kcal/mol
Thermal vibrational correction   ...      0.00509827 Eh       3.20 kcal/mol
Thermal rotational correction    ...      0.00141627 Eh       0.89 kcal/mol
Thermal translational correction ...      0.00141627 Eh       0.89 kcal/mol
-----------------------------------------------------------------------
Total thermal energy                   -460.88335348 Eh

Summary of corrections to the electronic energy:
(perhaps to be used in another calculation)
Total thermal correction                  0.00793082 Eh       4.98 kcal/mol
Non-thermal (ZPE) correction              0.15059993 Eh      94.50 kcal/mol
-----------------------------------------------------------------------
Total correction                          0.15853075 Eh      99.48 kcal/mol

--------
ENTHALPY
--------

The enthalpy is H = U + kB*T
                kB is Boltzmann's constant
Total thermal energy              ...   -460.88335348 Eh
Thermal Enthalpy correction       ...      0.00094421 Eh       0.59 kcal/mol
-----------------------------------------------------------------------
Total Enthalpy                    ...   -460.88240927 Eh

Note: Only C1 symmetry has been detected, increase convergence thresholds
      if your molecule has a higher symmetry. Symmetry factor of 1.0 is
      used for the rotational entropy correction.

Note: Rotational entropy computed according to Herzberg
Infrared and Raman Spectra, Chapter V,1, Van Nostrand Reinhold, 1945
Point Group:  C1, Symmetry Number:   1
Rotational constants in cm-1:     0.094966     0.027567     0.021365

Vibrational entropy computed according to the QRRHO of S. Grimme
Chem.Eur.J. 2012 18 9955 using a reference frequency of 100.0 cm-1

-------
ENTROPY
-------

The entropy contributions are T*S = T*(S(el)+S(vib)+S(rot)+S(trans))
     S(el)   - electronic entropy
     S(vib)  - vibrational entropy
     S(rot)  - rotational entropy
     S(trans)- translational entropy
The entropies will be listed as multiplied by the temperature to get
units of energy

Electronic entropy                ...      0.00000000 Eh      0.00 kcal/mol
Vibrational entropy               ...      0.00782811 Eh      4.91 kcal/mol
Rotational entropy                ...      0.01413324 Eh      8.87 kcal/mol
Translational entropy             ...      0.01938938 Eh     12.17 kcal/mol
-----------------------------------------------------------------------
Final entropy term                ...      0.04135072 Eh     25.95 kcal/mol

In case the symmetry of your molecule has not been determined correctly
or in case you have a reason to use a different symmetry number we print
out the resulting rotational entropy values for sn=1,12:

 non-linear molecules -----------------------------------
|  sn= 1 | S(rot)=       0.01413324 Eh      8.87 kcal/mol|
|  sn= 2 | S(rot)=       0.01347878 Eh      8.46 kcal/mol|
|  sn= 3 | S(rot)=       0.01309595 Eh      8.22 kcal/mol|
|  sn= 4 | S(rot)=       0.01282433 Eh      8.05 kcal/mol|
|  sn= 5 | S(rot)=       0.01261364 Eh      7.92 kcal/mol|
|  sn= 6 | S(rot)=       0.01244149 Eh      7.81 kcal/mol|
|  sn= 7 | S(rot)=       0.01229595 Eh      7.72 kcal/mol|
|  sn= 8 | S(rot)=       0.01216987 Eh      7.64 kcal/mol|
|  sn= 9 | S(rot)=       0.01205866 Eh      7.57 kcal/mol|

                             ****ORCA TERMINATED NORMALLY****
TOTAL RUN TIME: 0 days 0 hours 22 minutes 4 seconds 145 msec
