                         Program Version 6.0.0  -   RELEASE  -
|  1> ! r2SCAN-3c DEF2-TZVP FREQ
|  2> * xyzfile 0 1 vacuum_censo.xyz
|  3>
|  4>                          ****END OF INPUT****

CARTESIAN COORDINATES (ANGSTROEM)
---------------------------------
  C     -2.937998   -0.371655   -0.000005
  C     -2.697389    1.018242   -0.000003
  C     -1.412401    1.505480   -0.000000
  C     -0.303249    0.625496    0.000000
  C      1.031012    1.095128    0.000000
  C      2.081399    0.205596   -0.000000
  C      1.847519   -1.188075    0.000002
  C      0.562441   -1.663023    0.000003
  C     -0.548112   -0.783848    0.000001
  C     -1.882219   -1.251663   -0.000003
  O      3.393674    0.590049   -0.000003
  H     -3.957950   -0.741710   -0.000009
  H     -3.536614    1.706652   -0.000004
  H     -1.231425    2.576703    0.000001
  H      1.214487    2.167592   -0.000000
  H      2.701332   -1.856960    0.000004
  H      0.382131   -2.734355    0.000005
  H     -2.058479   -2.323884   -0.000004
  H      3.439276    1.553092   -0.000009

 Total Charge           Charge          ....    0
 Multiplicity           Mult            ....    1
 Number of Electrons    NEL             ....   76
 Basis Dimension        Dim             ....  389

ORBITAL ENERGIES
----------------

  NO   OCC          E(Eh)            E(eV)
   0   2.0000     -18.991759      -516.7920
   1   2.0000     -10.101424      -274.8737
   2   2.0000     -10.050954      -273.5004
   3   2.0000     -10.044631      -273.3283
   4   2.0000     -10.043209      -273.2896
   5   2.0000     -10.038209      -273.1536
   6   2.0000     -10.037754      -273.1412
   7   2.0000     -10.037581      -273.1365
   8   2.0000     -10.037530      -273.1351
   9   2.0000     -10.036755      -273.1140
  10   2.0000     -10.034377      -273.0493
  11   2.0000      -1.032784       -28.1035
  12   2.0000      -0.841697       -22.9037
  13   2.0000      -0.787574       -21.4310
  14   2.0000      -0.743128       -20.2215
  15   2.0000      -0.709560       -19.3081
  16   2.0000      -0.687270       -18.7016
  17   2.0000      -0.611559       -16.6414
  18   2.0000      -0.581604       -15.8262
  19   2.0000      -0.569230       -15.4895
  20   2.0000      -0.519162       -14.1271
  21   2.0000      -0.486541       -13.2394
  22   2.0000      -0.479753       -13.0547
  23   2.0000      -0.427902       -11.6438
  24   2.0000      -0.419000       -11.4016
  25   2.0000      -0.415477       -11.3057
  26   2.0000      -0.389933       -10.6106
  27   2.0000      -0.389923       -10.6103
  28   2.0000      -0.382095       -10.3973
  29   2.0000      -0.357876        -9.7383
  30   2.0000      -0.351465        -9.5639
  31   2.0000      -0.343537        -9.3481
  32   2.0000      -0.314315        -8.5529
  33   2.0000      -0.302987        -8.2447
  34   2.0000      -0.290035        -7.8923
  35   2.0000      -0.266677        -7.2567
  36   2.0000      -0.220925        -6.0117
  37   2.0000      -0.196505        -5.3472
  38   0.0000      -0.066804        -1.8178
  39   0.0000      -0.032539        -0.8854
  40   0.0000      -0.006471        -0.1761
  41   0.0000       0.033769         0.9189
  42   0.0000       0.059189         1.6106

MULLIKEN ATOMIC CHARGES
-----------------------
   0 C :   -0.111752
   1 C :   -0.087655
   2 C :   -0.219730
   3 C :    0.167586
   4 C :   -0.293410
   5 C :    0.319747
   6 C :   -0.191344
   7 C :   -0.173659
   8 C :    0.157203
   9 C :   -0.195637
  10 O :   -0.395179
  11 H :    0.107925
  12 H :    0.108229
  13 H :    0.092680
  14 H :    0.087692
  15 H :    0.113726
  16 H :    0.101317
  17 H :    0.098264
  18 H :    0.313997
Sum of atomic charges:   -0.0000000

LOEWDIN ATOMIC CHARGES
----------------------
   0 C :   -0.149124
   1 C :   -0.141537
   2 C :   -0.108260
   3 C :   -0.094918
   4 C :   -0.114463
   5 C :   -0.272665
   6 C :   -0.114670
   7 C :   -0.094396
   8 C :   -0.100605
   9 C :   -0.102837
  10 O :    0.086541
  11 H :    0.142458
  12 H :    0.143188
  13 H :    0.144699
  14 H :    0.143972
  15 H :    0.150378
  16 H :    0.148580
  17 H :    0.146267
  18 H :    0.187392

  Mayer bond orders larger than 0.100000
B(  0-C ,  1-C ) :   1.2597 B(  0-C ,  9-C ) :   1.5179 B(  0-C , 11-H ) :   0.9714
B(  1-C ,  2-C ) :   1.5230 B(  1-C , 12-H ) :   0.9695 B(  2-C ,  3-C ) :   1.1791
B(  2-C , 13-H ) :   0.9876 B(  3-C ,  4-C ) :   1.2219 B(  3-C ,  8-C ) :   1.2033
B(  4-C ,  5-C ) :   1.4281 B(  4-C , 14-H ) :   0.9484 B(  5-C ,  6-C ) :   1.2417
B(  5-C , 10-O ) :   1.1180 B(  6-C ,  7-C ) :   1.5388 B(  6-C , 15-H ) :   0.9787
B(  7-C ,  8-C ) :   1.1767 B(  7-C , 16-H ) :   0.9867 B(  8-C ,  9-C ) :   1.1973
B(  9-C , 17-H ) :   0.9840 B( 10-O , 18-H ) :   0.8854

Dispersion correction           -0.007394765
FINAL SINGLE POINT ENERGY      -461.042083503182

DIPOLE MOMENT
-------------

Method             : SCF
Type of density    : Electron Density
Multiplicity       :   1
Irrep              :   0
Energy             :  -461.0394576555605681 Eh
Relativity type    :
Basis              : AO
                                X                 Y                 Z
Electronic contribution:      2.800605467       0.081322015       0.000004676
Nuclear contribution   :     -2.812256984       0.330152867      -0.000008532
                        -----------------------------------------
Total Dipole Moment    :     -0.011651518       0.411474883      -0.000003857
                        -----------------------------------------
Magnitude (a.u.)       :      0.411639814
Magnitude (Debye)      :      1.046305257

VIBRATIONAL FREQUENCIES
-----------------------

Scaling factor for frequencies =  1.000000000  (already applied!)

     0:       0.00 cm**-1
     1:       0.00 cm**-1
     2:       0.00 cm**-1
     3:       0.00 cm**-1
     4:       0.00 cm**-1
     5:       0.00 cm**-1
     6:     124.78 cm**-1
     7:     180.66 cm**-1
     8:     295.01 cm**-1
     9:     300.52 cm**-1
    10:     389.52 cm**-1
    11:     408.57 cm**-1
    12:     432.91 cm**-1
    13:     472.49 cm**-1
    14:     472.88 cm**-1
    15:     534.15 cm**-1
    16:     542.53 cm**-1
    17:     639.65 cm**-1
    18:     651.59 cm**-1
    19:     734.19 cm**-1
    20:     747.25 cm**-1
    21:     770.43 cm**-1
    22:     783.29 cm**-1
    23:     813.96 cm**-1
    24:     837.55 cm**-1
    25:     872.07 cm**-1
    26:     923.78 cm**-1
    27:     935.45 cm**-1
    28:     953.31 cm**-1
    29:     961.77 cm**-1
    30:     980.68 cm**-1
    31:    1044.24 cm**-1
    32:    1143.58 cm**-1
    33:    1163.79 cm**-1
    34:    1171.78 cm**-1
    35:    1194.28 cm**-1
    36:    1199.36 cm**-1
    37:    1252.21 cm**-1
    38:    1292.31 cm**-1
    39:    1311.53 cm**-1
    40:    1395.23 cm**-1
    41:    1406.55 cm**-1
    42:    1415.38 cm**-1
    43:    1485.85 cm**-1
    44:    1500.35 cm**-1
    45:    1557.02 cm**-1
    46:    1615.74 cm**-1
    47:    1638.06 cm**-1
    48:    1660.61 cm**-1
    49:    3138.62 cm**-1
    50:    3150.65 cm**-1
    51:    3153.84 cm**-1
    52:    3158.39 cm**-1
    53:    3168.22 cm**-1
    54:    3181.93 cm**-1
    55:    3187.17 cm**-1
    56:    3800.83 cm**-1

IR SPECTRUM
-----------

 Mode   freq       eps      Int      T**2         TX        TY        TZ
       cm**-1   L/(mol*cm) km/mol    a.u.
----------------------------------------------------------------------------
  6:    124.78   0.000187    0.94  0.000467  (-0.000001  0.000000  0.021609)
  7:    180.66   0.000010    0.05  0.000016  ( 0.000001 -0.000000  0.004061)
  8:    295.01   0.000490    2.47  0.000518  ( 0.022594 -0.002713  0.000001)
  9:    300.52   0.000070    0.35  0.000072  (-0.000002 -0.000000  0.008512)
 10:    389.52   0.018965   95.84  0.015194  (-0.000001  0.000001  0.123262)
 11:    408.57   0.000195    0.99  0.000149  ( 0.000000 -0.000001 -0.012208)
 12:    432.91   0.000517    2.61  0.000372  (-0.008137 -0.017500  0.000000)
 13:    472.49   0.002657   13.43  0.001755  (-0.038451 -0.016624  0.000019)
 14:    472.88   0.004586   23.18  0.003027  (-0.000013 -0.000007 -0.055015)
 15:    534.15   0.000647    3.27  0.000378  (-0.019285 -0.002477  0.000000)
 16:    542.53   0.000070    0.35  0.000040  (-0.000001 -0.000001  0.006349)
 17:    639.65   0.000850    4.30  0.000415  (-0.019412  0.006168 -0.000000)
 18:    651.59   0.000110    0.55  0.000053  ( 0.000000  0.000001 -0.007248)
 19:    734.19   0.002142   10.82  0.000910  (-0.030052 -0.002679  0.000000)
 20:    747.25   0.005731   28.96  0.002393  (-0.000001  0.000000 -0.048923)
 21:    770.43   0.000271    1.37  0.000110  (-0.000001 -0.000001 -0.010471)
 22:    783.29   0.000024    0.12  0.000010  ( 0.001114  0.002875 -0.000000)
 23:    813.96   0.000058    0.29  0.000022  (-0.000000  0.000000 -0.004698)
 24:    837.55   0.014737   74.48  0.005491  (-0.000000  0.000001 -0.074101)
 25:    872.07   0.000001    0.00  0.000000  ( 0.000000  0.000000 -0.000432)
 26:    923.78   0.000718    3.63  0.000243  (-0.015576 -0.000032 -0.000000)
 27:    935.45   0.000299    1.51  0.000100  (-0.000000  0.000001  0.009987)
 28:    953.31   0.000083    0.42  0.000027  ( 0.000000  0.000000 -0.005213)
 29:    961.77   0.000003    0.02  0.000001  (-0.000000  0.000000  0.001054)
 30:    980.68   0.000847    4.28  0.000270  ( 0.016416  0.000408 -0.000000)
 31:   1044.24   0.000960    4.85  0.000287  ( 0.016936  0.000410  0.000000)
 32:   1143.58   0.004975   25.14  0.001358  (-0.036103  0.007364  0.000000)
 33:   1163.79   0.000183    0.92  0.000049  ( 0.001736  0.006782 -0.000000)
 34:   1171.78   0.008261   41.75  0.002200  ( 0.046624  0.005118 -0.000000)
 35:   1194.28   0.036284  183.37  0.009481  (-0.092334 -0.030911  0.000000)
 36:   1199.36   0.009306   47.03  0.002421  (-0.043297 -0.023384  0.000000)
 37:   1252.21   0.001596    8.07  0.000398  (-0.019918  0.001001  0.000000)
 38:   1292.31   0.001403    7.09  0.000339  (-0.014851  0.010872  0.000000)
 39:   1311.53   0.003529   17.84  0.000840  (-0.028720 -0.003857  0.000000)
 40:   1395.23   0.000838    4.24  0.000188  (-0.010086 -0.009263  0.000000)
 41:   1406.55   0.002143   10.83  0.000475  (-0.018811 -0.011026  0.000000)
 42:   1415.38   0.008453   42.72  0.001864  ( 0.041193  0.012913 -0.000000)
 43:   1485.85   0.002155   10.89  0.000453  ( 0.021188 -0.001940 -0.000000)
 44:   1500.35   0.005292   26.74  0.001101  (-0.032215 -0.007935  0.000000)
 45:   1557.02   0.005192   26.24  0.001041  (-0.031925 -0.004625  0.000000)
 46:   1615.74   0.000641    3.24  0.000124  ( 0.000494 -0.011114  0.000000)
 47:   1638.06   0.008987   45.42  0.001712  (-0.039677 -0.011740  0.000000)
 48:   1660.61   0.020217  102.17  0.003799  (-0.061495 -0.004196  0.000000)
 49:   3138.62   0.003464   17.50  0.000344  ( 0.012427  0.013782 -0.000000)
 50:   3150.65   0.001378    6.97  0.000137  (-0.003927 -0.011005 -0.000000)
 51:   3153.84   0.000124    0.63  0.000012  (-0.002928 -0.001923 -0.000000)
 52:   3158.39   0.001409    7.12  0.000139  (-0.000444 -0.011792  0.000000)
 53:   3168.22   0.005100   25.77  0.000502  (-0.001276 -0.022376 -0.000000)
 54:   3181.93   0.003974   20.08  0.000390  ( 0.019673 -0.001650  0.000000)
 55:   3187.17   0.001028    5.19  0.000101  ( 0.006209 -0.007878  0.000000)
 56:   3800.83   0.011814   59.71  0.000970  ( 0.022099  0.021947 -0.000000)

--------------------------
THERMOCHEMISTRY AT 298.15K
--------------------------

Temperature         ...   298.15 K
Pressure            ...     1.00 atm
Total Mass          ...   144.17 AMU
Quasi RRHO          ...     True
Cut-Off Frequency   ...     1.00 cm^-1

Throughout the following assumptions are being made:
  (1) The electronic state is orbitally nondegenerate
  (2) There are no thermally accessible electronically excited states
  (3) Hindered rotations indicated by low frequency modes are not
      treated as such but are treated as vibrations and this may
      cause some error
  (4) All equations used are the standard statistical mechanics
      equations for an ideal gas
  (5) All vibrations are strictly harmonic

freq.     124.78  E(vib)   ...       0.43
freq.     180.66  E(vib)   ...       0.37
freq.     295.01  E(vib)   ...       0.27
freq.     300.52  E(vib)   ...       0.26
freq.     389.52  E(vib)   ...       0.20
freq.     408.57  E(vib)   ...       0.19
freq.     432.91  E(vib)   ...       0.17
freq.     472.49  E(vib)   ...       0.15
freq.     472.88  E(vib)   ...       0.15
freq.     534.15  E(vib)   ...       0.13
freq.     542.53  E(vib)   ...       0.12
freq.     639.65  E(vib)   ...       0.09
freq.     651.59  E(vib)   ...       0.08
freq.     734.19  E(vib)   ...       0.06
freq.     747.25  E(vib)   ...       0.06
freq.     770.43  E(vib)   ...       0.05
freq.     783.29  E(vib)   ...       0.05
freq.     813.96  E(vib)   ...       0.05
freq.     837.55  E(vib)   ...       0.04
freq.     872.07  E(vib)   ...       0.04
freq.     923.78  E(vib)   ...       0.03
freq.     935.45  E(vib)   ...       0.03
freq.     953.31  E(vib)   ...       0.03
freq.     961.77  E(vib)   ...       0.03
freq.     980.68  E(vib)   ...       0.02
freq.    1044.24  E(vib)   ...       0.02
freq.    1143.58  E(vib)   ...       0.01
freq.    1163.79  E(vib)   ...       0.01
freq.    1171.78  E(vib)   ...       0.01
freq.    1194.28  E(vib)   ...       0.01
freq.    1199.36  E(vib)   ...       0.01
freq.    1252.21  E(vib)   ...       0.01
freq.    1292.31  E(vib)   ...       0.01
freq.    1311.53  E(vib)   ...       0.01
freq.    1395.23  E(vib)   ...       0.00
freq.    1406.55  E(vib)   ...       0.00
freq.    1415.38  E(vib)   ...       0.00
freq.    1485.85  E(vib)   ...       0.00
freq.    1500.35  E(vib)   ...       0.00
freq.    1557.02  E(vib)   ...       0.00
freq.    1615.74  E(vib)   ...       0.00
freq.    1638.06  E(vib)   ...       0.00
freq.    1660.61  E(vib)   ...       0.00
freq.    3138.62  E(vib)   ...       0.00
freq.    3150.65  E(vib)   ...       0.00
freq.    3153.84  E(vib)   ...       0.00
freq.    3158.39  E(vib)   ...       0.00
freq.    3168.22  E(vib)   ...       0.00
freq.    3181.93  E(vib)   ...       0.00
freq.    3187.17  E(vib)   ...       0.00
freq.    3800.83  E(vib)   ...       0.00

------------
INNER ENERGY
------------

The inner energy is: U= E(el) + E(ZPE) + E(vib) + E(rot) + E(trans)
    E(el)   - is the total energy from the electronic structure calculation
              = E(kin-el) + E(nuc-el) + E(el-el) + E(nuc-nuc)
    E(ZPE)  - the the zero temperature vibrational energy from the frequency calculation
    E(vib)  - the the finite temperature correction to E(ZPE) due to population
              of excited vibrational states
    E(rot)  - is the rotational thermal energy
    E(trans)- is the translational thermal energy

Summary of contributions to the inner energy U:
Electronic energy                ...   -461.04208350 Eh
Zero point energy                ...      0.15069283 Eh      94.56 kcal/mol
Thermal vibrational correction   ...      0.00517871 Eh       3.25 kcal/mol
Thermal rotational correction    ...      0.00141627 Eh       0.89 kcal/mol
Thermal translational correction ...      0.00141627 Eh       0.89 kcal/mol
-----------------------------------------------------------------------
Total thermal energy                   -460.88337942 Eh

Summary of corrections to the electronic energy:
(perhaps to be used in another calculation)
Total thermal correction                  0.00801126 Eh       5.03 kcal/mol
Non-thermal (ZPE) correction              0.15069283 Eh      94.56 kcal/mol
-----------------------------------------------------------------------
Total correction                          0.15870409 Eh      99.59 kcal/mol

--------
ENTHALPY
--------

The enthalpy is H = U + kB*T
                kB is Boltzmann's constant
Total thermal energy              ...   -460.88337942 Eh
Thermal Enthalpy correction       ...      0.00094421 Eh       0.59 kcal/mol
-----------------------------------------------------------------------
Total Enthalpy                    ...   -460.88243521 Eh

Note: Rotational entropy computed according to Herzberg
Infrared and Raman Spectra, Chapter V,1, Van Nostrand Reinhold, 1945
Point Group:  Cs, Symmetry Number:   1
Rotational constants in cm-1:     0.095407     0.027578     0.021394

Vibrational entropy computed according to the QRRHO of S. Grimme
Chem.Eur.J. 2012 18 9955 using a reference frequency of 100.0 cm-1

-------
ENTROPY
-------

The entropy contributions are T*S = T*(S(el)+S(vib)+S(rot)+S(trans))
     S(el)   - electronic entropy
     S(vib)  - vibrational entropy
     S(rot)  - rotational entropy
     S(trans)- translational entropy
The entropies will be listed as multiplied by the temperature to get
units of energy

Electronic entropy                ...      0.00000000 Eh      0.00 kcal/mol
Vibrational entropy               ...      0.00799426 Eh      5.02 kcal/mol
Rotational entropy                ...      0.01413020 Eh      8.87 kcal/mol
Translational entropy             ...      0.01938938 Eh     12.17 kcal/mol
-----------------------------------------------------------------------
Final entropy term                ...      0.04151384 Eh     26.05 kcal/mol

In case the symmetry of your molecule has not been determined correctly
or in case you have a reason to use a different symmetry number we print
out the resulting rotational entropy values for sn=1,12:

 non-linear molecules -----------------------------------
|  sn= 1 | S(rot)=       0.01413020 Eh      8.87 kcal/mol|
|  sn= 2 | S(rot)=       0.01347574 Eh      8.46 kcal/mol|
|  sn= 3 | S(rot)=       0.01309291 Eh      8.22 kcal/mol|
|  sn= 4 | S(rot)=       0.01282129 Eh      8.05 kcal/mol|
|  sn= 5 | S(rot)=       0.01261060 Eh      7.91 kcal/mol|
|  sn= 6 | S(rot)=       0.01243845 Eh      7.81 kcal/mol|
|  sn= 7 | S(rot)=       0.01229291 Eh      7.71 kcal/mol|
|  sn= 8 | S(rot)=       0.01216683 Eh      7.63 kcal/mol|
|  sn= 9 | S(rot)=       0.01205562 Eh      7.56 kcal/mol|
|  sn=10 | S(rot)=       0.01195614 Eh      7.50 kcal/mol|
|  sn=11 | S(rot)=       0.01186615 Eh      7.45 kcal/mol|
|  sn=12 | S(rot)=       0.01178400 Eh      7.39 kcal/mol|
 linear molecules ---------------------------------------
|  Dinfh | S(rot)=       0.00895584 Eh      5.62 kcal/mol|

                             ****ORCA TERMINATED NORMALLY****
TOTAL RUN TIME: 0 days 0 hours 21 minutes 48 seconds 981 msec
