                         Program Version 6.0.1  -  RELEASE   -
|  1> ! pbe def2-sv(p) def2/J RI DEFGRID1 loosescf d4 GCP(DFT/SV(P)) printgap
|  2> %output
|  3>     printlevel normal
|  4> end
|  5> * xyz 0 1
|  6> C -3.1986279966 -0.3647901209 0.8854196434
|  7> O -1.7922182553 -0.3573687802 0.6874234992
|  8> C -1.334860599 0.1634775833 -0.4589518037
|  9> O -2.0478274955 0.6086120376 -1.3203531147
| 10> C 0.1767755853 0.1425775647 -0.5194468698
| 11> C 0.7371769981 -1.275651434 -0.3152784784
| 12> C 2.1510418662 -1.2394332991 0.276582909
| 13> C 2.9017847078 -0.0062178141 -0.2123889434
| 14> C 2.2519136499 1.266606858 0.3438731502
| 15> C 0.7433593259 1.0859109104 0.5474426862
| 16> H -3.4406716164 -1.2719437288 1.4360499563
| 17> H -3.7123545161 -0.3482706795 -0.0776501276
| 18> H -3.4899376485 0.5131304408 1.4655243686
| 19> H 0.4534731735 0.523054459 -1.5067294511
| 20> H 0.0802990052 -1.8329924344 0.3535367324
| 21> H 0.7494892624 -1.7907483754 -1.2775422666
| 22> H 2.1026382168 -1.2146677101 1.3663967892
| 23> H 2.6876419487 -2.1459712431 -0.0075903193
| 24> H 3.9471992756 -0.053068199 0.0965816765
| 25> H 2.8831777619 0.0079404259 -1.3035625176
| 26> H 2.7068579987 1.5283261197 1.3008393498
| 27> H 2.435315099 2.0944320734 -0.3429992415
| 28> H 0.5356592407 0.6589432452 1.5293953297
| 29> H 0.2435238752 2.0549215924 0.4933443186
| 30> *
| 31>
| 32>                          ****END OF INPUT****

CARTESIAN COORDINATES (ANGSTROEM)
---------------------------------
  C     -3.198628   -0.364790    0.885420
  O     -1.792218   -0.357369    0.687423
  C     -1.334861    0.163478   -0.458952
  O     -2.047827    0.608612   -1.320353
  C      0.176776    0.142578   -0.519447
  C      0.737177   -1.275651   -0.315278
  C      2.151042   -1.239433    0.276583
  C      2.901785   -0.006218   -0.212389
  C      2.251914    1.266607    0.343873
  C      0.743359    1.085911    0.547443
  H     -3.440672   -1.271944    1.436050
  H     -3.712355   -0.348271   -0.077650
  H     -3.489938    0.513130    1.465524
  H      0.453473    0.523054   -1.506729
  H      0.080299   -1.832992    0.353537
  H      0.749489   -1.790748   -1.277542
  H      2.102638   -1.214668    1.366397
  H      2.687642   -2.145971   -0.007590
  H      3.947199   -0.053068    0.096582
  H      2.883178    0.007940   -1.303563
  H      2.706858    1.528326    1.300839
  H      2.435315    2.094432   -0.342999
  H      0.535659    0.658943    1.529395
  H      0.243524    2.054922    0.493344

 Total Charge           Charge          ....    0
 Multiplicity           Mult            ....    1
 Number of Electrons    NEL             ....   78
 Basis Dimension        Dim             ....  168

ORBITAL ENERGIES
----------------

  NO   OCC          E(Eh)            E(eV)
   0   2.0000     -18.795748      -511.4583
   1   2.0000     -18.732825      -509.7461
   2   2.0000     -10.001453      -272.1534
   3   2.0000      -9.937217      -270.4054
   4   2.0000      -9.901796      -269.4416
   5   2.0000      -9.889808      -269.1154
   6   2.0000      -9.887095      -269.0415
   7   2.0000      -9.885986      -269.0114
   8   2.0000      -9.884872      -268.9810
   9   2.0000      -9.884409      -268.9685
  10   2.0000      -1.003183       -27.2980
  11   2.0000      -0.912056       -24.8183
  12   2.0000      -0.763858       -20.7856
  13   2.0000      -0.692590       -18.8463
  14   2.0000      -0.667786       -18.1714
  15   2.0000      -0.645722       -17.5710
  16   2.0000      -0.566130       -15.4052
  17   2.0000      -0.550119       -14.9695
  18   2.0000      -0.508988       -13.8503
  19   2.0000      -0.479155       -13.0385
  20   2.0000      -0.455717       -12.4007
  21   2.0000      -0.444611       -12.0985
  22   2.0000      -0.429870       -11.6973
  23   2.0000      -0.411527       -11.1982
  24   2.0000      -0.394124       -10.7246
  25   2.0000      -0.390472       -10.6253
  26   2.0000      -0.362495        -9.8640
  27   2.0000      -0.359832        -9.7915
  28   2.0000      -0.347152        -9.4465
  29   2.0000      -0.334360        -9.0984
  30   2.0000      -0.325898        -8.8681
  31   2.0000      -0.317829        -8.6486
  32   2.0000      -0.315923        -8.5967
  33   2.0000      -0.299071        -8.1381
  34   2.0000      -0.278138        -7.5685
  35   2.0000      -0.265093        -7.2136
  36   2.0000      -0.264409        -7.1949
  37   2.0000      -0.254728        -6.9315
  38   2.0000      -0.213415        -5.8073
  39   0.0000      -0.015866        -0.4317
  40   0.0000       0.028366         0.7719
  41   0.0000       0.046130         1.2553
  42   0.0000       0.057092         1.5536
  43   0.0000       0.069507         1.8914

MULLIKEN ATOMIC CHARGES
-----------------------
   0 C :   -0.123871
   1 O :   -0.255383
   2 C :    0.141696
   3 O :   -0.179619
   4 C :   -0.163498
   5 C :   -0.128211
   6 C :   -0.151839
   7 C :   -0.158860
   8 C :   -0.136604
   9 C :   -0.143368
  10 H :    0.119073
  11 H :    0.128909
  12 H :    0.117002
  13 H :    0.076085
  14 H :    0.093814
  15 H :    0.087404
  16 H :    0.077420
  17 H :    0.086221
  18 H :    0.087044
  19 H :    0.079721
  20 H :    0.082315
  21 H :    0.084743
  22 H :    0.085490
  23 H :    0.094314
Sum of atomic charges:    0.0000000

LOEWDIN ATOMIC CHARGES
----------------------
   0 C :   -0.210860
   1 O :   -0.075695
   2 C :    0.044429
   3 O :   -0.154720
   4 C :   -0.160027
   5 C :   -0.217707
   6 C :   -0.227669
   7 C :   -0.230355
   8 C :   -0.227345
   9 C :   -0.214587
  10 H :    0.118488
  11 H :    0.122046
  12 H :    0.117148
  13 H :    0.129372
  14 H :    0.120959
  15 H :    0.120026
  16 H :    0.115621
  17 H :    0.119210
  18 H :    0.118657
  19 H :    0.115213
  20 H :    0.118369
  21 H :    0.118120
  22 H :    0.119419
  23 H :    0.121890

  Mayer bond orders larger than 0.100000
B(  0-C ,  1-O ) :   0.9496 B(  0-C , 10-H ) :   0.9600 B(  0-C , 11-H ) :   0.9329
B(  0-C , 12-H ) :   0.9591 B(  1-O ,  2-C ) :   1.1757 B(  2-C ,  3-O ) :   2.1101
B(  2-C ,  4-C ) :   0.9610 B(  4-C ,  5-C ) :   1.0742 B(  4-C ,  9-C ) :   1.1291
B(  4-C , 13-H ) :   0.8745 B(  5-C ,  6-C ) :   1.1512 B(  5-C , 14-H ) :   0.9077
B(  5-C , 15-H ) :   0.9173 B(  6-C ,  7-C ) :   1.1854 B(  6-C , 16-H ) :   0.9062
B(  6-C , 17-H ) :   0.9194 B(  7-C ,  8-C ) :   1.1409 B(  7-C , 18-H ) :   0.9225
B(  7-C , 19-H ) :   0.9112 B(  8-C ,  9-C ) :   1.1489 B(  8-C , 20-H ) :   0.9172
B(  8-C , 21-H ) :   0.9199 B(  9-C , 22-H ) :   0.8943 B(  9-C , 23-H ) :   0.9226

Dispersion correction           -0.022777553
FINAL SINGLE POINT ENERGY      -462.696495619739

DIPOLE MOMENT
-------------

Method             : SCF
Type of density    : Electron Density
Multiplicity       :   1
Irrep              :   0
Energy             :  -462.7845340220093249 Eh
Relativity type    :
Basis              : AO
                                X                 Y                 Z
Electronic contribution:     -7.402788128       0.911995010      -2.642674068
Nuclear contribution   :      7.619441757      -1.194233777       3.298213044
                        -----------------------------------------
Total Dipole Moment    :      0.216653629      -0.282238767       0.655538976
                        -----------------------------------------
Magnitude (a.u.)       :      0.745874564
Magnitude (Debye)      :      1.895862476

Rotational constants in cm-1:             0.092303             0.025724             0.024354
Rotational constants in MHz :          2767.161769           771.189247           730.101853

                             ****ORCA TERMINATED NORMALLY****
TOTAL RUN TIME: 0 days 0 hours 0 minutes 8 seconds 480 msec
