                         Program Version 6.0.1  -  RELEASE   -
|  1> ! pbe def2-sv(p) def2/J RI DEFGRID1 loosescf d4 GCP(DFT/SV(P)) printgap
|  2> %output
|  3>     printlevel normal
|  4> end
|  5> * xyz 0 1
|  6> C -2.2502161971 -1.0175713074 0.7497895449
|  7> C -0.8049149472 -0.4777957298 0.7425487779
|  8> H -0.5351472279 -0.1687335524 1.7616894171
|  9> C -0.6350291174 0.712846477 -0.2060122904
| 10> H -0.7611053495 0.3446774471 -1.2379701776
| 11> C 0.7886433887 1.2887506389 -0.0739239619
| 12> H 0.7738802262 2.0771065391 0.6900307099
| 13> C 1.7917329161 0.1933627915 0.3569235499
| 14> H 2.7544266615 0.4059478566 -0.1331038178
| 15> C 1.2994533908 -1.1617173022 -0.1650989262
| 16> H 1.9988408345 -1.9561935116 0.1396371018
| 17> O 0.0588472728 -1.5361209886 0.3418395608
| 18> O 1.2713403791 -1.0528699942 -1.5696482472
| 19> O 1.9471077829 0.0931279375 1.7468665369
| 20> O 1.1931043474 1.9113891991 -1.2658937878
| 21> O -1.6201028876 1.6824424688 0.0774649403
| 22> O -2.9463120966 -0.8122390085 -0.4468472128
| 23> H -2.786688588 -0.559917252 1.5898552556
| 24> H -2.1994100387 -2.0973520536 0.9000828122
| 25> H 0.8114689707 -1.8287802366 -1.9139287607
| 26> H 2.3351977884 0.9105537313 2.0800124161
| 27> H 1.3208156658 1.2178259522 -1.9281334818
| 28> H -1.3920803042 2.4845143762 -0.4078286685
| 29> H -3.0563172516 0.1417508072 -0.5554685085
| 30> *
| 31>
| 32>                          ****END OF INPUT****

CARTESIAN COORDINATES (ANGSTROEM)
---------------------------------
  C     -2.250216   -1.017571    0.749790
  C     -0.804915   -0.477796    0.742549
  H     -0.535147   -0.168734    1.761689
  C     -0.635029    0.712846   -0.206012
  H     -0.761105    0.344677   -1.237970
  C      0.788643    1.288751   -0.073924
  H      0.773880    2.077107    0.690031
  C      1.791733    0.193363    0.356924
  H      2.754427    0.405948   -0.133104
  C      1.299453   -1.161717   -0.165099
  H      1.998841   -1.956194    0.139637
  O      0.058847   -1.536121    0.341840
  O      1.271340   -1.052870   -1.569648
  O      1.947108    0.093128    1.746867
  O      1.193104    1.911389   -1.265894
  O     -1.620103    1.682442    0.077465
  O     -2.946312   -0.812239   -0.446847
  H     -2.786689   -0.559917    1.589855
  H     -2.199410   -2.097352    0.900083
  H      0.811469   -1.828780   -1.913929
  H      2.335198    0.910554    2.080012
  H      1.320816    1.217826   -1.928133
  H     -1.392080    2.484514   -0.407829
  H     -3.056317    0.141751   -0.555469

 Total Charge           Charge          ....    0
 Multiplicity           Mult            ....    1
 Number of Electrons    NEL             ....   96
 Basis Dimension        Dim             ....  192

ORBITAL ENERGIES
----------------

  NO   OCC          E(Eh)            E(eV)
   0   2.0000     -18.773837      -510.8621
   1   2.0000     -18.770158      -510.7620
   2   2.0000     -18.766903      -510.6734
   3   2.0000     -18.766670      -510.6670
   4   2.0000     -18.751770      -510.2616
   5   2.0000     -18.734866      -509.8016
   6   2.0000      -9.991376      -271.8791
   7   2.0000      -9.950695      -270.7722
   8   2.0000      -9.946277      -270.6520
   9   2.0000      -9.942539      -270.5502
  10   2.0000      -9.938030      -270.4275
  11   2.0000      -9.922719      -270.0109
  12   2.0000      -0.989325       -26.9209
  13   2.0000      -0.949275       -25.8311
  14   2.0000      -0.943408       -25.6714
  15   2.0000      -0.929951       -25.3053
  16   2.0000      -0.918600       -24.9964
  17   2.0000      -0.910585       -24.7783
  18   2.0000      -0.703675       -19.1480
  19   2.0000      -0.693362       -18.8673
  20   2.0000      -0.621598       -16.9145
  21   2.0000      -0.589685       -16.0461
  22   2.0000      -0.566064       -15.4034
  23   2.0000      -0.525775       -14.3071
  24   2.0000      -0.507614       -13.8129
  25   2.0000      -0.491034       -13.3617
  26   2.0000      -0.478911       -13.0318
  27   2.0000      -0.453059       -12.3284
  28   2.0000      -0.442465       -12.0401
  29   2.0000      -0.436658       -11.8821
  30   2.0000      -0.425154       -11.5690
  31   2.0000      -0.393531       -10.7085
  32   2.0000      -0.378292       -10.2938
  33   2.0000      -0.368430       -10.0255
  34   2.0000      -0.364671        -9.9232
  35   2.0000      -0.363685        -9.8964
  36   2.0000      -0.345234        -9.3943
  37   2.0000      -0.322940        -8.7876
  38   2.0000      -0.311661        -8.4807
  39   2.0000      -0.304822        -8.2946
  40   2.0000      -0.279496        -7.6055
  41   2.0000      -0.262112        -7.1324
  42   2.0000      -0.253321        -6.8932
  43   2.0000      -0.249574        -6.7913
  44   2.0000      -0.240154        -6.5349
  45   2.0000      -0.223797        -6.0898
  46   2.0000      -0.211584        -5.7575
  47   2.0000      -0.205092        -5.5808
  48   0.0000       0.010079         0.2743
  49   0.0000       0.024584         0.6690
  50   0.0000       0.028629         0.7790
  51   0.0000       0.055634         1.5139
  52   0.0000       0.065020         1.7693

MULLIKEN ATOMIC CHARGES
-----------------------
   0 C :    0.073871
   1 C :    0.045118
   2 H :    0.064519
   3 C :    0.040452
   4 H :    0.043263
   5 C :    0.061743
   6 H :    0.047796
   7 C :    0.001513
   8 H :    0.078194
   9 C :    0.181512
  10 H :    0.072738
  11 O :   -0.303573
  12 O :   -0.413648
  13 O :   -0.403573
  14 O :   -0.432445
  15 O :   -0.423105
  16 O :   -0.438806
  17 H :    0.074504
  18 H :    0.090594
  19 H :    0.309380
  20 H :    0.308270
  21 H :    0.306765
  22 H :    0.312380
  23 H :    0.302539
Sum of atomic charges:   -0.0000000

LOEWDIN ATOMIC CHARGES
----------------------
   0 C :   -0.124597
   1 C :   -0.064344
   2 H :    0.110401
   3 C :   -0.089993
   4 H :    0.101663
   5 C :   -0.080495
   6 H :    0.110610
   7 C :   -0.090478
   8 H :    0.110530
   9 C :    0.005433
  10 H :    0.102019
  11 O :   -0.131881
  12 O :   -0.324499
  13 O :   -0.305922
  14 O :   -0.320410
  15 O :   -0.320384
  16 O :   -0.336321
  17 H :    0.101219
  18 H :    0.120194
  19 H :    0.289353
  20 H :    0.291116
  21 H :    0.279705
  22 H :    0.292181
  23 H :    0.274900

  Mayer bond orders larger than 0.100000
B(  0-C ,  1-C ) :   0.9976 B(  0-C , 16-O ) :   1.1112 B(  0-C , 17-H ) :   0.9190
B(  0-C , 18-H ) :   0.9204 B(  1-C ,  2-H ) :   0.8665 B(  1-C ,  3-C ) :   1.0900
B(  1-C , 11-O ) :   0.9714 B(  3-C ,  4-H ) :   0.8267 B(  3-C ,  5-C ) :   1.0453
B(  3-C , 15-O ) :   1.0395 B(  5-C ,  6-H ) :   0.8561 B(  5-C ,  7-C ) :   0.9858
B(  5-C , 14-O ) :   1.0341 B(  7-C ,  8-H ) :   0.8849 B(  7-C ,  9-C ) :   1.0381
B(  7-C , 13-O ) :   1.0486 B(  9-C , 10-H ) :   0.8933 B(  9-C , 11-O ) :   1.0961
B(  9-C , 12-O ) :   1.0798 B( 12-O , 19-H ) :   0.8371 B( 13-O , 20-H ) :   0.8472
B( 14-O , 21-H ) :   0.8330 B( 15-O , 22-H ) :   0.8409 B( 16-O , 23-H ) :   0.8259

Dispersion correction           -0.025153672
FINAL SINGLE POINT ENERGY      -685.693231165922

DIPOLE MOMENT
-------------

Method             : SCF
Type of density    : Electron Density
Multiplicity       :   1
Irrep              :   0
Energy             :  -685.8257795095413485 Eh
Relativity type    :
Basis              : AO
                                X                 Y                 Z
Electronic contribution:      1.350791012      -0.370812036      -0.964200909
Nuclear contribution   :     -0.692026902       0.915571489       0.907443431
                        -----------------------------------------
Total Dipole Moment    :      0.658764110       0.544759452      -0.056757477
                        -----------------------------------------
Magnitude (a.u.)       :      0.856711401
Magnitude (Debye)      :      2.177587326

Rotational constants in cm-1:             0.041977             0.026658             0.022977
Rotational constants in MHz :          1258.423986           799.179885           688.829951

                             ****ORCA TERMINATED NORMALLY****
TOTAL RUN TIME: 0 days 0 hours 0 minutes 8 seconds 42 msec
