                         Program Version 6.0.1  -  RELEASE   -
|  1> ! pbe def2-sv(p) def2/J RI DEFGRID1 loosescf d4 GCP(DFT/SV(P)) printgap
|  2> %output
|  3>     printlevel normal
|  4> end
|  5> * xyz 0 1
|  6> C -2.4759921643 -0.8216024179 -0.0210695225
|  7> C -1.1044499412 -0.5345314768 0.606702374
|  8> H -1.0981011903 -0.8751784136 1.658047428
|  9> C -0.7669193358 0.9767844045 0.5777716478
| 10> H -1.658946182 1.5349414785 0.2526862252
| 11> C 0.3722584856 1.250805771 -0.4244880151
| 12> H 0.6616175765 2.3089885725 -0.3199283434
| 13> C 1.6009973491 0.3961824154 -0.0644990777
| 14> H 2.273659886 0.3854075994 -0.9291578265
| 15> C 1.1685645143 -1.0690958567 0.2384936203
| 16> H 1.297078524 -1.2576107366 1.3176633078
| 17> O -0.1765338715 -1.2913075505 -0.1348125224
| 18> O 1.9397668883 -2.0064150996 -0.4129030715
| 19> O 2.3247155144 0.958029544 0.9903945232
| 20> O 0.0024916582 0.9616897198 -1.7457018125
| 21> O -0.330969203 1.4497634429 1.8358938435
| 22> O -2.5619965386 -0.2993641892 -1.3173950007
| 23> H -3.2687794242 -0.3496337815 0.5641197515
| 24> H -2.629688636 -1.9083531227 -0.0245319909
| 25> H 1.7551911704 -1.9444854608 -1.3586355802
| 26> H 1.7025339559 1.1870096171 1.6958475535
| 27> H -0.8303544067 1.4068790332 -1.9478336845
| 28> H -1.0531695263 1.3889901409 2.4704767787
| 29> H -1.7934850674 -0.6299745579 -1.8042525875
| 30> *
| 31>
| 32>                          ****END OF INPUT****

CARTESIAN COORDINATES (ANGSTROEM)
---------------------------------
  C     -2.475992   -0.821602   -0.021070
  C     -1.104450   -0.534531    0.606702
  H     -1.098101   -0.875178    1.658047
  C     -0.766919    0.976784    0.577772
  H     -1.658946    1.534941    0.252686
  C      0.372258    1.250806   -0.424488
  H      0.661618    2.308989   -0.319928
  C      1.600997    0.396182   -0.064499
  H      2.273660    0.385408   -0.929158
  C      1.168565   -1.069096    0.238494
  H      1.297079   -1.257611    1.317663
  O     -0.176534   -1.291308   -0.134813
  O      1.939767   -2.006415   -0.412903
  O      2.324716    0.958030    0.990395
  O      0.002492    0.961690   -1.745702
  O     -0.330969    1.449763    1.835894
  O     -2.561997   -0.299364   -1.317395
  H     -3.268779   -0.349634    0.564120
  H     -2.629689   -1.908353   -0.024532
  H      1.755191   -1.944485   -1.358636
  H      1.702534    1.187010    1.695848
  H     -0.830354    1.406879   -1.947834
  H     -1.053170    1.388990    2.470477
  H     -1.793485   -0.629975   -1.804253

 Total Charge           Charge          ....    0
 Multiplicity           Mult            ....    1
 Number of Electrons    NEL             ....   96
 Basis Dimension        Dim             ....  192

ORBITAL ENERGIES
----------------

  NO   OCC          E(Eh)            E(eV)
   0   2.0000     -18.783811      -511.1335
   1   2.0000     -18.772139      -510.8159
   2   2.0000     -18.765758      -510.6422
   3   2.0000     -18.759073      -510.4603
   4   2.0000     -18.753516      -510.3091
   5   2.0000     -18.738231      -509.8932
   6   2.0000      -9.981578      -271.6126
   7   2.0000      -9.958285      -270.9787
   8   2.0000      -9.954437      -270.8740
   9   2.0000      -9.948886      -270.7230
  10   2.0000      -9.944061      -270.5917
  11   2.0000      -9.934954      -270.3438
  12   2.0000      -0.987853       -26.8808
  13   2.0000      -0.959682       -26.1143
  14   2.0000      -0.943735       -25.6803
  15   2.0000      -0.937909       -25.5218
  16   2.0000      -0.919712       -25.0266
  17   2.0000      -0.913471       -24.8568
  18   2.0000      -0.706699       -19.2303
  19   2.0000      -0.687580       -18.7100
  20   2.0000      -0.624703       -16.9990
  21   2.0000      -0.594843       -16.1865
  22   2.0000      -0.572979       -15.5916
  23   2.0000      -0.526490       -14.3265
  24   2.0000      -0.511139       -13.9088
  25   2.0000      -0.498188       -13.5564
  26   2.0000      -0.477478       -12.9928
  27   2.0000      -0.466686       -12.6992
  28   2.0000      -0.463137       -12.6026
  29   2.0000      -0.436278       -11.8717
  30   2.0000      -0.415384       -11.3032
  31   2.0000      -0.398252       -10.8370
  32   2.0000      -0.392797       -10.6886
  33   2.0000      -0.388918       -10.5830
  34   2.0000      -0.364466        -9.9176
  35   2.0000      -0.359748        -9.7892
  36   2.0000      -0.329881        -8.9765
  37   2.0000      -0.324254        -8.8234
  38   2.0000      -0.312620        -8.5068
  39   2.0000      -0.302986        -8.2447
  40   2.0000      -0.294181        -8.0051
  41   2.0000      -0.265112        -7.2141
  42   2.0000      -0.257025        -6.9940
  43   2.0000      -0.254501        -6.9253
  44   2.0000      -0.243254        -6.6193
  45   2.0000      -0.227915        -6.2019
  46   2.0000      -0.219983        -5.9861
  47   2.0000      -0.196651        -5.3511
  48   0.0000      -0.002938        -0.0799
  49   0.0000       0.017273         0.4700
  50   0.0000       0.040850         1.1116
  51   0.0000       0.049380         1.3437
  52   0.0000       0.061965         1.6862

MULLIKEN ATOMIC CHARGES
-----------------------
   0 C :    0.072264
   1 C :    0.017927
   2 H :    0.049029
   3 C :   -0.026340
   4 H :    0.078509
   5 C :    0.047280
   6 H :    0.080302
   7 C :    0.046331
   8 H :    0.068281
   9 C :    0.219384
  10 H :    0.046199
  11 O :   -0.302410
  12 O :   -0.380119
  13 O :   -0.423451
  14 O :   -0.414670
  15 O :   -0.424974
  16 O :   -0.445168
  17 H :    0.083176
  18 H :    0.091741
  19 H :    0.299792
  20 H :    0.301959
  21 H :    0.300933
  22 H :    0.312257
  23 H :    0.301768
Sum of atomic charges:    0.0000000

LOEWDIN ATOMIC CHARGES
----------------------
   0 C :   -0.122929
   1 C :   -0.082437
   2 H :    0.100357
   3 C :   -0.083819
   4 H :    0.106403
   5 C :   -0.073997
   6 H :    0.107551
   7 C :   -0.082563
   8 H :    0.119217
   9 C :    0.003219
  10 H :    0.096112
  11 O :   -0.156084
  12 O :   -0.285830
  13 O :   -0.311903
  14 O :   -0.312292
  15 O :   -0.312943
  16 O :   -0.333182
  17 H :    0.111604
  18 H :    0.107297
  19 H :    0.285909
  20 H :    0.271892
  21 H :    0.280323
  22 H :    0.292010
  23 H :    0.276085

  Mayer bond orders larger than 0.100000
B(  0-C ,  1-C ) :   1.0376 B(  0-C , 16-O ) :   1.0705 B(  0-C , 17-H ) :   0.9228
B(  0-C , 18-H ) :   0.9142 B(  1-C ,  2-H ) :   0.8795 B(  1-C ,  3-C ) :   0.9446
B(  1-C , 11-O ) :   1.0275 B(  3-C ,  4-H ) :   0.8985 B(  3-C ,  5-C ) :   1.0094
B(  3-C , 15-O ) :   1.0206 B(  5-C ,  6-H ) :   0.8964 B(  5-C ,  7-C ) :   0.9839
B(  5-C , 14-O ) :   1.0570 B(  7-C ,  8-H ) :   0.8911 B(  7-C ,  9-C ) :   0.9531
B(  7-C , 13-O ) :   1.0716 B(  9-C , 10-H ) :   0.8794 B(  9-C , 11-O ) :   1.0097
B(  9-C , 12-O ) :   1.1381 B( 12-O , 19-H ) :   0.8466 B( 13-O , 20-H ) :   0.8195
B( 14-O , 21-H ) :   0.8247 B( 15-O , 22-H ) :   0.8414 B( 16-O , 23-H ) :   0.8174

Dispersion correction           -0.025523555
FINAL SINGLE POINT ENERGY      -685.690455387865

DIPOLE MOMENT
-------------

Method             : SCF
Type of density    : Electron Density
Multiplicity       :   1
Irrep              :   0
Energy             :  -685.8232178753008839 Eh
Relativity type    :
Basis              : AO
                                X                 Y                 Z
Electronic contribution:      2.997027283      -0.746735099      -1.060357231
Nuclear contribution   :     -4.337661623       1.166507880       1.465527494
                        -----------------------------------------
Total Dipole Moment    :     -1.340634340       0.419772781       0.405170263
                        -----------------------------------------
Magnitude (a.u.)       :      1.462078165
Magnitude (Debye)      :      3.716307357

Rotational constants in cm-1:             0.041223             0.028170             0.023699
Rotational constants in MHz :          1235.832870           844.520927           710.473029

                             ****ORCA TERMINATED NORMALLY****
TOTAL RUN TIME: 0 days 0 hours 0 minutes 11 seconds 614 msec
