                         Program Version 6.0.1  -  RELEASE   -
|  1> ! pbe def2-sv(p) def2/J RI DEFGRID1 loosescf d4 GCP(DFT/SV(P)) printgap
|  2> %output
|  3>     printlevel normal
|  4> end
|  5> * xyz 0 1
|  6> C -2.1848339544 -1.0037553019 -0.4245271718
|  7> C -1.2547822613 -0.1236350969 0.4472983376
|  8> H -1.8230597654 0.277850027 1.2940507915
|  9> C -0.6760716657 1.0697868262 -0.3264831283
| 10> H -0.6012041373 0.8364235626 -1.4009250035
| 11> C 0.7435986687 1.3408305293 0.1877750381
| 12> H 0.7173028447 1.4577239321 1.2804548394
| 13> C 1.623187578 0.1284450053 -0.1592760113
| 14> H 1.7595204336 0.0880609858 -1.2474509408
| 15> C 0.8853959983 -1.1624730068 0.2604998229
| 16> H 1.5536333189 -1.7401727875 0.9199213363
| 17> O -0.237027228 -0.9059277138 1.0565487034
| 18> O 0.5692451949 -1.8699312404 -0.8945071651
| 19> O 2.865212618 0.1784488506 0.5056579053
| 20> O 1.1989509239 2.5303872553 -0.425022321
| 21> O -1.5156450092 2.1751675886 -0.1340323373
| 22> O -2.1471863566 -2.3524691528 -0.0237238886
| 23> H -1.8597829723 -0.9980303039 -1.4668815247
| 24> H -3.2051919045 -0.6037402291 -0.3721602523
| 25> H -0.1350765369 -2.5047743707 -0.6811372061
| 26> H 3.4718261617 0.7337396705 0.0045942722
| 27> H 2.0256273967 2.7942997044 -0.0079908125
| 28> H -1.026751085 2.9541008611 -0.4321858721
| 29> H -2.2309423331 -2.3867447155 0.9370105062
| 30> *
| 31>
| 32>                          ****END OF INPUT****

CARTESIAN COORDINATES (ANGSTROEM)
---------------------------------
  C     -2.184834   -1.003755   -0.424527
  C     -1.254782   -0.123635    0.447298
  H     -1.823060    0.277850    1.294051
  C     -0.676072    1.069787   -0.326483
  H     -0.601204    0.836424   -1.400925
  C      0.743599    1.340831    0.187775
  H      0.717303    1.457724    1.280455
  C      1.623188    0.128445   -0.159276
  H      1.759520    0.088061   -1.247451
  C      0.885396   -1.162473    0.260500
  H      1.553633   -1.740173    0.919921
  O     -0.237027   -0.905928    1.056549
  O      0.569245   -1.869931   -0.894507
  O      2.865213    0.178449    0.505658
  O      1.198951    2.530387   -0.425022
  O     -1.515645    2.175168   -0.134032
  O     -2.147186   -2.352469   -0.023724
  H     -1.859783   -0.998030   -1.466882
  H     -3.205192   -0.603740   -0.372160
  H     -0.135077   -2.504774   -0.681137
  H      3.471826    0.733740    0.004594
  H      2.025627    2.794300   -0.007991
  H     -1.026751    2.954101   -0.432186
  H     -2.230942   -2.386745    0.937011

 Total Charge           Charge          ....    0
 Multiplicity           Mult            ....    1
 Number of Electrons    NEL             ....   96
 Basis Dimension        Dim             ....  192

ORBITAL ENERGIES
----------------

  NO   OCC          E(Eh)            E(eV)
   0   2.0000     -18.771146      -510.7889
   1   2.0000     -18.769681      -510.7490
   2   2.0000     -18.762003      -510.5401
   3   2.0000     -18.761162      -510.5172
   4   2.0000     -18.750763      -510.2342
   5   2.0000     -18.747304      -510.1401
   6   2.0000      -9.981279      -271.6044
   7   2.0000      -9.945967      -270.6435
   8   2.0000      -9.943686      -270.5814
   9   2.0000      -9.942217      -270.5415
  10   2.0000      -9.940204      -270.4867
  11   2.0000      -9.933728      -270.3105
  12   2.0000      -0.985565       -26.8186
  13   2.0000      -0.953954       -25.9584
  14   2.0000      -0.936835       -25.4926
  15   2.0000      -0.932266       -25.3682
  16   2.0000      -0.920964       -25.0607
  17   2.0000      -0.905546       -24.6411
  18   2.0000      -0.707887       -19.2626
  19   2.0000      -0.693716       -18.8770
  20   2.0000      -0.622022       -16.9261
  21   2.0000      -0.576241       -15.6803
  22   2.0000      -0.575079       -15.6487
  23   2.0000      -0.517821       -14.0906
  24   2.0000      -0.509077       -13.8527
  25   2.0000      -0.490147       -13.3376
  26   2.0000      -0.476565       -12.9680
  27   2.0000      -0.464258       -12.6331
  28   2.0000      -0.437487       -11.9046
  29   2.0000      -0.427242       -11.6258
  30   2.0000      -0.416067       -11.3217
  31   2.0000      -0.395011       -10.7488
  32   2.0000      -0.393037       -10.6951
  33   2.0000      -0.389026       -10.5859
  34   2.0000      -0.361369        -9.8334
  35   2.0000      -0.350276        -9.5315
  36   2.0000      -0.335671        -9.1341
  37   2.0000      -0.321275        -8.7423
  38   2.0000      -0.314056        -8.5459
  39   2.0000      -0.294392        -8.0108
  40   2.0000      -0.283564        -7.7162
  41   2.0000      -0.264015        -7.1842
  42   2.0000      -0.258293        -7.0285
  43   2.0000      -0.244590        -6.6556
  44   2.0000      -0.233444        -6.3523
  45   2.0000      -0.225997        -6.1497
  46   2.0000      -0.218956        -5.9581
  47   2.0000      -0.207349        -5.6423
  48   0.0000      -0.005590        -0.1521
  49   0.0000       0.021669         0.5896
  50   0.0000       0.040554         1.1035
  51   0.0000       0.054819         1.4917
  52   0.0000       0.066562         1.8112

MULLIKEN ATOMIC CHARGES
-----------------------
   0 C :    0.034839
   1 C :    0.033237
   2 H :    0.079811
   3 C :    0.027784
   4 H :    0.065840
   5 C :    0.031558
   6 H :    0.064359
   7 C :    0.047316
   8 H :    0.070972
   9 C :    0.191701
  10 H :    0.067778
  11 O :   -0.311390
  12 O :   -0.418950
  13 O :   -0.407576
  14 O :   -0.424919
  15 O :   -0.416397
  16 O :   -0.433552
  17 H :    0.092018
  18 H :    0.092993
  19 H :    0.308458
  20 H :    0.297353
  21 H :    0.297651
  22 H :    0.305183
  23 H :    0.303935
Sum of atomic charges:   -0.0000000

LOEWDIN ATOMIC CHARGES
----------------------
   0 C :   -0.142221
   1 C :   -0.069189
   2 H :    0.121244
   3 C :   -0.066298
   4 H :    0.103872
   5 C :   -0.085778
   6 H :    0.110417
   7 C :   -0.087673
   8 H :    0.113615
   9 C :    0.007844
  10 H :    0.101123
  11 O :   -0.139940
  12 O :   -0.317792
  13 O :   -0.317828
  14 O :   -0.324543
  15 O :   -0.319803
  16 O :   -0.323247
  17 H :    0.112887
  18 H :    0.107580
  19 H :    0.277839
  20 H :    0.284627
  21 H :    0.284951
  22 H :    0.283611
  23 H :    0.284703

  Mayer bond orders larger than 0.100000
B(  0-C ,  1-C ) :   1.0484 B(  0-C , 16-O ) :   1.0415 B(  0-C , 17-H ) :   0.9163
B(  0-C , 18-H ) :   0.9174 B(  1-C ,  2-H ) :   0.8802 B(  1-C ,  3-C ) :   1.0003
B(  1-C , 11-O ) :   1.0284 B(  3-C ,  4-H ) :   0.8789 B(  3-C ,  5-C ) :   1.0220
B(  3-C , 15-O ) :   1.0900 B(  5-C ,  6-H ) :   0.8687 B(  5-C ,  7-C ) :   1.0178
B(  5-C , 14-O ) :   1.0647 B(  7-C ,  8-H ) :   0.8817 B(  7-C ,  9-C ) :   0.9737
B(  7-C , 13-O ) :   1.0793 B(  9-C , 10-H ) :   0.8903 B(  9-C , 11-O ) :   1.0661
B(  9-C , 12-O ) :   1.1226 B( 12-O , 19-H ) :   0.7942 B( 13-O , 20-H ) :   0.8490
B( 14-O , 21-H ) :   0.8439 B( 15-O , 22-H ) :   0.8322 B( 16-O , 23-H ) :   0.8424

Dispersion correction           -0.024917506
FINAL SINGLE POINT ENERGY      -685.690720167067

DIPOLE MOMENT
-------------

Method             : SCF
Type of density    : Electron Density
Multiplicity       :   1
Irrep              :   0
Energy             :  -685.8233553346259441 Eh
Relativity type    :
Basis              : AO
                                X                 Y                 Z
Electronic contribution:      1.746710127      -0.186221972       1.278738047
Nuclear contribution   :     -1.259507651       0.848929734      -1.098933912
                        -----------------------------------------
Total Dipole Moment    :      0.487202475       0.662707762       0.179804135
                        -----------------------------------------
Magnitude (a.u.)       :      0.841948548
Magnitude (Debye)      :      2.140063135

Rotational constants in cm-1:             0.042853             0.027977             0.019058
Rotational constants in MHz :          1284.693256           838.719383           571.331172

                             ****ORCA TERMINATED NORMALLY****
TOTAL RUN TIME: 0 days 0 hours 0 minutes 9 seconds 232 msec
