                         Program Version 6.0.1  -  RELEASE   -
|  1> ! pbe def2-sv(p) def2/J RI DEFGRID1 loosescf d4 GCP(DFT/SV(P)) printgap
|  2> %output
|  3>     printlevel normal
|  4> end
|  5> * xyz 0 1
|  6> C -2.5639633558 0.9671546648 4.76007e-05
|  7> C -1.2338700961 0.2813220135 -9.63567e-05
|  8> C -1.1498544891 -1.1097279626 -2.01954e-05
|  9> C 0.1002408389 -1.6988427748 0.0001202077
| 10> N 1.2324885413 -1.0145436825 -5.93086e-05
| 11> C 1.1694343392 0.3089432257 -0.0001630549
| 12> C -0.0443670088 0.9928958643 -4.30523e-05
| 13> C 2.4715953107 1.0480549475 4.19487e-05
| 14> H -3.1342625925 0.6808923407 0.8829955335
| 15> H -2.4467387044 2.0478644707 -0.0057877383
| 16> H -3.1394189532 0.6716706788 -0.8764033564
| 17> H -2.0447936324 -1.7135014416 -7.52566e-05
| 18> H 0.2103299403 -2.7759334997 8.96159e-05
| 19> H -0.0518751208 2.073520147 -3.28944e-05
| 20> H 2.5422672813 1.6910664179 -0.8757578861
| 21> H 2.5504100803 1.6748906326 0.8868624475
| 22> H 3.2917133205 0.3366236722 -0.0097208175
| 23> *
| 24>
| 25>                          ****END OF INPUT****

CARTESIAN COORDINATES (ANGSTROEM)
---------------------------------
  C     -2.563963    0.967155    0.000048
  C     -1.233870    0.281322   -0.000096
  C     -1.149854   -1.109728   -0.000020
  C      0.100241   -1.698843    0.000120
  N      1.232489   -1.014544   -0.000059
  C      1.169434    0.308943   -0.000163
  C     -0.044367    0.992896   -0.000043
  C      2.471595    1.048055    0.000042
  H     -3.134263    0.680892    0.882996
  H     -2.446739    2.047864   -0.005788
  H     -3.139419    0.671671   -0.876403
  H     -2.044794   -1.713501   -0.000075
  H      0.210330   -2.775933    0.000090
  H     -0.051875    2.073520   -0.000033
  H      2.542267    1.691066   -0.875758
  H      2.550410    1.674891    0.886862
  H      3.291713    0.336624   -0.009721

 Total Charge           Charge          ....    0
 Multiplicity           Mult            ....    1
 Number of Electrons    NEL             ....   58
 Basis Dimension        Dim             ....  130

ORBITAL ENERGIES
----------------

  NO   OCC          E(Eh)            E(eV)
   0   2.0000     -13.972853      -380.2207
   1   2.0000      -9.927024      -270.1281
   2   2.0000      -9.915433      -269.8126
   3   2.0000      -9.912863      -269.7427
   4   2.0000      -9.892193      -269.1803
   5   2.0000      -9.891715      -269.1672
   6   2.0000      -9.890745      -269.1409
   7   2.0000      -9.875939      -268.7380
   8   2.0000      -0.853910       -23.2361
   9   2.0000      -0.739215       -20.1151
  10   2.0000      -0.700896       -19.0723
  11   2.0000      -0.640289       -17.4232
  12   2.0000      -0.622759       -16.9461
  13   2.0000      -0.558652       -15.2017
  14   2.0000      -0.517065       -14.0700
  15   2.0000      -0.449972       -12.2444
  16   2.0000      -0.443685       -12.0733
  17   2.0000      -0.403039       -10.9673
  18   2.0000      -0.393722       -10.7137
  19   2.0000      -0.377662       -10.2767
  20   2.0000      -0.367034        -9.9875
  21   2.0000      -0.360324        -9.8049
  22   2.0000      -0.347258        -9.4494
  23   2.0000      -0.330217        -8.9857
  24   2.0000      -0.325338        -8.8529
  25   2.0000      -0.306638        -8.3440
  26   2.0000      -0.245535        -6.6814
  27   2.0000      -0.226373        -6.1599
  28   2.0000      -0.198535        -5.4024
  29   0.0000      -0.044913        -1.2222
  30   0.0000      -0.040033        -1.0894
  31   0.0000       0.045337         1.2337
  32   0.0000       0.063938         1.7398
  33   0.0000       0.073058         1.9880

MULLIKEN ATOMIC CHARGES
-----------------------
   0 C :   -0.219057
   1 C :    0.060041
   2 C :   -0.120431
   3 C :   -0.050326
   4 N :   -0.059346
   5 C :   -0.080758
   6 C :   -0.143263
   7 C :   -0.204680
   8 H :    0.120990
   9 H :    0.104923
  10 H :    0.120771
  11 H :    0.043977
  12 H :    0.063428
  13 H :    0.032838
  14 H :    0.111383
  15 H :    0.111797
  16 H :    0.107713
Sum of atomic charges:    0.0000000

LOEWDIN ATOMIC CHARGES
----------------------
   0 C :   -0.322550
   1 C :   -0.026299
   2 C :   -0.149794
   3 C :   -0.078588
   4 N :   -0.083564
   5 C :   -0.014430
   6 C :   -0.142559
   7 C :   -0.335553
   8 H :    0.136515
   9 H :    0.125635
  10 H :    0.136383
  11 H :    0.123939
  12 H :    0.112664
  13 H :    0.122278
  14 H :    0.132097
  15 H :    0.132390
  16 H :    0.131438

  Mayer bond orders larger than 0.100000
B(  0-C ,  1-C ) :   1.1063 B(  0-C ,  8-H ) :   0.9327 B(  0-C ,  9-H ) :   0.9441
B(  0-C , 10-H ) :   0.9328 B(  1-C ,  2-C ) :   1.3905 B(  1-C ,  6-C ) :   1.4282
B(  2-C ,  3-C ) :   1.3907 B(  2-C , 11-H ) :   0.9495 B(  3-C ,  4-N ) :   1.5223
B(  3-C , 12-H ) :   0.9514 B(  4-N ,  5-C ) :   1.5845 B(  5-C ,  6-C ) :   1.3433
B(  5-C ,  7-C ) :   1.0954 B(  6-C , 13-H ) :   0.9429 B(  7-C , 14-H ) :   0.9365
B(  7-C , 15-H ) :   0.9361 B(  7-C , 16-H ) :   0.9365

Dispersion correction           -0.016217638
FINAL SINGLE POINT ENERGY      -326.185430511440

DIPOLE MOMENT
-------------

Method             : SCF
Type of density    : Electron Density
Multiplicity       :   1
Irrep              :   0
Energy             :  -326.2338448638032560 Eh
Relativity type    :
Basis              : AO
                                X                 Y                 Z
Electronic contribution:      1.350714222      -3.884584073      -0.000659671
Nuclear contribution   :     -2.078198347       4.391720808       0.002035170
                        -----------------------------------------
Total Dipole Moment    :     -0.727484125       0.507136735       0.001375499
                        -----------------------------------------
Magnitude (a.u.)       :      0.886804777
Magnitude (Debye)      :      2.254078608

Rotational constants in cm-1:             0.128292             0.059864             0.041445
Rotational constants in MHz :          3846.103212          1794.679911          1242.491882

                             ****ORCA TERMINATED NORMALLY****
TOTAL RUN TIME: 0 days 0 hours 0 minutes 6 seconds 47 msec
