                         Program Version 6.0.1  -  RELEASE   -
|  1> ! pbe def2-sv(p) def2/J RI DEFGRID1 loosescf d4 GCP(DFT/SV(P)) printgap
|  2> %output
|  3>     printlevel normal
|  4> end
|  5> * xyz 0 1
|  6> C -1.8129072829 -1.4610414761 0.0001123122
|  7> C -0.5225713164 -0.6990306084 1.75192e-05
|  8> C 0.6891167679 -1.3754762444 -8.6656e-05
|  9> C 1.8917433811 -0.6913847686 -0.0001147033
| 10> C 1.8917814541 0.6913231437 0.0001037454
| 11> C 0.6891851503 1.3754481901 0.0001072163
| 12> C -0.5225327024 0.6990424441 1.30478e-05
| 13> C -1.8128113019 1.4611133556 -0.0001343939
| 14> H -2.4062588995 -1.2119504762 0.879614846
| 15> H -2.4061698539 -1.2124357735 -0.8795838955
| 16> H -1.627718806 -2.5322849107 0.000430687
| 17> H 0.6903718316 -2.4567026434 -8.41973e-05
| 18> H 2.8239707375 -1.2370374801 -0.0002265905
| 19> H 2.8240425572 1.2369084495 9.83572e-05
| 20> H 0.6903990104 2.4566767304 0.0001247465
| 21> H -1.6275518818 2.5323154042 -0.0005353262
| 22> H -2.4061428261 1.211971138 -0.8796522885
| 23> H -2.4061680261 1.2126106329 0.8795981134
| 24> *
| 25>
| 26>                          ****END OF INPUT****

CARTESIAN COORDINATES (ANGSTROEM)
---------------------------------
  C     -1.812907   -1.461041    0.000112
  C     -0.522571   -0.699031    0.000018
  C      0.689117   -1.375476   -0.000087
  C      1.891743   -0.691385   -0.000115
  C      1.891781    0.691323    0.000104
  C      0.689185    1.375448    0.000107
  C     -0.522533    0.699042    0.000013
  C     -1.812811    1.461113   -0.000134
  H     -2.406259   -1.211950    0.879615
  H     -2.406170   -1.212436   -0.879584
  H     -1.627719   -2.532285    0.000431
  H      0.690372   -2.456703   -0.000084
  H      2.823971   -1.237037   -0.000227
  H      2.824043    1.236908    0.000098
  H      0.690399    2.456677    0.000125
  H     -1.627552    2.532315   -0.000535
  H     -2.406143    1.211971   -0.879652
  H     -2.406168    1.212611    0.879598

 Total Charge           Charge          ....    0
 Multiplicity           Mult            ....    1
 Number of Electrons    NEL             ....   58
 Basis Dimension        Dim             ....  132

ORBITAL ENERGIES
----------------

  NO   OCC          E(Eh)            E(eV)
   0   2.0000      -9.896470      -269.2966
   1   2.0000      -9.896323      -269.2927
   2   2.0000      -9.882897      -268.9273
   3   2.0000      -9.882844      -268.9259
   4   2.0000      -9.882470      -268.9157
   5   2.0000      -9.882385      -268.9134
   6   2.0000      -9.882148      -268.9069
   7   2.0000      -9.881909      -268.9004
   8   2.0000      -0.776097       -21.1187
   9   2.0000      -0.698083       -18.9958
  10   2.0000      -0.683475       -18.5983
  11   2.0000      -0.621810       -16.9203
  12   2.0000      -0.600165       -16.3313
  13   2.0000      -0.531165       -14.4537
  14   2.0000      -0.507483       -13.8093
  15   2.0000      -0.447327       -12.1724
  16   2.0000      -0.421312       -11.4645
  17   2.0000      -0.391794       -10.6613
  18   2.0000      -0.390636       -10.6297
  19   2.0000      -0.363127        -9.8812
  20   2.0000      -0.357045        -9.7157
  21   2.0000      -0.355447        -9.6722
  22   2.0000      -0.341878        -9.3030
  23   2.0000      -0.337834        -9.1929
  24   2.0000      -0.310700        -8.4546
  25   2.0000      -0.290188        -7.8964
  26   2.0000      -0.288654        -7.8547
  27   2.0000      -0.218636        -5.9494
  28   2.0000      -0.210454        -5.7267
  29   0.0000      -0.026382        -0.7179
  30   0.0000      -0.024642        -0.6706
  31   0.0000       0.041095         1.1183
  32   0.0000       0.052120         1.4182
  33   0.0000       0.070699         1.9238

MULLIKEN ATOMIC CHARGES
-----------------------
   0 C :   -0.208507
   1 C :   -0.010019
   2 C :   -0.138773
   3 C :   -0.041389
   4 C :   -0.041379
   5 C :   -0.138755
   6 C :   -0.010027
   7 C :   -0.208530
   8 H :    0.109191
   9 H :    0.109205
  10 H :    0.100965
  11 H :    0.032929
  12 H :    0.046395
  13 H :    0.046394
  14 H :    0.032930
  15 H :    0.100961
  16 H :    0.109194
  17 H :    0.109216
Sum of atomic charges:    0.0000000

LOEWDIN ATOMIC CHARGES
----------------------
   0 C :   -0.321402
   1 C :   -0.048097
   2 C :   -0.125544
   3 C :   -0.128881
   4 C :   -0.128882
   5 C :   -0.125543
   6 C :   -0.048102
   7 C :   -0.321397
   8 H :    0.129572
   9 H :    0.129576
  10 H :    0.124206
  11 H :    0.119173
  12 H :    0.121398
  13 H :    0.121399
  14 H :    0.119173
  15 H :    0.124206
  16 H :    0.129571
  17 H :    0.129573

  Mayer bond orders larger than 0.100000
B(  0-C ,  1-C ) :   1.1444 B(  0-C ,  8-H ) :   0.9234 B(  0-C ,  9-H ) :   0.9234
B(  0-C , 10-H ) :   0.9369 B(  1-C ,  2-C ) :   1.4059 B(  1-C ,  6-C ) :   1.4011
B(  2-C ,  3-C ) :   1.3623 B(  2-C , 11-H ) :   0.9578 B(  3-C ,  4-C ) :   1.3757
B(  3-C , 12-H ) :   0.9643 B(  4-C ,  5-C ) :   1.3622 B(  4-C , 13-H ) :   0.9644
B(  5-C ,  6-C ) :   1.4059 B(  5-C , 14-H ) :   0.9578 B(  6-C ,  7-C ) :   1.1444
B(  7-C , 15-H ) :   0.9369 B(  7-C , 16-H ) :   0.9234 B(  7-C , 17-H ) :   0.9234

Dispersion correction           -0.017918497
FINAL SINGLE POINT ENERGY      -310.159784149402

DIPOLE MOMENT
-------------

Method             : SCF
Type of density    : Electron Density
Multiplicity       :   1
Irrep              :   0
Energy             :  -310.2093553557470500 Eh
Relativity type    :
Basis              : AO
                                X                 Y                 Z
Electronic contribution:      5.226890108      -0.000064177       0.000163734
Nuclear contribution   :     -5.489430681       0.000066677      -0.000202220
                        -----------------------------------------
Total Dipole Moment    :     -0.262540573       0.000002499      -0.000038486
                        -----------------------------------------
Magnitude (a.u.)       :      0.262540576
Magnitude (Debye)      :      0.667325111

Rotational constants in cm-1:             0.107256             0.072748             0.044054
Rotational constants in MHz :          3215.442617          2180.919407          1320.697443

                             ****ORCA TERMINATED NORMALLY****
TOTAL RUN TIME: 0 days 0 hours 0 minutes 13 seconds 414 msec
