                         Program Version 6.0.1  -  RELEASE   -
|  1> ! r2scan-3c def2/J RI DEFGRID2 scfconv6 printgap
|  2> %output
|  3>     printlevel normal
|  4> end
|  5> * xyz 0 1
|  6> C -2.1827660945 0.1342164001 -0.6602370023
|  7> C -1.4011390607 -0.2779053537 0.5788705961
|  8> O -0.1048562863 -0.7728060681 0.2384523232
|  9> C 0.8643145512 0.1289195429 0.0459036765
| 10> O 0.7155943158 1.3151307574 0.1718558307
| 11> C 2.1514453998 -0.5461585856 -0.3505276925
| 12> H -2.255698917 -0.6997109737 -1.3543131613
| 13> H -3.1826076038 0.4466158885 -0.3730696676
| 14> H -1.6831685423 0.9639159104 -1.1542575597
| 15> H -1.8923087117 -1.1030141166 1.0987336615
| 16> H -1.2868785485 0.5757446102 1.2550483205
| 17> H 2.2097829014 -0.5671054102 -1.4372468352
| 18> H 2.1722309635 -1.5648500315 0.0231194377
| 19> H 2.9943008239 0.0240431038 0.0285486414
| 20> *
| 21>
| 22>                          ****END OF INPUT****

CARTESIAN COORDINATES (ANGSTROEM)
---------------------------------
  C     -2.182766    0.134216   -0.660237
  C     -1.401139   -0.277905    0.578871
  O     -0.104856   -0.772806    0.238452
  C      0.864315    0.128920    0.045904
  O      0.715594    1.315131    0.171856
  C      2.151445   -0.546159   -0.350528
  H     -2.255699   -0.699711   -1.354313
  H     -3.182608    0.446616   -0.373070
  H     -1.683169    0.963916   -1.154258
  H     -1.892309   -1.103014    1.098734
  H     -1.286879    0.575745    1.255048
  H      2.209783   -0.567105   -1.437247
  H      2.172231   -1.564850    0.023119
  H      2.994301    0.024043    0.028549

 Total Charge           Charge          ....    0
 Multiplicity           Mult            ....    1
 Number of Electrons    NEL             ....   48
 Basis Dimension        Dim             ....  164

ORBITAL ENERGIES
----------------

  NO   OCC          E(Eh)            E(eV)
   0   2.0000     -18.996414      -516.9187
   1   2.0000     -18.931224      -515.1448
   2   2.0000     -10.156067      -276.3606
   3   2.0000     -10.089878      -274.5595
   4   2.0000     -10.039117      -273.1783
   5   2.0000     -10.027668      -272.8667
   6   2.0000      -1.072740       -29.1908
   7   2.0000      -0.982687       -26.7403
   8   2.0000      -0.752340       -20.4722
   9   2.0000      -0.704616       -19.1736
  10   2.0000      -0.620671       -16.8893
  11   2.0000      -0.523978       -14.2582
  12   2.0000      -0.470653       -12.8071
  13   2.0000      -0.453230       -12.3330
  14   2.0000      -0.439733       -11.9657
  15   2.0000      -0.403611       -10.9828
  16   2.0000      -0.396003       -10.7758
  17   2.0000      -0.378063       -10.2876
  18   2.0000      -0.367157        -9.9908
  19   2.0000      -0.343627        -9.3506
  20   2.0000      -0.334799        -9.1103
  21   2.0000      -0.308130        -8.3846
  22   2.0000      -0.273049        -7.4300
  23   2.0000      -0.239819        -6.5258
  24   0.0000      -0.013558        -0.3689
  25   0.0000       0.078184         2.1275
  26   0.0000       0.095776         2.6062
  27   0.0000       0.123163         3.3514
  28   0.0000       0.127043         3.4570

MULLIKEN ATOMIC CHARGES
-----------------------
   0 C :   -0.469978
   1 C :   -0.135309
   2 O :   -0.177594
   3 C :    0.429285
   4 O :   -0.422624
   5 C :   -0.520534
   6 H :    0.150762
   7 H :    0.146057
   8 H :    0.173237
   9 H :    0.147065
  10 H :    0.164142
  11 H :    0.172826
  12 H :    0.169678
  13 H :    0.172987
Sum of atomic charges:    0.0000000

LOEWDIN ATOMIC CHARGES
----------------------
   0 C :   -0.391568
   1 C :    0.024574
   2 O :   -0.600508
   3 C :    0.353239
   4 O :   -0.424712
   5 C :   -0.337618
   6 H :    0.156489
   7 H :    0.159015
   8 H :    0.165733
   9 H :    0.177322
  10 H :    0.187289
  11 H :    0.180492
  12 H :    0.174707
  13 H :    0.175548

  Mayer bond orders larger than 0.100000
B(  0-C ,  1-C ) :   0.9334 B(  0-C ,  6-H ) :   0.9737 B(  0-C ,  7-H ) :   0.9650
B(  0-C ,  8-H ) :   0.9716 B(  1-C ,  2-O ) :   0.8300 B(  1-C ,  9-H ) :   0.9608
B(  1-C , 10-H ) :   0.9673 B(  2-O ,  3-C ) :   1.0425 B(  3-C ,  4-O ) :   1.8487
B(  3-C ,  5-C ) :   0.9527 B(  5-C , 11-H ) :   0.9357 B(  5-C , 12-H ) :   0.9771
B(  5-C , 13-H ) :   0.9753

Dispersion correction           -0.002993090
FINAL SINGLE POINT ENERGY      -307.638083491276

DIPOLE MOMENT
-------------

Method             : SCF
Type of density    : Electron Density
Multiplicity       :   1
Irrep              :   0
Energy             :  -307.6442602398436179 Eh
Relativity type    :
Basis              : AO
                                X                 Y                 Z
Electronic contribution:      2.508925623       1.097558042       1.696208263
Nuclear contribution   :     -2.734475695      -1.797334513      -1.789043050
                        -----------------------------------------
Total Dipole Moment    :     -0.225550072      -0.699776472      -0.092834787
                        -----------------------------------------
Magnitude (a.u.)       :      0.741065613
Magnitude (Debye)      :      1.883639093

Rotational constants in cm-1:             0.246091             0.077938             0.069069
Rotational constants in MHz :          7377.619561          2336.513963          2070.634969

                             ****ORCA TERMINATED NORMALLY****
TOTAL RUN TIME: 0 days 0 hours 0 minutes 27 seconds 69 msec
