                         Program Version 6.0.0  -   RELEASE  -
|  1> ! r2SCAN-3c DEF2-TZVP FREQ
|  2> * xyzfile 0 1 censo.xyz
|  3>
|  4>                          ****END OF INPUT****

CARTESIAN COORDINATES (ANGSTROEM)
---------------------------------
  C     -0.174773   -2.339490    0.220912
  C      0.503204   -1.006581    0.119141
  C      1.899983   -0.946940    0.181761
  C      2.596421    0.250876    0.076208
  C      1.912844    1.449020   -0.121487
  C      0.532098    1.433437   -0.217047
  C     -0.147908    0.222448   -0.083835
  N     -1.606540    0.290721   -0.171171
  O     -2.273410   -0.552879    0.425789
  O     -2.106309    1.203033   -0.832651
  H      0.569741   -3.130976    0.114657
  H     -0.670373   -2.459510    1.188544
  H     -0.939343   -2.469473   -0.549780
  H      2.447209   -1.874890    0.314440
  H      3.679399    0.247959    0.143564
  H      2.450330    2.387226   -0.201819
  H     -0.027193    2.348360   -0.368411

 Total Charge           Charge          ....    0
 Multiplicity           Mult            ....    1
 Number of Electrons    NEL             ....   72
 Basis Dimension        Dim             ....  352

ORBITAL ENERGIES
----------------

  NO   OCC          E(Eh)            E(eV)
   0   2.0000     -18.983036      -516.5547
   1   2.0000     -18.981159      -516.5036
   2   2.0000     -14.391242      -391.6056
   3   2.0000     -10.104647      -274.9614
   4   2.0000     -10.083844      -274.3954
   5   2.0000     -10.067536      -273.9516
   6   2.0000     -10.064918      -273.8804
   7   2.0000     -10.061304      -273.7820
   8   2.0000     -10.060790      -273.7680
   9   2.0000     -10.044021      -273.3117
  10   2.0000      -1.187949       -32.3257
  11   2.0000      -1.012999       -27.5651
  12   2.0000      -0.863161       -23.4878
  13   2.0000      -0.778530       -21.1849
  14   2.0000      -0.765411       -20.8279
  15   2.0000      -0.693008       -18.8577
  16   2.0000      -0.655513       -17.8374
  17   2.0000      -0.594540       -16.1782
  18   2.0000      -0.566229       -15.4079
  19   2.0000      -0.520624       -14.1669
  20   2.0000      -0.503531       -13.7018
  21   2.0000      -0.482680       -13.1344
  22   2.0000      -0.474109       -12.9012
  23   2.0000      -0.450245       -12.2518
  24   2.0000      -0.430245       -11.7076
  25   2.0000      -0.407671       -11.0933
  26   2.0000      -0.405382       -11.0310
  27   2.0000      -0.376370       -10.2416
  28   2.0000      -0.358266        -9.7489
  29   2.0000      -0.350644        -9.5415
  30   2.0000      -0.342338        -9.3155
  31   2.0000      -0.287717        -7.8292
  32   2.0000      -0.277035        -7.5385
  33   2.0000      -0.272798        -7.4232
  34   2.0000      -0.256065        -6.9679
  35   2.0000      -0.249107        -6.7786
  36   0.0000      -0.118521        -3.2251
  37   0.0000      -0.057529        -1.5655
  38   0.0000      -0.040413        -1.0997
  39   0.0000       0.043108         1.1730
  40   0.0000       0.057287         1.5589

MULLIKEN ATOMIC CHARGES
-----------------------
   0 C :   -0.306315
   1 C :    0.001778
   2 C :   -0.132927
   3 C :   -0.103790
   4 C :   -0.079965
   5 C :   -0.169608
   6 C :    0.088999
   7 N :    0.503063
   8 O :   -0.333104
   9 O :   -0.339381
  10 H :    0.104928
  11 H :    0.137184
  12 H :    0.131829
  13 H :    0.112453
  14 H :    0.120885
  15 H :    0.122838
  16 H :    0.141134
Sum of atomic charges:   -0.0000000

LOEWDIN ATOMIC CHARGES
----------------------
   0 C :   -0.247406
   1 C :   -0.124138
   2 C :   -0.103932
   3 C :   -0.117275
   4 C :   -0.131359
   5 C :   -0.090777
   6 C :   -0.130197
   7 N :   -0.022511
   8 O :   -0.014046
   9 O :   -0.026358
  10 H :    0.127086
  11 H :    0.139639
  12 H :    0.135571
  13 H :    0.150175
  14 H :    0.148166
  15 H :    0.148296
  16 H :    0.159066

  Mayer bond orders larger than 0.100000
B(  0-C ,  1-C ) :   0.9721 B(  0-C , 10-H ) :   0.9671 B(  0-C , 11-H ) :   0.9491
B(  0-C , 12-H ) :   0.9635 B(  1-C ,  2-C ) :   1.3800 B(  1-C ,  6-C ) :   1.2955
B(  2-C ,  3-C ) :   1.4089 B(  2-C , 13-H ) :   0.9683 B(  3-C ,  4-C ) :   1.3641
B(  3-C , 14-H ) :   0.9684 B(  4-C ,  5-C ) :   1.4132 B(  4-C , 15-H ) :   0.9680
B(  5-C ,  6-C ) :   1.3947 B(  5-C , 16-H ) :   0.9543 B(  6-C ,  7-N ) :   0.9182
B(  7-N ,  8-O ) :   1.4973 B(  7-N ,  9-O ) :   1.5128 B(  8-O ,  9-O ) :   0.2219

Dispersion correction           -0.005997153
FINAL SINGLE POINT ENERGY      -476.007575897028

DIPOLE MOMENT
-------------

Method             : SCF
Type of density    : Electron Density
Multiplicity       :   1
Irrep              :   0
Energy             :  -476.0122761374732931 Eh
Relativity type    :
Basis              : AO
                                X                 Y                 Z
Electronic contribution:     -5.248710055       4.259871612      -0.744540184
Nuclear contribution   :      6.946030868      -4.548572655       0.890718827
                        -----------------------------------------
Total Dipole Moment    :      1.697320814      -0.288701043       0.146178643
                        -----------------------------------------
Magnitude (a.u.)       :      1.727893062
Magnitude (Debye)      :      4.391955128

VIBRATIONAL FREQUENCIES
-----------------------

Scaling factor for frequencies =  1.000000000  (already applied!)

     0:       0.00 cm**-1
     1:       0.00 cm**-1
     2:       0.00 cm**-1
     3:       0.00 cm**-1
     4:       0.00 cm**-1
     5:       0.00 cm**-1
     6:      85.49 cm**-1
     7:     138.75 cm**-1
     8:     221.03 cm**-1
     9:     240.09 cm**-1
    10:     261.88 cm**-1
    11:     361.07 cm**-1
    12:     395.38 cm**-1
    13:     436.59 cm**-1
    14:     490.10 cm**-1
    15:     547.99 cm**-1
    16:     577.64 cm**-1
    17:     682.87 cm**-1
    18:     712.82 cm**-1
    19:     741.02 cm**-1
    20:     807.97 cm**-1
    21:     811.93 cm**-1
    22:     874.94 cm**-1
    23:     879.64 cm**-1
    24:     958.08 cm**-1
    25:     981.82 cm**-1
    26:    1015.74 cm**-1
    27:    1054.16 cm**-1
    28:    1070.10 cm**-1
    29:    1111.18 cm**-1
    30:    1173.21 cm**-1
    31:    1188.03 cm**-1
    32:    1222.94 cm**-1
    33:    1301.52 cm**-1
    34:    1342.21 cm**-1
    35:    1353.82 cm**-1
    36:    1408.38 cm**-1
    37:    1452.29 cm**-1
    38:    1474.77 cm**-1
    39:    1491.42 cm**-1
    40:    1500.59 cm**-1
    41:    1532.86 cm**-1
    42:    1608.21 cm**-1
    43:    1639.34 cm**-1
    44:    3025.36 cm**-1
    45:    3095.79 cm**-1
    46:    3112.81 cm**-1
    47:    3163.43 cm**-1
    48:    3176.31 cm**-1
    49:    3188.27 cm**-1
    50:    3209.71 cm**-1

IR SPECTRUM
-----------

 Mode   freq       eps      Int      T**2         TX        TY        TZ
       cm**-1   L/(mol*cm) km/mol    a.u.
----------------------------------------------------------------------------
  6:     85.49   0.000083    0.42  0.000304  (-0.016423  0.002869 -0.005080)
  7:    138.75   0.000282    1.43  0.000634  ( 0.006509 -0.006390 -0.023478)
  8:    221.03   0.000271    1.37  0.000383  ( 0.000621 -0.007047  0.018238)
  9:    240.09   0.000056    0.28  0.000073  (-0.007835  0.003332 -0.000232)
 10:    261.88   0.000525    2.65  0.000626  ( 0.002093 -0.024369 -0.005237)
 11:    361.07   0.000225    1.14  0.000194  (-0.013882  0.001228  0.000200)
 12:    395.38   0.000068    0.34  0.000053  (-0.002954 -0.006685 -0.000038)
 13:    436.59   0.000201    1.01  0.000143  (-0.007215 -0.002271  0.009284)
 14:    490.10   0.001005    5.08  0.000640  ( 0.005949 -0.007353 -0.023459)
 15:    547.99   0.000038    0.19  0.000022  (-0.000384 -0.004264  0.001793)
 16:    577.64   0.000109    0.55  0.000059  ( 0.005967  0.004775  0.000776)
 17:    682.87   0.001293    6.54  0.000591  (-0.023796  0.002064 -0.004536)
 18:    712.82   0.000291    1.47  0.000127  ( 0.011162  0.000218 -0.001627)
 19:    741.02   0.012302   62.17  0.005181  (-0.000194 -0.011561 -0.071044)
 20:    807.97   0.001843    9.31  0.000712  (-0.013719  0.006621 -0.021900)
 21:    811.93   0.000673    3.40  0.000259  (-0.013734  0.001748  0.008185)
 22:    874.94   0.000159    0.80  0.000057  ( 0.006899 -0.000460  0.002965)
 23:    879.64   0.004015   20.29  0.001425  ( 0.037659 -0.001620  0.001933)
 24:    958.08   0.000321    1.62  0.000105  ( 0.006445  0.000748  0.007901)
 25:    981.82   0.000057    0.29  0.000018  (-0.004196 -0.000376  0.000706)
 26:   1015.74   0.000191    0.97  0.000059  ( 0.006506 -0.003777 -0.001453)
 27:   1054.16   0.000613    3.10  0.000181  ( 0.001876 -0.005280  0.012251)
 28:   1070.10   0.000535    2.70  0.000156  (-0.006263 -0.010800  0.000374)
 29:   1111.18   0.001540    7.78  0.000433  (-0.017280 -0.010684  0.004457)
 30:   1173.21   0.001263    6.38  0.000336  (-0.009979  0.014699 -0.004517)
 31:   1188.03   0.000530    2.68  0.000139  (-0.010187  0.005862 -0.001080)
 32:   1222.94   0.001656    8.37  0.000423  (-0.019947  0.004897 -0.000851)
 33:   1301.52   0.000204    1.03  0.000049  (-0.001324  0.006516  0.002171)
 34:   1342.21   0.037351  188.76  0.008684  ( 0.088928 -0.024778  0.012726)
 35:   1353.82   0.018994   95.99  0.004378  (-0.065433 -0.009628 -0.002033)
 36:   1408.38   0.001167    5.90  0.000259  ( 0.008787  0.012475 -0.005080)
 37:   1452.29   0.004348   21.97  0.000934  ( 0.007003 -0.023653  0.018050)
 38:   1474.77   0.000753    3.81  0.000159  (-0.002498 -0.007704 -0.009682)
 39:   1491.42   0.002560   12.94  0.000536  ( 0.018197 -0.012822 -0.006340)
 40:   1500.59   0.005945   30.04  0.001236  (-0.010923  0.019153 -0.027390)
 41:   1532.86   0.041957  212.03  0.008542  ( 0.015925  0.073985 -0.053050)
 42:   1608.21   0.002069   10.46  0.000401  (-0.011948  0.012550 -0.010059)
 43:   1639.34   0.003764   19.02  0.000717  ( 0.013605  0.021033 -0.009436)
 44:   3025.36   0.002283   11.54  0.000236  ( 0.001642  0.015228  0.000967)
 45:   3095.79   0.000976    4.93  0.000098  ( 0.001679  0.002990  0.009305)
 46:   3112.81   0.003536   17.87  0.000355  ( 0.011868 -0.014532  0.001569)
 47:   3163.43   0.000533    2.69  0.000053  (-0.001080 -0.007141  0.000639)
 48:   3176.31   0.001982   10.01  0.000195  ( 0.007502 -0.011619  0.001845)
 49:   3188.27   0.001780    9.00  0.000174  ( 0.012260  0.004890 -0.000147)
 50:   3209.71   0.000391    1.98  0.000038  ( 0.006033  0.000027  0.001280)

--------------------------
THERMOCHEMISTRY AT 298.15K
--------------------------

Temperature         ...   298.15 K
Pressure            ...     1.00 atm
Total Mass          ...   137.14 AMU
Quasi RRHO          ...     True
Cut-Off Frequency   ...     1.00 cm^-1

Throughout the following assumptions are being made:
  (1) The electronic state is orbitally nondegenerate
  (2) There are no thermally accessible electronically excited states
  (3) Hindered rotations indicated by low frequency modes are not
      treated as such but are treated as vibrations and this may
      cause some error
  (4) All equations used are the standard statistical mechanics
      equations for an ideal gas
  (5) All vibrations are strictly harmonic

freq.      85.49  E(vib)   ...       0.48
freq.     138.75  E(vib)   ...       0.42
freq.     221.03  E(vib)   ...       0.33
freq.     240.09  E(vib)   ...       0.31
freq.     261.88  E(vib)   ...       0.29
freq.     361.07  E(vib)   ...       0.22
freq.     395.38  E(vib)   ...       0.20
freq.     436.59  E(vib)   ...       0.17
freq.     490.10  E(vib)   ...       0.15
freq.     547.99  E(vib)   ...       0.12
freq.     577.64  E(vib)   ...       0.11
freq.     682.87  E(vib)   ...       0.08
freq.     712.82  E(vib)   ...       0.07
freq.     741.02  E(vib)   ...       0.06
freq.     807.97  E(vib)   ...       0.05
freq.     811.93  E(vib)   ...       0.05
freq.     874.94  E(vib)   ...       0.04
freq.     879.64  E(vib)   ...       0.04
freq.     958.08  E(vib)   ...       0.03
freq.     981.82  E(vib)   ...       0.02
freq.    1015.74  E(vib)   ...       0.02
freq.    1054.16  E(vib)   ...       0.02
freq.    1070.10  E(vib)   ...       0.02
freq.    1111.18  E(vib)   ...       0.01
freq.    1173.21  E(vib)   ...       0.01
freq.    1188.03  E(vib)   ...       0.01
freq.    1222.94  E(vib)   ...       0.01
freq.    1301.52  E(vib)   ...       0.01
freq.    1342.21  E(vib)   ...       0.01
freq.    1353.82  E(vib)   ...       0.01
freq.    1408.38  E(vib)   ...       0.00
freq.    1452.29  E(vib)   ...       0.00
freq.    1474.77  E(vib)   ...       0.00
freq.    1491.42  E(vib)   ...       0.00
freq.    1500.59  E(vib)   ...       0.00
freq.    1532.86  E(vib)   ...       0.00
freq.    1608.21  E(vib)   ...       0.00
freq.    1639.34  E(vib)   ...       0.00
freq.    3025.36  E(vib)   ...       0.00
freq.    3095.79  E(vib)   ...       0.00
freq.    3112.81  E(vib)   ...       0.00
freq.    3163.43  E(vib)   ...       0.00
freq.    3176.31  E(vib)   ...       0.00
freq.    3188.27  E(vib)   ...       0.00
freq.    3209.71  E(vib)   ...       0.00

------------
INNER ENERGY
------------

The inner energy is: U= E(el) + E(ZPE) + E(vib) + E(rot) + E(trans)
    E(el)   - is the total energy from the electronic structure calculation
              = E(kin-el) + E(nuc-el) + E(el-el) + E(nuc-nuc)
    E(ZPE)  - the the zero temperature vibrational energy from the frequency calculation
    E(vib)  - the the finite temperature correction to E(ZPE) due to population
              of excited vibrational states
    E(rot)  - is the rotational thermal energy
    E(trans)- is the translational thermal energy

Summary of contributions to the inner energy U:
Electronic energy                ...   -476.00757590 Eh
Zero point energy                ...      0.13012786 Eh      81.66 kcal/mol
Thermal vibrational correction   ...      0.00537140 Eh       3.37 kcal/mol
Thermal rotational correction    ...      0.00141627 Eh       0.89 kcal/mol
Thermal translational correction ...      0.00141627 Eh       0.89 kcal/mol
-----------------------------------------------------------------------
Total thermal energy                   -475.86924410 Eh

Summary of corrections to the electronic energy:
(perhaps to be used in another calculation)
Total thermal correction                  0.00820394 Eh       5.15 kcal/mol
Non-thermal (ZPE) correction              0.13012786 Eh      81.66 kcal/mol
-----------------------------------------------------------------------
Total correction                          0.13833180 Eh      86.80 kcal/mol

--------
ENTHALPY
--------

The enthalpy is H = U + kB*T
                kB is Boltzmann's constant
Total thermal energy              ...   -475.86924410 Eh
Thermal Enthalpy correction       ...      0.00094421 Eh       0.59 kcal/mol
-----------------------------------------------------------------------
Total Enthalpy                    ...   -475.86829989 Eh

Note: Only C1 symmetry has been detected, increase convergence thresholds
      if your molecule has a higher symmetry. Symmetry factor of 1.0 is
      used for the rotational entropy correction.

Note: Rotational entropy computed according to Herzberg
Infrared and Raman Spectra, Chapter V,1, Van Nostrand Reinhold, 1945
Point Group:  C1, Symmetry Number:   1
Rotational constants in cm-1:     0.075489     0.041868     0.027728

Vibrational entropy computed according to the QRRHO of S. Grimme
Chem.Eur.J. 2012 18 9955 using a reference frequency of 100.0 cm-1

-------
ENTROPY
-------

The entropy contributions are T*S = T*(S(el)+S(vib)+S(rot)+S(trans))
     S(el)   - electronic entropy
     S(vib)  - vibrational entropy
     S(rot)  - rotational entropy
     S(trans)- translational entropy
The entropies will be listed as multiplied by the temperature to get
units of energy

Electronic entropy                ...      0.00000000 Eh      0.00 kcal/mol
Vibrational entropy               ...      0.00878749 Eh      5.51 kcal/mol
Rotational entropy                ...      0.01392123 Eh      8.74 kcal/mol
Translational entropy             ...      0.01931853 Eh     12.12 kcal/mol
-----------------------------------------------------------------------
Final entropy term                ...      0.04202725 Eh     26.37 kcal/mol

In case the symmetry of your molecule has not been determined correctly
or in case you have a reason to use a different symmetry number we print
out the resulting rotational entropy values for sn=1,12:

 non-linear molecules -----------------------------------
|  sn= 1 | S(rot)=       0.01392123 Eh      8.74 kcal/mol|
|  sn= 2 | S(rot)=       0.01326678 Eh      8.33 kcal/mol|
|  sn= 3 | S(rot)=       0.01288394 Eh      8.08 kcal/mol|
|  sn= 4 | S(rot)=       0.01261232 Eh      7.91 kcal/mol|
|  sn= 5 | S(rot)=       0.01240163 Eh      7.78 kcal/mol|
|  sn= 6 | S(rot)=       0.01222949 Eh      7.67 kcal/mol|
|  sn= 7 | S(rot)=       0.01208394 Eh      7.58 kcal/mol|
|  sn= 8 | S(rot)=       0.01195786 Eh      7.50 kcal/mol|
|  sn= 9 | S(rot)=       0.01184666 Eh      7.43 kcal/mol|
|  sn=10 | S(rot)=       0.01174718 Eh      7.37 kcal/mol|
|  sn=11 | S(rot)=       0.01165719 Eh      7.31 kcal/mol|
|  sn=12 | S(rot)=       0.01157503 Eh      7.26 kcal/mol|
 linear molecules ---------------------------------------
|  Dinfh | S(rot)=       0.00871100 Eh      5.47 kcal/mol|
|  Cinfv | S(rot)=       0.00936545 Eh      5.88 kcal/mol|

                             ****ORCA TERMINATED NORMALLY****
TOTAL RUN TIME: 0 days 0 hours 17 minutes 54 seconds 908 msec
