                         Program Version 6.0.0  -   RELEASE  -
|  1> ! r2SCAN-3c DEF2-TZVP FREQ
|  2> * xyzfile 0 1 vacuum_censo.xyz
|  3>
|  4>                          ****END OF INPUT****

CARTESIAN COORDINATES (ANGSTROEM)
---------------------------------
  C     -0.206409   -2.330125   -0.144418
  C      0.489221   -1.003264   -0.043366
  C      1.888179   -0.965442   -0.039823
  C      2.598415    0.225684    0.038531
  C      1.923285    1.441623    0.092419
  C      0.538167    1.449277    0.064982
  C     -0.154213    0.242395    0.013511
  N     -1.627429    0.337519    0.021580
  O     -2.129763    1.368537   -0.410679
  O     -2.259731   -0.610757    0.473456
  H     -0.676017   -2.602802    0.803936
  H     -1.002797   -2.317686   -0.892183
  H      0.518742   -3.101230   -0.414468
  H      2.427345   -1.905803   -0.101255
  H      3.683252    0.203647    0.050455
  H      2.469659    2.376431    0.150392
  H     -0.024259    2.374221    0.091317

 Total Charge           Charge          ....    0
 Multiplicity           Mult            ....    1
 Number of Electrons    NEL             ....   72
 Basis Dimension        Dim             ....  352

ORBITAL ENERGIES
----------------

  NO   OCC          E(Eh)            E(eV)
   0   2.0000     -18.984583      -516.5968
   1   2.0000     -18.983401      -516.5646
   2   2.0000     -14.392840      -391.6491
   3   2.0000     -10.102915      -274.9143
   4   2.0000     -10.082686      -274.3638
   5   2.0000     -10.066099      -273.9125
   6   2.0000     -10.063672      -273.8464
   7   2.0000     -10.060532      -273.7610
   8   2.0000     -10.059814      -273.7415
   9   2.0000     -10.043071      -273.2859
  10   2.0000      -1.192335       -32.4451
  11   2.0000      -1.019667       -27.7465
  12   2.0000      -0.861892       -23.4533
  13   2.0000      -0.775985       -21.1156
  14   2.0000      -0.763690       -20.7811
  15   2.0000      -0.691095       -18.8057
  16   2.0000      -0.654481       -17.8093
  17   2.0000      -0.593649       -16.1540
  18   2.0000      -0.566516       -15.4157
  19   2.0000      -0.521628       -14.1942
  20   2.0000      -0.505680       -13.7602
  21   2.0000      -0.483763       -13.1639
  22   2.0000      -0.474107       -12.9011
  23   2.0000      -0.451135       -12.2760
  24   2.0000      -0.429550       -11.6886
  25   2.0000      -0.406644       -11.0653
  26   2.0000      -0.404150       -10.9975
  27   2.0000      -0.375770       -10.2252
  28   2.0000      -0.357625        -9.7315
  29   2.0000      -0.350739        -9.5441
  30   2.0000      -0.340853        -9.2751
  31   2.0000      -0.290678        -7.9097
  32   2.0000      -0.276913        -7.5352
  33   2.0000      -0.272629        -7.4186
  34   2.0000      -0.255228        -6.9451
  35   2.0000      -0.251798        -6.8518
  36   0.0000      -0.116796        -3.1782
  37   0.0000      -0.056610        -1.5404
  38   0.0000      -0.039613        -1.0779
  39   0.0000       0.043431         1.1818
  40   0.0000       0.057588         1.5671

MULLIKEN ATOMIC CHARGES
-----------------------
   0 C :   -0.305416
   1 C :    0.000332
   2 C :   -0.134055
   3 C :   -0.102105
   4 C :   -0.084245
   5 C :   -0.165131
   6 C :    0.078914
   7 N :    0.513000
   8 O :   -0.337739
   9 O :   -0.332507
  10 H :    0.136756
  11 H :    0.130892
  12 H :    0.104647
  13 H :    0.111776
  14 H :    0.120519
  15 H :    0.122136
  16 H :    0.142224
Sum of atomic charges:   -0.0000000

LOEWDIN ATOMIC CHARGES
----------------------
   0 C :   -0.247978
   1 C :   -0.125128
   2 C :   -0.104296
   3 C :   -0.118601
   4 C :   -0.131432
   5 C :   -0.093017
   6 C :   -0.127641
   7 N :   -0.029043
   8 O :   -0.018748
   9 O :   -0.009948
  10 H :    0.138982
  11 H :    0.134876
  12 H :    0.126616
  13 H :    0.150122
  14 H :    0.148152
  15 H :    0.148171
  16 H :    0.158914

  Mayer bond orders larger than 0.100000
B(  0-C ,  1-C ) :   0.9719 B(  0-C , 10-H ) :   0.9493 B(  0-C , 11-H ) :   0.9643
B(  0-C , 12-H ) :   0.9666 B(  1-C ,  2-C ) :   1.3809 B(  1-C ,  6-C ) :   1.2994
B(  2-C ,  3-C ) :   1.4089 B(  2-C , 13-H ) :   0.9686 B(  3-C ,  4-C ) :   1.3675
B(  3-C , 14-H ) :   0.9689 B(  4-C ,  5-C ) :   1.4102 B(  4-C , 15-H ) :   0.9686
B(  5-C ,  6-C ) :   1.4040 B(  5-C , 16-H ) :   0.9502 B(  6-C ,  7-N ) :   0.9120
B(  7-N ,  8-O ) :   1.5193 B(  7-N ,  9-O ) :   1.5022 B(  8-O ,  9-O ) :   0.2237

Dispersion correction           -0.005996273
FINAL SINGLE POINT ENERGY      -476.007971772711

DIPOLE MOMENT
-------------

Method             : SCF
Type of density    : Electron Density
Multiplicity       :   1
Irrep              :   0
Energy             :  -476.0126572298957512 Eh
Relativity type    :
Basis              : AO
                                X                 Y                 Z
Electronic contribution:     -5.250462398       4.370277175       0.319140917
Nuclear contribution   :      6.892256231      -4.679162873      -0.328752987
                        -----------------------------------------
Total Dipole Moment    :      1.641793833      -0.308885698      -0.009612071
                        -----------------------------------------
Magnitude (a.u.)       :      1.670625559
Magnitude (Debye)      :      4.246392704

VIBRATIONAL FREQUENCIES
-----------------------

Scaling factor for frequencies =  1.000000000  (already applied!)

     0:       0.00 cm**-1
     1:       0.00 cm**-1
     2:       0.00 cm**-1
     3:       0.00 cm**-1
     4:       0.00 cm**-1
     5:       0.00 cm**-1
     6:      75.55 cm**-1
     7:     135.15 cm**-1
     8:     219.85 cm**-1
     9:     242.77 cm**-1
    10:     264.19 cm**-1
    11:     361.05 cm**-1
    12:     392.55 cm**-1
    13:     434.19 cm**-1
    14:     489.29 cm**-1
    15:     545.60 cm**-1
    16:     576.49 cm**-1
    17:     681.78 cm**-1
    18:     710.80 cm**-1
    19:     739.16 cm**-1
    20:     806.58 cm**-1
    21:     810.05 cm**-1
    22:     875.33 cm**-1
    23:     875.44 cm**-1
    24:     957.42 cm**-1
    25:     982.09 cm**-1
    26:    1016.27 cm**-1
    27:    1051.90 cm**-1
    28:    1071.47 cm**-1
    29:    1102.82 cm**-1
    30:    1170.47 cm**-1
    31:    1188.12 cm**-1
    32:    1222.20 cm**-1
    33:    1301.90 cm**-1
    34:    1348.34 cm**-1
    35:    1357.98 cm**-1
    36:    1406.82 cm**-1
    37:    1454.76 cm**-1
    38:    1474.57 cm**-1
    39:    1492.39 cm**-1
    40:    1506.47 cm**-1
    41:    1560.54 cm**-1
    42:    1610.89 cm**-1
    43:    1644.41 cm**-1
    44:    3029.05 cm**-1
    45:    3102.72 cm**-1
    46:    3113.01 cm**-1
    47:    3161.49 cm**-1
    48:    3174.96 cm**-1
    49:    3187.60 cm**-1
    50:    3209.99 cm**-1

IR SPECTRUM
-----------

 Mode   freq       eps      Int      T**2         TX        TY        TZ
       cm**-1   L/(mol*cm) km/mol    a.u.
----------------------------------------------------------------------------
  6:     75.55   0.000067    0.34  0.000275  (-0.015941  0.003570 -0.002893)
  7:    135.15   0.000274    1.39  0.000633  ( 0.004285 -0.002244 -0.024687)
  8:    219.85   0.000262    1.32  0.000372  (-0.000737  0.008960 -0.017054)
  9:    242.77   0.000044    0.22  0.000056  ( 0.007080 -0.001579  0.001911)
 10:    264.19   0.000495    2.50  0.000585  ( 0.001272 -0.022484 -0.008810)
 11:    361.05   0.000189    0.95  0.000163  ( 0.012668 -0.001119 -0.001175)
 12:    392.55   0.000057    0.29  0.000046  ( 0.001079  0.006488  0.001551)
 13:    434.19   0.000177    0.89  0.000127  ( 0.007009  0.003257 -0.008208)
 14:    489.29   0.000987    4.99  0.000630  (-0.003337  0.002535  0.024742)
 15:    545.60   0.000037    0.19  0.000021  (-0.001176 -0.004241  0.001357)
 16:    576.49   0.000102    0.52  0.000055  (-0.005984 -0.004145 -0.001492)
 17:    681.78   0.001169    5.91  0.000535  (-0.022678  0.003062 -0.003393)
 18:    710.80   0.000325    1.64  0.000143  (-0.010021  0.000173  0.006500)
 19:    739.16   0.012005   60.67  0.005068  ( 0.004325 -0.000664  0.071058)
 20:    806.58   0.001930    9.75  0.000747  (-0.014037  0.010583 -0.020922)
 21:    810.05   0.000834    4.21  0.000321  ( 0.014585 -0.001128 -0.010354)
 22:    875.33   0.000793    4.01  0.000283  ( 0.016637 -0.000886  0.002279)
 23:    875.44   0.004485   22.66  0.001599  (-0.039850  0.003137  0.000856)
 24:    957.42   0.000293    1.48  0.000096  (-0.006530 -0.000214 -0.007274)
 25:    982.09   0.000067    0.34  0.000021  ( 0.004544  0.000618 -0.000611)
 26:   1016.27   0.000229    1.16  0.000070  (-0.006573  0.004340  0.002892)
 27:   1051.90   0.000639    3.23  0.000190  ( 0.003097 -0.007048  0.011415)
 28:   1071.47   0.000496    2.51  0.000145  (-0.004712 -0.010977 -0.001344)
 29:   1102.82   0.002257   11.41  0.000639  ( 0.023151  0.009723 -0.002876)
 30:   1170.47   0.001455    7.35  0.000388  (-0.012192  0.015416 -0.001310)
 31:   1188.12   0.000517    2.62  0.000136  (-0.009828  0.006255  0.000461)
 32:   1222.20   0.001682    8.50  0.000429  ( 0.020105 -0.004810 -0.001416)
 33:   1301.90   0.000263    1.33  0.000063  ( 0.001348  0.007238  0.002984)
 34:   1348.34   0.036934  186.65  0.008548  ( 0.089316 -0.023871  0.000953)
 35:   1357.98   0.018372   92.85  0.004222  (-0.064073 -0.010790  0.000429)
 36:   1406.82   0.000953    4.82  0.000211  ( 0.007156  0.012343 -0.002814)
 37:   1454.76   0.002990   15.11  0.000641  ( 0.007855 -0.021510  0.010821)
 38:   1474.57   0.000890    4.50  0.000188  (-0.002794 -0.001938 -0.013300)
 39:   1492.39   0.002828   14.29  0.000591  ( 0.017467 -0.015357 -0.007096)
 40:   1506.47   0.002276   11.50  0.000472  (-0.018460  0.003347 -0.010935)
 41:   1560.54   0.046322  234.09  0.009263  ( 0.007630  0.086405 -0.041703)
 42:   1610.89   0.002587   13.07  0.000501  (-0.012427  0.016473 -0.008682)
 43:   1644.41   0.005431   27.44  0.001031  ( 0.010985  0.028739 -0.009164)
 44:   3029.05   0.002736   13.82  0.000282  ( 0.001023  0.016292  0.003917)
 45:   3102.72   0.000973    4.92  0.000098  (-0.002360 -0.000748 -0.009580)
 46:   3113.01   0.003257   16.46  0.000327  ( 0.011847 -0.013596 -0.001160)
 47:   3161.49   0.000630    3.18  0.000062  ( 0.000485  0.007847  0.000613)
 48:   3174.96   0.001936    9.78  0.000190  ( 0.007687 -0.011444 -0.000480)
 49:   3187.60   0.001814    9.17  0.000178  ( 0.012305  0.005112  0.000129)
 50:   3209.99   0.000434    2.19  0.000042  ( 0.006425 -0.000042  0.000939)

--------------------------
THERMOCHEMISTRY AT 298.15K
--------------------------

Temperature         ...   298.15 K
Pressure            ...     1.00 atm
Total Mass          ...   137.14 AMU
Quasi RRHO          ...     True
Cut-Off Frequency   ...     1.00 cm^-1

Throughout the following assumptions are being made:
  (1) The electronic state is orbitally nondegenerate
  (2) There are no thermally accessible electronically excited states
  (3) Hindered rotations indicated by low frequency modes are not
      treated as such but are treated as vibrations and this may
      cause some error
  (4) All equations used are the standard statistical mechanics
      equations for an ideal gas
  (5) All vibrations are strictly harmonic

freq.      75.55  E(vib)   ...       0.49
freq.     135.15  E(vib)   ...       0.42
freq.     219.85  E(vib)   ...       0.33
freq.     242.77  E(vib)   ...       0.31
freq.     264.19  E(vib)   ...       0.29
freq.     361.05  E(vib)   ...       0.22
freq.     392.55  E(vib)   ...       0.20
freq.     434.19  E(vib)   ...       0.17
freq.     489.29  E(vib)   ...       0.15
freq.     545.60  E(vib)   ...       0.12
freq.     576.49  E(vib)   ...       0.11
freq.     681.78  E(vib)   ...       0.08
freq.     710.80  E(vib)   ...       0.07
freq.     739.16  E(vib)   ...       0.06
freq.     806.58  E(vib)   ...       0.05
freq.     810.05  E(vib)   ...       0.05
freq.     875.33  E(vib)   ...       0.04
freq.     875.44  E(vib)   ...       0.04
freq.     957.42  E(vib)   ...       0.03
freq.     982.09  E(vib)   ...       0.02
freq.    1016.27  E(vib)   ...       0.02
freq.    1051.90  E(vib)   ...       0.02
freq.    1071.47  E(vib)   ...       0.02
freq.    1102.82  E(vib)   ...       0.02
freq.    1170.47  E(vib)   ...       0.01
freq.    1188.12  E(vib)   ...       0.01
freq.    1222.20  E(vib)   ...       0.01
freq.    1301.90  E(vib)   ...       0.01
freq.    1348.34  E(vib)   ...       0.01
freq.    1357.98  E(vib)   ...       0.01
freq.    1406.82  E(vib)   ...       0.00
freq.    1454.76  E(vib)   ...       0.00
freq.    1474.57  E(vib)   ...       0.00
freq.    1492.39  E(vib)   ...       0.00
freq.    1506.47  E(vib)   ...       0.00
freq.    1560.54  E(vib)   ...       0.00
freq.    1610.89  E(vib)   ...       0.00
freq.    1644.41  E(vib)   ...       0.00
freq.    3029.05  E(vib)   ...       0.00
freq.    3102.72  E(vib)   ...       0.00
freq.    3113.01  E(vib)   ...       0.00
freq.    3161.49  E(vib)   ...       0.00
freq.    3174.96  E(vib)   ...       0.00
freq.    3187.60  E(vib)   ...       0.00
freq.    3209.99  E(vib)   ...       0.00

------------
INNER ENERGY
------------

The inner energy is: U= E(el) + E(ZPE) + E(vib) + E(rot) + E(trans)
    E(el)   - is the total energy from the electronic structure calculation
              = E(kin-el) + E(nuc-el) + E(el-el) + E(nuc-nuc)
    E(ZPE)  - the the zero temperature vibrational energy from the frequency calculation
    E(vib)  - the the finite temperature correction to E(ZPE) due to population
              of excited vibrational states
    E(rot)  - is the rotational thermal energy
    E(trans)- is the translational thermal energy

Summary of contributions to the inner energy U:
Electronic energy                ...   -476.00797177 Eh
Zero point energy                ...      0.13016641 Eh      81.68 kcal/mol
Thermal vibrational correction   ...      0.00540381 Eh       3.39 kcal/mol
Thermal rotational correction    ...      0.00141627 Eh       0.89 kcal/mol
Thermal translational correction ...      0.00141627 Eh       0.89 kcal/mol
-----------------------------------------------------------------------
Total thermal energy                   -475.86956901 Eh

Summary of corrections to the electronic energy:
(perhaps to be used in another calculation)
Total thermal correction                  0.00823636 Eh       5.17 kcal/mol
Non-thermal (ZPE) correction              0.13016641 Eh      81.68 kcal/mol
-----------------------------------------------------------------------
Total correction                          0.13840276 Eh      86.85 kcal/mol

--------
ENTHALPY
--------

The enthalpy is H = U + kB*T
                kB is Boltzmann's constant
Total thermal energy              ...   -475.86956901 Eh
Thermal Enthalpy correction       ...      0.00094421 Eh       0.59 kcal/mol
-----------------------------------------------------------------------
Total Enthalpy                    ...   -475.86862480 Eh

Note: Only C1 symmetry has been detected, increase convergence thresholds
      if your molecule has a higher symmetry. Symmetry factor of 1.0 is
      used for the rotational entropy correction.

Note: Rotational entropy computed according to Herzberg
Infrared and Raman Spectra, Chapter V,1, Van Nostrand Reinhold, 1945
Point Group:  C1, Symmetry Number:   1
Rotational constants in cm-1:     0.075605     0.041858     0.027682

Vibrational entropy computed according to the QRRHO of S. Grimme
Chem.Eur.J. 2012 18 9955 using a reference frequency of 100.0 cm-1

-------
ENTROPY
-------

The entropy contributions are T*S = T*(S(el)+S(vib)+S(rot)+S(trans))
     S(el)   - electronic entropy
     S(vib)  - vibrational entropy
     S(rot)  - rotational entropy
     S(trans)- translational entropy
The entropies will be listed as multiplied by the temperature to get
units of energy

Electronic entropy                ...      0.00000000 Eh      0.00 kcal/mol
Vibrational entropy               ...      0.00884826 Eh      5.55 kcal/mol
Rotational entropy                ...      0.01392139 Eh      8.74 kcal/mol
Translational entropy             ...      0.01931853 Eh     12.12 kcal/mol
-----------------------------------------------------------------------
Final entropy term                ...      0.04208818 Eh     26.41 kcal/mol

In case the symmetry of your molecule has not been determined correctly
or in case you have a reason to use a different symmetry number we print
out the resulting rotational entropy values for sn=1,12:

 non-linear molecules -----------------------------------
|  sn= 1 | S(rot)=       0.01392139 Eh      8.74 kcal/mol|
|  sn= 2 | S(rot)=       0.01326694 Eh      8.33 kcal/mol|
|  sn= 3 | S(rot)=       0.01288411 Eh      8.08 kcal/mol|
|  sn= 4 | S(rot)=       0.01261248 Eh      7.91 kcal/mol|
|  sn= 5 | S(rot)=       0.01240179 Eh      7.78 kcal/mol|
|  sn= 6 | S(rot)=       0.01222965 Eh      7.67 kcal/mol|
|  sn= 7 | S(rot)=       0.01208410 Eh      7.58 kcal/mol|
|  sn= 8 | S(rot)=       0.01195803 Eh      7.50 kcal/mol|
|  sn= 9 | S(rot)=       0.01184682 Eh      7.43 kcal/mol|
|  sn=10 | S(rot)=       0.01174734 Eh      7.37 kcal/mol|
|  sn=11 | S(rot)=       0.01165735 Eh      7.32 kcal/mol|
|  sn=12 | S(rot)=       0.01157519 Eh      7.26 kcal/mol|
 linear molecules ---------------------------------------
|  Dinfh | S(rot)=       0.00871256 Eh      5.47 kcal/mol|
|  Cinfv | S(rot)=       0.00936702 Eh      5.88 kcal/mol|

                             ****ORCA TERMINATED NORMALLY****
TOTAL RUN TIME: 0 days 0 hours 17 minutes 48 seconds 249 msec
