                         Program Version 6.0.1  -  RELEASE   -
|  1> ! r2scan-3c def2/J RI DEFGRID2 scfconv6 printgap
|  2> %output
|  3>     printlevel normal
|  4> end
|  5> * xyz 0 1
|  6> C 1.9860478614 0.8771639305 -0.6976183007
|  7> C 1.1464555588 -0.2403405162 -0.0897367619
|  8> C 1.8658351004 -0.9383198701 1.0575430359
|  9> O -0.068254541 0.3310652398 0.4269113878
| 10> C -1.2242313402 0.008386123 -0.1533944437
| 11> O -1.3328206126 -0.7326110995 -1.0948729732
| 12> C -2.3764669546 0.6881630919 0.5426234045
| 13> H 2.9081950334 0.4680273097 -1.1000900181
| 14> H 1.4381957771 1.3644974283 -1.5005495768
| 15> H 2.2259622596 1.6172226979 0.062138176
| 16> H 0.8699835368 -0.9668460068 -0.8643678275
| 17> H 1.2352322242 -1.7163601014 1.4806837416
| 18> H 2.1047340865 -0.2197743437 1.8377345407
| 19> H 2.7849673443 -1.3894174514 0.6951264459
| 20> H -2.017314485 1.5167305461 1.1442656807
| 21> H -2.869201149 -0.0377880731 1.1864152039
| 22> H -3.0955725063 1.0300579705 -0.1963144045
| 23> *
| 24>
| 25>                          ****END OF INPUT****

CARTESIAN COORDINATES (ANGSTROEM)
---------------------------------
  C      1.986048    0.877164   -0.697618
  C      1.146456   -0.240341   -0.089737
  C      1.865835   -0.938320    1.057543
  O     -0.068255    0.331065    0.426911
  C     -1.224231    0.008386   -0.153394
  O     -1.332821   -0.732611   -1.094873
  C     -2.376467    0.688163    0.542623
  H      2.908195    0.468027   -1.100090
  H      1.438196    1.364497   -1.500550
  H      2.225962    1.617223    0.062138
  H      0.869984   -0.966846   -0.864368
  H      1.235232   -1.716360    1.480684
  H      2.104734   -0.219774    1.837735
  H      2.784967   -1.389417    0.695126
  H     -2.017314    1.516731    1.144266
  H     -2.869201   -0.037788    1.186415
  H     -3.095573    1.030058   -0.196314

 Total Charge           Charge          ....    0
 Multiplicity           Mult            ....    1
 Number of Electrons    NEL             ....   56
 Basis Dimension        Dim             ....  193

ORBITAL ENERGIES
----------------

  NO   OCC          E(Eh)            E(eV)
   0   2.0000     -18.993979      -516.8524
   1   2.0000     -18.928284      -515.0648
   2   2.0000     -10.154860      -276.3278
   3   2.0000     -10.093663      -274.6625
   4   2.0000     -10.037594      -273.1368
   5   2.0000     -10.027932      -272.8739
   6   2.0000     -10.027573      -272.8641
   7   2.0000      -1.070567       -29.1316
   8   2.0000      -0.980702       -26.6863
   9   2.0000      -0.770860       -20.9762
  10   2.0000      -0.709518       -19.3070
  11   2.0000      -0.665991       -18.1225
  12   2.0000      -0.598259       -16.2795
  13   2.0000      -0.523116       -14.2347
  14   2.0000      -0.460798       -12.5390
  15   2.0000      -0.445917       -12.1340
  16   2.0000      -0.439174       -11.9505
  17   2.0000      -0.410135       -11.1603
  18   2.0000      -0.396890       -10.7999
  19   2.0000      -0.388151       -10.5621
  20   2.0000      -0.369794       -10.0626
  21   2.0000      -0.366923        -9.9845
  22   2.0000      -0.349005        -9.4969
  23   2.0000      -0.337473        -9.1831
  24   2.0000      -0.326344        -8.8803
  25   2.0000      -0.299266        -8.1434
  26   2.0000      -0.268752        -7.3131
  27   2.0000      -0.238158        -6.4806
  28   0.0000      -0.010680        -0.2906
  29   0.0000       0.075162         2.0453
  30   0.0000       0.099847         2.7170
  31   0.0000       0.118768         3.2318
  32   0.0000       0.128108         3.4860

MULLIKEN ATOMIC CHARGES
-----------------------
   0 C :   -0.467312
   1 C :   -0.019999
   2 C :   -0.462909
   3 O :   -0.149035
   4 C :    0.430910
   5 O :   -0.426145
   6 C :   -0.522470
   7 H :    0.147881
   8 H :    0.154727
   9 H :    0.154213
  10 H :    0.191300
  11 H :    0.152632
  12 H :    0.154051
  13 H :    0.147457
  14 H :    0.169466
  15 H :    0.173154
  16 H :    0.172078
Sum of atomic charges:   -0.0000000

LOEWDIN ATOMIC CHARGES
----------------------
   0 C :   -0.377435
   1 C :    0.068052
   2 C :   -0.377372
   3 O :   -0.596597
   4 C :    0.359645
   5 O :   -0.433560
   6 C :   -0.337905
   7 H :    0.160100
   8 H :    0.162537
   9 H :    0.160161
  10 H :    0.200010
  11 H :    0.161682
  12 H :    0.160459
  13 H :    0.160155
  14 H :    0.173692
  15 H :    0.180218
  16 H :    0.176157

  Mayer bond orders larger than 0.100000
B(  0-C ,  1-C ) :   0.9517 B(  0-C ,  7-H ) :   0.9710 B(  0-C ,  8-H ) :   0.9669
B(  0-C ,  9-H ) :   0.9787 B(  1-C ,  2-C ) :   0.9486 B(  1-C ,  3-O ) :   0.7048
B(  1-C , 10-H ) :   0.9463 B(  2-C , 11-H ) :   0.9684 B(  2-C , 12-H ) :   0.9779
B(  2-C , 13-H ) :   0.9715 B(  3-O ,  4-C ) :   1.0599 B(  4-C ,  5-O ) :   1.8435
B(  4-C ,  6-C ) :   0.9482 B(  6-C , 14-H ) :   0.9801 B(  6-C , 15-H ) :   0.9415
B(  6-C , 16-H ) :   0.9716

Dispersion correction           -0.004061357
FINAL SINGLE POINT ENERGY      -346.942131374592

DIPOLE MOMENT
-------------

Method             : SCF
Type of density    : Electron Density
Multiplicity       :   1
Irrep              :   0
Energy             :  -346.9484917002059774 Eh
Relativity type    :
Basis              : AO
                                X                 Y                 Z
Electronic contribution:     -4.791907556      -1.173987668      -1.993711540
Nuclear contribution   :      5.219062121       1.557361512       2.565405032
                        -----------------------------------------
Total Dipole Moment    :      0.427154564       0.383373843       0.571693492
                        -----------------------------------------
Magnitude (a.u.)       :      0.810104916
Magnitude (Debye)      :      2.059123055

Rotational constants in cm-1:             0.157041             0.052356             0.050814
Rotational constants in MHz :          4707.968584          1569.586410          1523.367071

                             ****ORCA TERMINATED NORMALLY****
TOTAL RUN TIME: 0 days 0 hours 0 minutes 16 seconds 275 msec
