                         Program Version 6.0.1  -  RELEASE   -
|  1> ! r2scan-3c def2/J RI DEFGRID2 scfconv6 printgap
|  2> %output
|  3>     printlevel normal
|  4> end
|  5> * xyz 0 1
|  6> C 1.6680096126 0.8910280318 0.1828025626
|  7> C 1.2247166908 -0.4398994962 -0.4113146259
|  8> C -0.0368861659 -0.9756642672 0.2795961057
|  9> C -1.1607275682 -0.1017403476 0.0591727312
| 10> N -2.0450664766 0.5980093406 -0.1278603345
| 11> H 1.9007666664 0.7815783187 1.2403931237
| 12> H 2.555929808 1.2564334085 -0.3272237782
| 13> H 0.88037998 1.6344416418 0.0794383777
| 14> H 1.025061972 -0.3171677786 -1.4781049526
| 15> H 2.0215963584 -1.1785664419 -0.3003577272
| 16> H 0.129686346 -1.0584833724 1.3577077718
| 17> H -0.293721212 -1.9654780063 -0.1089028799
| 18> *
| 19>
| 20>                          ****END OF INPUT****

CARTESIAN COORDINATES (ANGSTROEM)
---------------------------------
  C      1.668010    0.891028    0.182803
  C      1.224717   -0.439899   -0.411315
  C     -0.036886   -0.975664    0.279596
  C     -1.160728   -0.101740    0.059173
  N     -2.045066    0.598009   -0.127860
  H      1.900767    0.781578    1.240393
  H      2.555930    1.256433   -0.327224
  H      0.880380    1.634442    0.079438
  H      1.025062   -0.317168   -1.478105
  H      2.021596   -1.178566   -0.300358
  H      0.129686   -1.058483    1.357708
  H     -0.293721   -1.965478   -0.108903

 Total Charge           Charge          ....    0
 Multiplicity           Mult            ....    1
 Number of Electrons    NEL             ....   38
 Basis Dimension        Dim             ....  135

ORBITAL ENERGIES
----------------

  NO   OCC          E(Eh)            E(eV)
   0   2.0000     -14.149581      -385.0297
   1   2.0000     -10.084387      -274.4101
   2   2.0000     -10.064936      -273.8808
   3   2.0000     -10.058199      -273.6975
   4   2.0000     -10.033119      -273.0150
   5   2.0000      -0.876567       -23.8526
   6   2.0000      -0.793311       -21.5871
   7   2.0000      -0.699936       -19.0462
   8   2.0000      -0.594268       -16.1709
   9   2.0000      -0.494506       -13.4562
  10   2.0000      -0.457154       -12.4398
  11   2.0000      -0.427125       -11.6227
  12   2.0000      -0.402791       -10.9605
  13   2.0000      -0.350480        -9.5370
  14   2.0000      -0.346816        -9.4373
  15   2.0000      -0.332788        -9.0556
  16   2.0000      -0.320999        -8.7348
  17   2.0000      -0.301549        -8.2056
  18   2.0000      -0.300800        -8.1852
  19   0.0000       0.006424         0.1748
  20   0.0000       0.013389         0.3643
  21   0.0000       0.063295         1.7223
  22   0.0000       0.113037         3.0759
  23   0.0000       0.118172         3.2156

MULLIKEN ATOMIC CHARGES
-----------------------
   0 C :   -0.473527
   1 C :   -0.224676
   2 C :   -0.328712
   3 C :    0.142498
   4 N :   -0.235484
   5 H :    0.143425
   6 H :    0.150974
   7 H :    0.170927
   8 H :    0.148836
   9 H :    0.153471
  10 H :    0.177898
  11 H :    0.174370
Sum of atomic charges:   -0.0000000

LOEWDIN ATOMIC CHARGES
----------------------
   0 C :   -0.415368
   1 C :   -0.290114
   2 C :   -0.261500
   3 C :    0.124878
   4 N :   -0.319358
   5 H :    0.151865
   6 H :    0.155689
   7 H :    0.163138
   8 H :    0.162537
   9 H :    0.156545
  10 H :    0.185534
  11 H :    0.186152

  Mayer bond orders larger than 0.100000
B(  0-C ,  1-C ) :   0.9160 B(  0-C ,  5-H ) :   0.9760 B(  0-C ,  6-H ) :   0.9654
B(  0-C ,  7-H ) :   0.9725 B(  1-C ,  2-C ) :   0.8788 B(  1-C ,  8-H ) :   0.9677
B(  1-C ,  9-H ) :   0.9669 B(  2-C ,  3-C ) :   0.9760 B(  2-C , 10-H ) :   0.9859
B(  2-C , 11-H ) :   0.9476 B(  3-C ,  4-N ) :   2.8991

Dispersion correction           -0.002539830
FINAL SINGLE POINT ENERGY      -211.313663925437

DIPOLE MOMENT
-------------

Method             : SCF
Type of density    : Electron Density
Multiplicity       :   1
Irrep              :   0
Energy             :  -211.3160229927584055 Eh
Relativity type    :
Basis              : AO
                                X                 Y                 Z
Electronic contribution:     -6.349751657      -0.079025135      -0.242139451
Nuclear contribution   :      7.700247315      -0.791578654       0.433623874
                        -----------------------------------------
Total Dipole Moment    :      1.350495659      -0.870603789       0.191484423
                        -----------------------------------------
Magnitude (a.u.)       :      1.618164319
Magnitude (Debye)      :      4.113046831

Rotational constants in cm-1:             0.341776             0.110923             0.092444
Rotational constants in MHz :         10246.192108          3325.390298          2771.390088

                             ****ORCA TERMINATED NORMALLY****
TOTAL RUN TIME: 0 days 0 hours 0 minutes 10 seconds 391 msec
