                         Program Version 6.0.1  -  RELEASE   -
|  1> ! pbe def2-sv(p) def2/J RI DEFGRID1 loosescf d4 GCP(DFT/SV(P)) printgap
|  2> %output
|  3>     printlevel normal
|  4> end
|  5> * xyz 0 1
|  6> C -2.4773311468 -0.4805673947 -0.1918252365
|  7> C -1.0475309966 -0.1716258091 0.258633801
|  8> H -0.9667194548 -0.3610446395 1.3393943257
|  9> C -0.6347407338 1.2937849745 -0.0243547439
| 10> H -1.2496852786 1.7058060855 -0.8331637006
| 11> C 0.8379702375 1.3018326168 -0.4881121042
| 12> H 1.2458643981 2.3101776311 -0.3699250621
| 13> C 1.641239416 0.3139279267 0.3833415995
| 14> H 2.6974783118 0.343452268 0.0799976241
| 15> C 1.1123055595 -1.1206184726 0.1065539132
| 16> H 1.0991007803 -1.6947079288 1.0491492417
| 17> O -0.19297923 -1.076875287 -0.4354366193
| 18> O 1.9258098747 -1.8189812002 -0.7600901624
| 19> O 1.4961266727 0.6905309015 1.7339771449
| 20> O 0.9647878809 0.966891114 -1.8456551754
| 21> O -0.8510833019 2.1199426277 1.0796803989
| 22> O -2.8631905682 -1.77865219 0.1609805163
| 23> H -2.5449700942 -0.3350099436 -1.280072548
| 24> H -3.1658836196 0.2039768106 0.305961609
| 25> H 1.9565611822 -1.3552131791 -1.6085843944
| 26> H 2.0987135197 0.1710554492 2.27741233
| 27> H 0.3861557863 0.2081398715 -2.0140077811
| 28> H -0.2054788674 1.8831778102 1.7610415545
| 29> H -2.192442978 -2.3848443804 -0.1780544053
| 30> *
| 31>
| 32>                          ****END OF INPUT****

CARTESIAN COORDINATES (ANGSTROEM)
---------------------------------
  C     -2.477331   -0.480567   -0.191825
  C     -1.047531   -0.171626    0.258634
  H     -0.966719   -0.361045    1.339394
  C     -0.634741    1.293785   -0.024355
  H     -1.249685    1.705806   -0.833164
  C      0.837970    1.301833   -0.488112
  H      1.245864    2.310178   -0.369925
  C      1.641239    0.313928    0.383342
  H      2.697478    0.343452    0.079998
  C      1.112306   -1.120618    0.106554
  H      1.099101   -1.694708    1.049149
  O     -0.192979   -1.076875   -0.435437
  O      1.925810   -1.818981   -0.760090
  O      1.496127    0.690531    1.733977
  O      0.964788    0.966891   -1.845655
  O     -0.851083    2.119943    1.079680
  O     -2.863191   -1.778652    0.160981
  H     -2.544970   -0.335010   -1.280073
  H     -3.165884    0.203977    0.305962
  H      1.956561   -1.355213   -1.608584
  H      2.098714    0.171055    2.277412
  H      0.386156    0.208140   -2.014008
  H     -0.205479    1.883178    1.761042
  H     -2.192443   -2.384844   -0.178054

 Total Charge           Charge          ....    0
 Multiplicity           Mult            ....    1
 Number of Electrons    NEL             ....   96
 Basis Dimension        Dim             ....  192

ORBITAL ENERGIES
----------------

  NO   OCC          E(Eh)            E(eV)
   0   2.0000     -18.793147      -511.3875
   1   2.0000     -18.789450      -511.2869
   2   2.0000     -18.772512      -510.8260
   3   2.0000     -18.766125      -510.6522
   4   2.0000     -18.746671      -510.1229
   5   2.0000     -18.745104      -510.0802
   6   2.0000     -10.002372      -272.1784
   7   2.0000      -9.957061      -270.9454
   8   2.0000      -9.951348      -270.7899
   9   2.0000      -9.947860      -270.6950
  10   2.0000      -9.945755      -270.6378
  11   2.0000      -9.936251      -270.3791
  12   2.0000      -1.003442       -27.3050
  13   2.0000      -0.962509       -26.1912
  14   2.0000      -0.946112       -25.7450
  15   2.0000      -0.937889       -25.5213
  16   2.0000      -0.926765       -25.2185
  17   2.0000      -0.919544       -25.0221
  18   2.0000      -0.704417       -19.1682
  19   2.0000      -0.698189       -18.9987
  20   2.0000      -0.623632       -16.9699
  21   2.0000      -0.599886       -16.3237
  22   2.0000      -0.573942       -15.6178
  23   2.0000      -0.544251       -14.8098
  24   2.0000      -0.515002       -14.0139
  25   2.0000      -0.508062       -13.8251
  26   2.0000      -0.490334       -13.3427
  27   2.0000      -0.471437       -12.8285
  28   2.0000      -0.457933       -12.4610
  29   2.0000      -0.434422       -11.8212
  30   2.0000      -0.419652       -11.4193
  31   2.0000      -0.404625       -11.0104
  32   2.0000      -0.385090       -10.4788
  33   2.0000      -0.379414       -10.3244
  34   2.0000      -0.371397       -10.1062
  35   2.0000      -0.362270        -9.8579
  36   2.0000      -0.349291        -9.5047
  37   2.0000      -0.324650        -8.8342
  38   2.0000      -0.321144        -8.7388
  39   2.0000      -0.312565        -8.5053
  40   2.0000      -0.285207        -7.7609
  41   2.0000      -0.278541        -7.5795
  42   2.0000      -0.270611        -7.3637
  43   2.0000      -0.267037        -7.2664
  44   2.0000      -0.251038        -6.8311
  45   2.0000      -0.226004        -6.1499
  46   2.0000      -0.220011        -5.9868
  47   2.0000      -0.204976        -5.5777
  48   0.0000      -0.005074        -0.1381
  49   0.0000       0.018835         0.5125
  50   0.0000       0.034042         0.9263
  51   0.0000       0.049125         1.3368
  52   0.0000       0.061187         1.6650

MULLIKEN ATOMIC CHARGES
-----------------------
   0 C :    0.080064
   1 C :   -0.020278
   2 H :    0.061533
   3 C :    0.064728
   4 H :    0.072671
   5 C :    0.032787
   6 H :    0.086633
   7 C :    0.000748
   8 H :    0.085581
   9 C :    0.174886
  10 H :    0.060134
  11 O :   -0.321044
  12 O :   -0.373212
  13 O :   -0.422145
  14 O :   -0.419547
  15 O :   -0.421400
  16 O :   -0.430559
  17 H :    0.067634
  18 H :    0.103384
  19 H :    0.294405
  20 H :    0.316530
  21 H :    0.301644
  22 H :    0.306555
  23 H :    0.298269
Sum of atomic charges:    0.0000000

LOEWDIN ATOMIC CHARGES
----------------------
   0 C :   -0.125140
   1 C :   -0.084276
   2 H :    0.108901
   3 C :   -0.074916
   4 H :    0.116626
   5 C :   -0.071352
   6 H :    0.121889
   7 C :   -0.099473
   8 H :    0.112412
   9 C :   -0.006335
  10 H :    0.098203
  11 O :   -0.163846
  12 O :   -0.285995
  13 O :   -0.312656
  14 O :   -0.311121
  15 O :   -0.310799
  16 O :   -0.332723
  17 H :    0.096761
  18 H :    0.125204
  19 H :    0.278779
  20 H :    0.295720
  21 H :    0.268202
  22 H :    0.275577
  23 H :    0.280360

  Mayer bond orders larger than 0.100000
B(  0-C ,  1-C ) :   1.0604 B(  0-C , 16-O ) :   1.0791 B(  0-C , 17-H ) :   0.9023
B(  0-C , 18-H ) :   0.9187 B(  1-C ,  2-H ) :   0.8609 B(  1-C ,  3-C ) :   0.9569
B(  1-C , 11-O ) :   0.9734 B(  3-C ,  4-H ) :   0.8930 B(  3-C ,  5-C ) :   0.9954
B(  3-C , 15-O ) :   1.0601 B(  5-C ,  6-H ) :   0.8893 B(  5-C ,  7-C ) :   0.9842
B(  5-C , 14-O ) :   1.0410 B(  7-C ,  8-H ) :   0.9010 B(  7-C ,  9-C ) :   0.9280
B(  7-C , 13-O ) :   1.0275 B(  9-C , 10-H ) :   0.9019 B(  9-C , 11-O ) :   0.9990
B(  9-C , 12-O ) :   1.1577 B( 12-O , 19-H ) :   0.8302 B( 13-O , 20-H ) :   0.8392
B( 14-O , 21-H ) :   0.8157 B( 15-O , 22-H ) :   0.8231 B( 16-O , 23-H ) :   0.8436

Dispersion correction           -0.025122826
FINAL SINGLE POINT ENERGY      -685.694819292235

DIPOLE MOMENT
-------------

Method             : SCF
Type of density    : Electron Density
Multiplicity       :   1
Irrep              :   0
Energy             :  -685.8285296298366802 Eh
Relativity type    :
Basis              : AO
                                X                 Y                 Z
Electronic contribution:      1.767065349      -0.918329659      -0.246475986
Nuclear contribution   :     -0.782185320       0.638705466       0.495445772
                        -----------------------------------------
Total Dipole Moment    :      0.984880029      -0.279624193       0.248969786
                        -----------------------------------------
Magnitude (a.u.)       :      1.053643353
Magnitude (Debye)      :      2.678148567

Rotational constants in cm-1:             0.037744             0.028135             0.022163
Rotational constants in MHz :          1131.540059           843.477476           664.425948

                             ****ORCA TERMINATED NORMALLY****
TOTAL RUN TIME: 0 days 0 hours 25 minutes 39 seconds 790 msec
