                         Program Version 6.0.1  -  RELEASE   -
|  1> ! pbe def2-sv(p) def2/J RI DEFGRID1 loosescf d4 GCP(DFT/SV(P)) printgap
|  2> %output
|  3>     printlevel normal
|  4> end
|  5> * xyz 0 1
|  6> C -2.1892085007 -0.9145895742 -0.11954248
|  7> C -1.1066068164 -0.3354023395 0.814773546
|  8> H -1.5443703487 -0.3156558473 1.8209821253
|  9> C -0.7299094702 1.1294100591 0.4769957014
| 10> H -1.5973276433 1.5996247551 -0.003440147
| 11> C 0.4709219214 1.2361988595 -0.4773966838
| 12> H 0.8265617067 2.2751491958 -0.4509630047
| 13> C 1.6153120799 0.3271152135 0.0218189532
| 14> H 2.4406343359 0.3652113715 -0.706773189
| 15> C 1.0970917645 -1.117978348 0.0934302746
| 16> H 1.8414799145 -1.7747190649 0.5703161551
| 17> O -0.0024497972 -1.227281928 0.9545191071
| 18> O 0.8679143627 -1.6261773387 -1.1897006256
| 19> O 2.033804264 0.7947130977 1.2815362116
| 20> O 0.1517325452 0.9183658105 -1.8129316612
| 21> O -0.5048400501 1.8709214751 1.6440669503
| 22> O -1.8151531605 -0.9583215751 -1.4755670997
| 23> H -3.0777561873 -0.2821313328 -0.0630923995
| 24> H -2.443875165 -1.9187005053 0.2376170761
| 25> H 0.7819671874 -0.8749331317 -1.8079316799
| 26> H 2.6763293859 0.1802396285 1.6541658526
| 27> H -0.7290315569 0.4886183023 -1.8451468856
| 28> H 0.3637179695 1.6206508997 1.9939888952
| 29> H -1.1036013256 -1.6176136939 -1.5594485422
| 30> *
| 31>
| 32>                          ****END OF INPUT****

CARTESIAN COORDINATES (ANGSTROEM)
---------------------------------
  C     -2.189209   -0.914590   -0.119542
  C     -1.106607   -0.335402    0.814774
  H     -1.544370   -0.315656    1.820982
  C     -0.729909    1.129410    0.476996
  H     -1.597328    1.599625   -0.003440
  C      0.470922    1.236199   -0.477397
  H      0.826562    2.275149   -0.450963
  C      1.615312    0.327115    0.021819
  H      2.440634    0.365211   -0.706773
  C      1.097092   -1.117978    0.093430
  H      1.841480   -1.774719    0.570316
  O     -0.002450   -1.227282    0.954519
  O      0.867914   -1.626177   -1.189701
  O      2.033804    0.794713    1.281536
  O      0.151733    0.918366   -1.812932
  O     -0.504840    1.870921    1.644067
  O     -1.815153   -0.958322   -1.475567
  H     -3.077756   -0.282131   -0.063092
  H     -2.443875   -1.918701    0.237617
  H      0.781967   -0.874933   -1.807932
  H      2.676329    0.180240    1.654166
  H     -0.729032    0.488618   -1.845147
  H      0.363718    1.620651    1.993989
  H     -1.103601   -1.617614   -1.559449

 Total Charge           Charge          ....    0
 Multiplicity           Mult            ....    1
 Number of Electrons    NEL             ....   96
 Basis Dimension        Dim             ....  192

ORBITAL ENERGIES
----------------

  NO   OCC          E(Eh)            E(eV)
   0   2.0000     -18.787251      -511.2271
   1   2.0000     -18.774285      -510.8743
   2   2.0000     -18.772823      -510.8345
   3   2.0000     -18.771730      -510.8047
   4   2.0000     -18.767976      -510.7026
   5   2.0000     -18.741551      -509.9835
   6   2.0000      -9.997899      -272.0567
   7   2.0000      -9.960240      -271.0319
   8   2.0000      -9.954779      -270.8833
   9   2.0000      -9.951088      -270.7829
  10   2.0000      -9.948226      -270.7050
  11   2.0000      -9.944058      -270.5916
  12   2.0000      -0.993205       -27.0265
  13   2.0000      -0.959808       -26.1177
  14   2.0000      -0.948357       -25.8061
  15   2.0000      -0.939956       -25.5775
  16   2.0000      -0.929928       -25.3046
  17   2.0000      -0.916086       -24.9280
  18   2.0000      -0.707135       -19.2421
  19   2.0000      -0.701819       -19.0975
  20   2.0000      -0.627176       -17.0663
  21   2.0000      -0.609607       -16.5883
  22   2.0000      -0.579423       -15.7669
  23   2.0000      -0.533505       -14.5174
  24   2.0000      -0.511891       -13.9293
  25   2.0000      -0.503358       -13.6971
  26   2.0000      -0.481675       -13.1070
  27   2.0000      -0.467769       -12.7286
  28   2.0000      -0.456111       -12.4114
  29   2.0000      -0.443764       -12.0754
  30   2.0000      -0.431231       -11.7344
  31   2.0000      -0.404556       -11.0085
  32   2.0000      -0.402384       -10.9494
  33   2.0000      -0.382997       -10.4219
  34   2.0000      -0.372970       -10.1490
  35   2.0000      -0.359953        -9.7948
  36   2.0000      -0.346435        -9.4270
  37   2.0000      -0.327412        -8.9093
  38   2.0000      -0.320750        -8.7281
  39   2.0000      -0.311714        -8.4822
  40   2.0000      -0.297491        -8.0951
  41   2.0000      -0.280898        -7.6436
  42   2.0000      -0.269123        -7.3232
  43   2.0000      -0.258481        -7.0336
  44   2.0000      -0.249709        -6.7949
  45   2.0000      -0.231957        -6.3119
  46   2.0000      -0.228105        -6.2070
  47   2.0000      -0.206323        -5.6143
  48   0.0000       0.000367         0.0100
  49   0.0000       0.026420         0.7189
  50   0.0000       0.045732         1.2444
  51   0.0000       0.057220         1.5570
  52   0.0000       0.062293         1.6951

MULLIKEN ATOMIC CHARGES
-----------------------
   0 C :    0.033510
   1 C :    0.034586
   2 H :    0.082283
   3 C :    0.032710
   4 H :    0.082685
   5 C :    0.033591
   6 H :    0.091205
   7 C :   -0.003060
   8 H :    0.092622
   9 C :    0.192644
  10 H :    0.062984
  11 O :   -0.305645
  12 O :   -0.418608
  13 O :   -0.418526
  14 O :   -0.434597
  15 O :   -0.425506
  16 O :   -0.450892
  17 H :    0.096745
  18 H :    0.095326
  19 H :    0.296480
  20 H :    0.314162
  21 H :    0.306613
  22 H :    0.304003
  23 H :    0.304685
Sum of atomic charges:    0.0000000

LOEWDIN ATOMIC CHARGES
----------------------
   0 C :   -0.133610
   1 C :   -0.080314
   2 H :    0.127679
   3 C :   -0.072421
   4 H :    0.119643
   5 C :   -0.066905
   6 H :    0.118677
   7 C :   -0.095406
   8 H :    0.111828
   9 C :   -0.012340
  10 H :    0.100896
  11 O :   -0.143793
  12 O :   -0.315645
  13 O :   -0.303233
  14 O :   -0.322238
  15 O :   -0.317506
  16 O :   -0.328163
  17 H :    0.119528
  18 H :    0.111521
  19 H :    0.269489
  20 H :    0.294664
  21 H :    0.269168
  22 H :    0.273875
  23 H :    0.274607

  Mayer bond orders larger than 0.100000
B(  0-C ,  1-C ) :   1.0307 B(  0-C , 16-O ) :   1.0453 B(  0-C , 17-H ) :   0.9198
B(  0-C , 18-H ) :   0.9153 B(  1-C ,  2-H ) :   0.8810 B(  1-C ,  3-C ) :   0.9561
B(  1-C , 11-O ) :   0.9836 B(  3-C ,  4-H ) :   0.8949 B(  3-C ,  5-C ) :   1.0142
B(  3-C , 15-O ) :   1.0618 B(  5-C ,  6-H ) :   0.9002 B(  5-C ,  7-C ) :   0.9744
B(  5-C , 14-O ) :   1.0571 B(  7-C ,  8-H ) :   0.8993 B(  7-C ,  9-C ) :   0.9850
B(  7-C , 13-O ) :   1.0177 B(  9-C , 10-H ) :   0.9086 B(  9-C , 11-O ) :   1.0791
B(  9-C , 12-O ) :   1.0829 B( 12-O , 19-H ) :   0.7687 B( 12-O , 23-H ) :   0.1175
B( 13-O , 20-H ) :   0.8385 B( 14-O , 19-H ) :   0.1484 B( 14-O , 21-H ) :   0.7555
B( 15-O , 22-H ) :   0.8153 B( 16-O , 21-H ) :   0.1633 B( 16-O , 23-H ) :   0.7847

Dispersion correction           -0.026945566
FINAL SINGLE POINT ENERGY      -685.705935624222

DIPOLE MOMENT
-------------

Method             : SCF
Type of density    : Electron Density
Multiplicity       :   1
Irrep              :   0
Energy             :  -685.8448836975974245 Eh
Relativity type    :
Basis              : AO
                                X                 Y                 Z
Electronic contribution:      2.016578790      -0.176759114       0.482277740
Nuclear contribution   :     -1.457661647      -0.241913044      -0.158710128
                        -----------------------------------------
Total Dipole Moment    :      0.558917144      -0.418672158       0.323567612
                        -----------------------------------------
Magnitude (a.u.)       :      0.769656254
Magnitude (Debye)      :      1.956310727

Rotational constants in cm-1:             0.040970             0.032103             0.027519
Rotational constants in MHz :          1228.235747           962.435046           824.995520

                             ****ORCA TERMINATED NORMALLY****
TOTAL RUN TIME: 0 days 0 hours 0 minutes 8 seconds 126 msec
