                         Program Version 6.0.1  -  RELEASE   -
|  1> ! pbe def2-sv(p) def2/J RI DEFGRID1 loosescf d4 GCP(DFT/SV(P)) printgap
|  2> %output
|  3>     printlevel normal
|  4> end
|  5> * xyz 0 1
|  6> C -4.3803453577 0.5051776494 -0.1642630841
|  7> C -3.5647540579 1.4946412301 -0.6801507829
|  8> C -2.1855343035 1.3584524513 -0.6340047285
|  9> C -1.5957815297 0.2251132704 -0.0714335216
| 10> C -2.4267542957 -0.771546015 0.4317836287
| 11> C -3.8030200555 -0.6285605973 0.3882145892
| 12> Cl -4.8067336864 -1.876309901 1.0285798919
| 13> C -0.1336479949 0.0485472356 -0.0056268084
| 14> C 0.4424458183 -1.117851845 -0.4979158566
| 15> C 1.814197662 -1.2965972537 -0.4408634429
| 16> C 2.6356355943 -0.3183605725 0.1174426614
| 17> C 2.0490701661 0.8422582593 0.6205629912
| 18> C 0.6781368333 1.026129197 0.5594071714
| 19> Cl 3.0377159388 2.0579222892 1.3267178561
| 20> Cl 4.3361560291 -0.5401818707 0.1876530315
| 21> Cl 2.5104165504 -2.7395257443 -1.0646727589
| 22> Cl -1.2072846991 2.595632716 -1.3386108273
| 23> H -5.4528748672 0.609587569 -0.1945283487
| 24> H -3.9969790481 2.3772107468 -1.1241300369
| 25> H -1.9879908705 -1.6523422646 0.873504927
| 26> H -0.17384263 -1.8818239808 -0.9443472783
| 27> H 0.2481643493 1.9263994272 0.9675248633
| 28> *
| 29>
| 30>                          ****END OF INPUT****

CARTESIAN COORDINATES (ANGSTROEM)
---------------------------------
  C     -4.380345    0.505178   -0.164263
  C     -3.564754    1.494641   -0.680151
  C     -2.185534    1.358452   -0.634005
  C     -1.595782    0.225113   -0.071434
  C     -2.426754   -0.771546    0.431784
  C     -3.803020   -0.628561    0.388215
  Cl    -4.806734   -1.876310    1.028580
  C     -0.133648    0.048547   -0.005627
  C      0.442446   -1.117852   -0.497916
  C      1.814198   -1.296597   -0.440863
  C      2.635636   -0.318361    0.117443
  C      2.049070    0.842258    0.620563
  C      0.678137    1.026129    0.559407
  Cl     3.037716    2.057922    1.326718
  Cl     4.336156   -0.540182    0.187653
  Cl     2.510417   -2.739526   -1.064673
  Cl    -1.207285    2.595633   -1.338611
  H     -5.452875    0.609588   -0.194528
  H     -3.996979    2.377211   -1.124130
  H     -1.987991   -1.652342    0.873505
  H     -0.173843   -1.881824   -0.944347
  H      0.248164    1.926399    0.967525

 Total Charge           Charge          ....    0
 Multiplicity           Mult            ....    1
 Number of Electrons    NEL             ....  162
 Basis Dimension        Dim             ....  268

ORBITAL ENERGIES
----------------

  NO   OCC          E(Eh)            E(eV)
   0   2.0000    -100.655869     -2738.9854
   1   2.0000    -100.654836     -2738.9573
   2   2.0000    -100.654806     -2738.9565
   3   2.0000    -100.653993     -2738.9344
   4   2.0000    -100.651537     -2738.8675
   5   2.0000      -9.974830      -271.4289
   6   2.0000      -9.974044      -271.4075
   7   2.0000      -9.973936      -271.4046
   8   2.0000      -9.970181      -271.3024
   9   2.0000      -9.969861      -271.2937
  10   2.0000      -9.936773      -270.3933
  11   2.0000      -9.934298      -270.3260
  12   2.0000      -9.924057      -270.0473
  13   2.0000      -9.923500      -270.0322
  14   2.0000      -9.922666      -270.0095
  15   2.0000      -9.921420      -269.9756
  16   2.0000      -9.921248      -269.9709
  17   2.0000      -9.191743      -250.1201
  18   2.0000      -9.190832      -250.0953
  19   2.0000      -9.190696      -250.0915
  20   2.0000      -9.190037      -250.0736
  21   2.0000      -9.187836      -250.0137
  22   2.0000      -7.023439      -191.1175
  23   2.0000      -7.022367      -191.0883
  24   2.0000      -7.022013      -191.0787
  25   2.0000      -7.021563      -191.0665
  26   2.0000      -7.019132      -191.0003
  27   2.0000      -7.011821      -190.8013
  28   2.0000      -7.010865      -190.7753
  29   2.0000      -7.010750      -190.7722
  30   2.0000      -7.010647      -190.7694
  31   2.0000      -7.010068      -190.7536
  32   2.0000      -7.009962      -190.7508
  33   2.0000      -7.009934      -190.7500
  34   2.0000      -7.009134      -190.7282
  35   2.0000      -7.007809      -190.6922
  36   2.0000      -7.007165      -190.6746
  37   2.0000      -0.861321       -23.4377
  38   2.0000      -0.843349       -22.9487
  39   2.0000      -0.816336       -22.2136
  40   2.0000      -0.815336       -22.1864
  41   2.0000      -0.791418       -21.5356
  42   2.0000      -0.773944       -21.0601
  43   2.0000      -0.758784       -20.6476
  44   2.0000      -0.717043       -19.5117
  45   2.0000      -0.675998       -18.3948
  46   2.0000      -0.671926       -18.2840
  47   2.0000      -0.655116       -17.8266
  48   2.0000      -0.592525       -16.1234
  49   2.0000      -0.572229       -15.5712
  50   2.0000      -0.559385       -15.2216
  51   2.0000      -0.535123       -14.5614
  52   2.0000      -0.491783       -13.3821
  53   2.0000      -0.476156       -12.9569
  54   2.0000      -0.471388       -12.8271
  55   2.0000      -0.452745       -12.3198
  56   2.0000      -0.438567       -11.9340
  57   2.0000      -0.424532       -11.5521
  58   2.0000      -0.412315       -11.2197
  59   2.0000      -0.411109       -11.1869
  60   2.0000      -0.408556       -11.1174
  61   2.0000      -0.399880       -10.8813
  62   2.0000      -0.384768       -10.4701
  63   2.0000      -0.375061       -10.2059
  64   2.0000      -0.358726        -9.7614
  65   2.0000      -0.350883        -9.5480
  66   2.0000      -0.346289        -9.4230
  67   2.0000      -0.339941        -9.2503
  68   2.0000      -0.337359        -9.1800
  69   2.0000      -0.316429        -8.6105
  70   2.0000      -0.296880        -8.0785
  71   2.0000      -0.295842        -8.0503
  72   2.0000      -0.286255        -7.7894
  73   2.0000      -0.285223        -7.7613
  74   2.0000      -0.279748        -7.6123
  75   2.0000      -0.279107        -7.5949
  76   2.0000      -0.262970        -7.1558
  77   2.0000      -0.259123        -7.0511
  78   2.0000      -0.230696        -6.2776
  79   2.0000      -0.229606        -6.2479
  80   2.0000      -0.219012        -5.9596
  81   0.0000      -0.083202        -2.2640
  82   0.0000      -0.065629        -1.7859
  83   0.0000      -0.062082        -1.6893
  84   0.0000      -0.043971        -1.1965
  85   0.0000      -0.034936        -0.9507

MULLIKEN ATOMIC CHARGES
-----------------------
   0 C :   -0.069712
   1 C :   -0.096891
   2 C :    0.071297
   3 C :    0.084611
   4 C :   -0.152439
   5 C :    0.134759
   6 Cl:   -0.072073
   7 C :    0.088480
   8 C :   -0.148525
   9 C :    0.070792
  10 C :    0.041112
  11 C :    0.060813
  12 C :   -0.124952
  13 Cl:   -0.043499
  14 Cl:   -0.020382
  15 Cl:   -0.043960
  16 Cl:   -0.055474
  17 H :    0.061027
  18 H :    0.059471
  19 H :    0.054334
  20 H :    0.051179
  21 H :    0.050032
Sum of atomic charges:    0.0000000

LOEWDIN ATOMIC CHARGES
----------------------
   0 C :   -0.131869
   1 C :   -0.128018
   2 C :   -0.131222
   3 C :   -0.039377
   4 C :   -0.123575
   5 C :   -0.137361
   6 Cl:    0.140608
   7 C :   -0.030217
   8 C :   -0.130343
   9 C :   -0.152886
  10 C :   -0.182269
  11 C :   -0.152974
  12 C :   -0.131049
  13 Cl:    0.159997
  14 Cl:    0.169670
  15 Cl:    0.159126
  16 Cl:    0.159993
  17 H :    0.136385
  18 H :    0.136419
  19 H :    0.137474
  20 H :    0.137819
  21 H :    0.133668

  Mayer bond orders larger than 0.100000
B(  0-C ,  1-C ) :   1.3495 B(  0-C ,  5-C ) :   1.3694 B(  0-C , 17-H ) :   0.9654
B(  1-C ,  2-C ) :   1.3580 B(  1-C , 18-H ) :   0.9613 B(  2-C ,  3-C ) :   1.4039
B(  2-C , 16-Cl) :   1.0252 B(  3-C ,  4-C ) :   1.3623 B(  3-C ,  7-C ) :   0.9521
B(  4-C ,  5-C ) :   1.3400 B(  4-C , 19-H ) :   0.9641 B(  5-C ,  6-Cl) :   0.9750
B(  7-C ,  8-C ) :   1.3192 B(  7-C , 12-C ) :   1.3053 B(  8-C ,  9-C ) :   1.3524
B(  8-C , 20-H ) :   0.9684 B(  9-C , 10-C ) :   1.4029 B(  9-C , 15-Cl) :   1.0402
B( 10-C , 11-C ) :   1.3965 B( 10-C , 14-Cl) :   1.1160 B( 11-C , 12-C ) :   1.3708
B( 11-C , 13-Cl) :   1.0403 B( 12-C , 21-H ) :   0.9640

Dispersion correction           -0.041542600
FINAL SINGLE POINT ENERGY     -2758.684232171641

DIPOLE MOMENT
-------------

Method             : SCF
Type of density    : Electron Density
Multiplicity       :   1
Irrep              :   0
Energy             : -2758.7153184965554829 Eh
Relativity type    :
Basis              : AO
                                X                 Y                 Z
Electronic contribution:     15.092600537      -1.794824925       0.524767530
Nuclear contribution   :    -15.855701775       1.968184606      -0.583350421
                        -----------------------------------------
Total Dipole Moment    :     -0.763101238       0.173359681      -0.058582891
                        -----------------------------------------
Magnitude (a.u.)       :      0.784735008
Magnitude (Debye)      :      1.994637875

Rotational constants in cm-1:             0.014457             0.005151             0.004253
Rotational constants in MHz :           433.418741           154.427632           127.502986

                             ****ORCA TERMINATED NORMALLY****
TOTAL RUN TIME: 0 days 0 hours 0 minutes 13 seconds 243 msec
