                         Program Version 6.0.1  -  RELEASE   -
|  1> ! pbe def2-sv(p) def2/J RI DEFGRID1 loosescf d4 GCP(DFT/SV(P)) printgap
|  2> %output
|  3>     printlevel normal
|  4> end
|  5> * xyz 0 1
|  6> C -2.8407046463 -0.5991401181 0.0535170298
|  7> O -1.4840744225 -0.9172323617 0.3557334456
|  8> C -0.5356488778 -0.0994730016 -0.1097979683
|  9> O -0.7310564367 0.8900527217 -0.7522005702
| 10> C 0.8236298232 -0.6436850742 0.2995876558
| 11> Cl 2.0820752281 0.5815953366 0.0687939612
| 12> H -2.8917299013 0.3566274326 -0.4702111955
| 13> H -3.3896925514 -0.5466215397 0.9928953414
| 14> H -3.2495574195 -1.3925489644 -0.5722794729
| 15> H 1.0691991356 -1.50520999 -0.3234353965
| 16> H 0.8079618844 -0.9425058202 1.3472611308
| 17> *
| 18>
| 19>                          ****END OF INPUT****

CARTESIAN COORDINATES (ANGSTROEM)
---------------------------------
  C     -2.840705   -0.599140    0.053517
  O     -1.484074   -0.917232    0.355733
  C     -0.535649   -0.099473   -0.109798
  O     -0.731056    0.890053   -0.752201
  C      0.823630   -0.643685    0.299588
  Cl     2.082075    0.581595    0.068794
  H     -2.891730    0.356627   -0.470211
  H     -3.389693   -0.546622    0.992895
  H     -3.249557   -1.392549   -0.572279
  H      1.069199   -1.505210   -0.323435
  H      0.807962   -0.942506    1.347261

 Total Charge           Charge          ....    0
 Multiplicity           Mult            ....    1
 Number of Electrons    NEL             ....   56
 Basis Dimension        Dim             ....   98

ORBITAL ENERGIES
----------------

  NO   OCC          E(Eh)            E(eV)
   0   2.0000    -100.625416     -2738.1568
   1   2.0000     -18.813379      -511.9381
   2   2.0000     -18.751646      -510.2582
   3   2.0000     -10.022480      -272.7255
   4   2.0000      -9.957006      -270.9439
   5   2.0000      -9.947835      -270.6944
   6   2.0000      -9.161352      -249.2931
   7   2.0000      -6.993470      -190.3020
   8   2.0000      -6.980711      -189.9548
   9   2.0000      -6.980599      -189.9517
  10   2.0000      -1.020135       -27.7593
  11   2.0000      -0.933118       -25.3914
  12   2.0000      -0.784682       -21.3523
  13   2.0000      -0.691567       -18.8185
  14   2.0000      -0.615841       -16.7579
  15   2.0000      -0.516882       -14.0651
  16   2.0000      -0.468783       -12.7562
  17   2.0000      -0.457314       -12.4441
  18   2.0000      -0.428654       -11.6643
  19   2.0000      -0.415830       -11.3153
  20   2.0000      -0.384468       -10.4619
  21   2.0000      -0.374324       -10.1859
  22   2.0000      -0.353657        -9.6235
  23   2.0000      -0.314369        -8.5544
  24   2.0000      -0.271228        -7.3805
  25   2.0000      -0.253646        -6.9021
  26   2.0000      -0.251025        -6.8307
  27   2.0000      -0.240360        -6.5405
  28   0.0000      -0.033769        -0.9189
  29   0.0000       0.008606         0.2342
  30   0.0000       0.042894         1.1672
  31   0.0000       0.062245         1.6938
  32   0.0000       0.089520         2.4360

MULLIKEN ATOMIC CHARGES
-----------------------
   0 C :   -0.136589
   1 O :   -0.254670
   2 C :    0.126834
   3 O :   -0.155155
   4 C :   -0.178400
   5 Cl:   -0.113248
   6 H :    0.139182
   7 H :    0.126652
   8 H :    0.125502
   9 H :    0.163506
  10 H :    0.156386
Sum of atomic charges:    0.0000000

LOEWDIN ATOMIC CHARGES
----------------------
   0 C :   -0.209814
   1 O :   -0.080934
   2 C :    0.007511
   3 O :   -0.131414
   4 C :   -0.311374
   5 Cl:    0.064824
   6 H :    0.126461
   7 H :    0.122268
   8 H :    0.121402
   9 H :    0.148255
  10 H :    0.142815

  Mayer bond orders larger than 0.100000
B(  0-C ,  1-O ) :   0.9357 B(  0-C ,  6-H ) :   0.9291 B(  0-C ,  7-H ) :   0.9601
B(  0-C ,  8-H ) :   0.9597 B(  1-O ,  2-C ) :   1.1879 B(  1-O ,  3-O ) :   0.1031
B(  2-C ,  3-O ) :   2.1437 B(  2-C ,  4-C ) :   0.9472 B(  4-C ,  5-Cl) :   1.0930
B(  4-C ,  9-H ) :   0.9060 B(  4-C , 10-H ) :   0.9137

Dispersion correction           -0.008155932
FINAL SINGLE POINT ENERGY      -727.081350825228

DIPOLE MOMENT
-------------

Method             : SCF
Type of density    : Electron Density
Multiplicity       :   1
Irrep              :   0
Energy             :  -727.1236432573584807 Eh
Relativity type    :
Basis              : AO
                                X                 Y                 Z
Electronic contribution:      9.248629049       3.628870934      -0.456899805
Nuclear contribution   :    -10.007973205      -4.562105187       0.815792785
                        -----------------------------------------
Total Dipole Moment    :     -0.759344156      -0.933234253       0.358892980
                        -----------------------------------------
Magnitude (a.u.)       :      1.255521362
Magnitude (Debye)      :      3.191281686

Rotational constants in cm-1:             0.324808             0.046826             0.041812
Rotational constants in MHz :          9737.508933          1403.795750          1253.500179

                             ****ORCA TERMINATED NORMALLY****
TOTAL RUN TIME: 0 days 0 hours 0 minutes 7 seconds 421 msec
