                         Program Version 6.0.1  -  RELEASE   -
|  1> ! r2scan-3c def2/J RI DEFGRID2 scfconv6 printgap
|  2> %output
|  3>     printlevel normal
|  4> end
|  5> * xyz 0 1
|  6> C -2.26403454 -0.2459864867 -0.2128608761
|  7> C -1.6687651896 0.9975815119 -0.3406496326
|  8> C -0.3184781625 1.1498419529 -0.0823851513
|  9> C 0.4506182743 0.0610478599 0.3063817833
| 10> C -0.1507753073 -1.183789881 0.425249132
| 11> C -1.5024382524 -1.3363846402 0.1698717704
| 12> C 1.9272717105 0.2297336017 0.5509407016
| 13> O 2.5849709855 0.2347819771 -0.703726914
| 14> H -3.3187744626 -0.3652122262 -0.4132120242
| 15> H -2.2587313477 1.8511178871 -0.6414048391
| 16> H 0.1467192681 2.1191926682 -0.1855147325
| 17> H 0.4417541306 -2.0380945283 0.7195797788
| 18> H -1.9615056867 -2.3094076495 0.2678348153
| 19> H 2.111148271 1.1775066075 1.079473066
| 20> H 2.3005501641 -0.595210915 1.1749295534
| 21> H 3.5310268196 0.3413857953 -0.561410159
| 22> *
| 23>
| 24>                          ****END OF INPUT****

CARTESIAN COORDINATES (ANGSTROEM)
---------------------------------
  C     -2.264035   -0.245986   -0.212861
  C     -1.668765    0.997582   -0.340650
  C     -0.318478    1.149842   -0.082385
  C      0.450618    0.061048    0.306382
  C     -0.150775   -1.183790    0.425249
  C     -1.502438   -1.336385    0.169872
  C      1.927272    0.229734    0.550941
  O      2.584971    0.234782   -0.703727
  H     -3.318774   -0.365212   -0.413212
  H     -2.258731    1.851118   -0.641405
  H      0.146719    2.119193   -0.185515
  H      0.441754   -2.038095    0.719580
  H     -1.961506   -2.309408    0.267835
  H      2.111148    1.177507    1.079473
  H      2.300550   -0.595211    1.174930
  H      3.531027    0.341386   -0.561410

 Total Charge           Charge          ....    0
 Multiplicity           Mult            ....    1
 Number of Electrons    NEL             ....   58
 Basis Dimension        Dim             ....  197

ORBITAL ENERGIES
----------------

  NO   OCC          E(Eh)            E(eV)
   0   2.0000     -18.950561      -515.6710
   1   2.0000     -10.083172      -274.3770
   2   2.0000     -10.040357      -273.2120
   3   2.0000     -10.034577      -273.0547
   4   2.0000     -10.034307      -273.0474
   5   2.0000     -10.034020      -273.0396
   6   2.0000     -10.033804      -273.0337
   7   2.0000     -10.033319      -273.0205
   8   2.0000      -0.988173       -26.8896
   9   2.0000      -0.827929       -22.5291
  10   2.0000      -0.735933       -20.0258
  11   2.0000      -0.716357       -19.4931
  12   2.0000      -0.643783       -17.5182
  13   2.0000      -0.576790       -15.6952
  14   2.0000      -0.552700       -15.0397
  15   2.0000      -0.486130       -13.2283
  16   2.0000      -0.483648       -13.1607
  17   2.0000      -0.440969       -11.9994
  18   2.0000      -0.424637       -11.5550
  19   2.0000      -0.392280       -10.6745
  20   2.0000      -0.388135       -10.5617
  21   2.0000      -0.382079       -10.3969
  22   2.0000      -0.343695        -9.3524
  23   2.0000      -0.330527        -8.9941
  24   2.0000      -0.310605        -8.4520
  25   2.0000      -0.296297        -8.0627
  26   2.0000      -0.243524        -6.6266
  27   2.0000      -0.235983        -6.4214
  28   2.0000      -0.232554        -6.3281
  29   0.0000      -0.036299        -0.9877
  30   0.0000      -0.030551        -0.8313
  31   0.0000       0.065899         1.7932
  32   0.0000       0.083119         2.2618
  33   0.0000       0.112529         3.0621

MULLIKEN ATOMIC CHARGES
-----------------------
   0 C :   -0.134804
   1 C :   -0.160492
   2 C :   -0.176059
   3 C :    0.153074
   4 C :   -0.194681
   5 C :   -0.158850
   6 C :   -0.178406
   7 O :   -0.413195
   8 H :    0.146519
   9 H :    0.145304
  10 H :    0.148214
  11 H :    0.146496
  12 H :    0.145204
  13 H :    0.123331
  14 H :    0.120850
  15 H :    0.287495
Sum of atomic charges:    0.0000000

LOEWDIN ATOMIC CHARGES
----------------------
   0 C :   -0.163875
   1 C :   -0.162178
   2 C :   -0.142975
   3 C :   -0.071891
   4 C :   -0.149233
   5 C :   -0.163035
   6 C :    0.028564
   7 O :   -0.608271
   8 H :    0.166998
   9 H :    0.167087
  10 H :    0.172491
  11 H :    0.170404
  12 H :    0.167009
  13 H :    0.163380
  14 H :    0.161922
  15 H :    0.263604

  Mayer bond orders larger than 0.100000
B(  0-C ,  1-C ) :   1.4225 B(  0-C ,  5-C ) :   1.4332 B(  0-C ,  8-H ) :   0.9461
B(  1-C ,  2-C ) :   1.4395 B(  1-C ,  9-H ) :   0.9500 B(  2-C ,  3-C ) :   1.4181
B(  2-C , 10-H ) :   0.9401 B(  3-C ,  4-C ) :   1.4239 B(  3-C ,  6-C ) :   0.8899
B(  4-C ,  5-C ) :   1.4340 B(  4-C , 11-H ) :   0.9410 B(  5-C , 12-H ) :   0.9482
B(  6-C ,  7-O ) :   0.9548 B(  6-C , 13-H ) :   0.9730 B(  6-C , 14-H ) :   0.9859
B(  7-O , 15-H ) :   0.9026

Dispersion correction           -0.004896651
FINAL SINGLE POINT ENERGY      -346.686430900624

DIPOLE MOMENT
-------------

Method             : SCF
Type of density    : Electron Density
Multiplicity       :   1
Irrep              :   0
Energy             :  -346.6872184734132816 Eh
Relativity type    :
Basis              : AO
                                X                 Y                 Z
Electronic contribution:     -0.690890928      -0.109214084      -0.885489022
Nuclear contribution   :      0.969141502       0.173547936       1.340795250
                        -----------------------------------------
Total Dipole Moment    :      0.278250573       0.064333852       0.455306229
                        -----------------------------------------
Magnitude (a.u.)       :      0.537462546
Magnitude (Debye)      :      1.366121224

Rotational constants in cm-1:             0.158846             0.049525             0.040848
Rotational constants in MHz :          4762.084169          1484.729945          1224.586305

                             ****ORCA TERMINATED NORMALLY****
TOTAL RUN TIME: 0 days 0 hours 2 minutes 44 seconds 128 msec
