                         Program Version 6.0.1  -  RELEASE   -
|  1> ! pbe def2-sv(p) def2/J RI DEFGRID1 loosescf d4 GCP(DFT/SV(P)) printgap
|  2> %output
|  3>     printlevel normal
|  4> end
|  5> * xyz 0 1
|  6> C -2.2593571987 -1.0391383552 0.6857435765
|  7> C -0.833287142 -0.4491256512 0.788849027
|  8> H -0.6932378973 -0.0807686818 1.8165314971
|  9> C -0.6296711435 0.7187114038 -0.176577926
| 10> H -0.7450969681 0.3437176978 -1.2066352181
| 11> C 0.7907536886 1.2979158491 -0.0383600245
| 12> H 0.8066423801 2.021631312 0.7852841883
| 13> C 1.8266409707 0.188983493 0.275151138
| 14> H 2.7432312199 0.4103643913 -0.28122328
| 15> C 1.2637960966 -1.1643717702 -0.1763966537
| 16> H 1.9756059611 -1.9701089503 0.0681293805
| 17> O 0.1086891854 -1.495956944 0.5437283892
| 18> O 1.0475107094 -1.1066628996 -1.5579319376
| 19> O 2.1886183557 0.1406217933 1.6272012469
| 20> O 1.1276660678 2.0206841525 -1.1946430935
| 21> O -1.6172774876 1.6919074376 0.084679756
| 22> O -2.8477151315 -0.8978733682 -0.5752177248
| 23> H -2.883165878 -0.572856665 1.4574637755
| 24> H -2.1898429621 -2.111458568 0.8797111607
| 25> H 0.5651085327 -1.8993602229 -1.8252747116
| 26> H 1.5222964186 -0.3579605015 2.1159055624
| 27> H 1.240037347 1.3912940674 -1.9190737303
| 28> H -1.3382936836 2.5106244581 -0.3435360904
| 29> H -3.0155015386 0.0429365563 -0.7154159155
| 30> *
| 31>
| 32>                          ****END OF INPUT****

CARTESIAN COORDINATES (ANGSTROEM)
---------------------------------
  C     -2.259357   -1.039138    0.685744
  C     -0.833287   -0.449126    0.788849
  H     -0.693238   -0.080769    1.816531
  C     -0.629671    0.718711   -0.176578
  H     -0.745097    0.343718   -1.206635
  C      0.790754    1.297916   -0.038360
  H      0.806642    2.021631    0.785284
  C      1.826641    0.188983    0.275151
  H      2.743231    0.410364   -0.281223
  C      1.263796   -1.164372   -0.176397
  H      1.975606   -1.970109    0.068129
  O      0.108689   -1.495957    0.543728
  O      1.047511   -1.106663   -1.557932
  O      2.188618    0.140622    1.627201
  O      1.127666    2.020684   -1.194643
  O     -1.617277    1.691907    0.084680
  O     -2.847715   -0.897873   -0.575218
  H     -2.883166   -0.572857    1.457464
  H     -2.189843   -2.111459    0.879711
  H      0.565109   -1.899360   -1.825275
  H      1.522296   -0.357961    2.115906
  H      1.240037    1.391294   -1.919074
  H     -1.338294    2.510624   -0.343536
  H     -3.015502    0.042937   -0.715416

 Total Charge           Charge          ....    0
 Multiplicity           Mult            ....    1
 Number of Electrons    NEL             ....   96
 Basis Dimension        Dim             ....  192

ORBITAL ENERGIES
----------------

  NO   OCC          E(Eh)            E(eV)
   0   2.0000     -18.784423      -511.1501
   1   2.0000     -18.778338      -510.9845
   2   2.0000     -18.766477      -510.6618
   3   2.0000     -18.759519      -510.4725
   4   2.0000     -18.755148      -510.3535
   5   2.0000     -18.747133      -510.1354
   6   2.0000      -9.996362      -272.0148
   7   2.0000      -9.952336      -270.8168
   8   2.0000      -9.947774      -270.6927
   9   2.0000      -9.945412      -270.6284
  10   2.0000      -9.943523      -270.5770
  11   2.0000      -9.932998      -270.2906
  12   2.0000      -0.996595       -27.1187
  13   2.0000      -0.950977       -25.8774
  14   2.0000      -0.939774       -25.5726
  15   2.0000      -0.934355       -25.4251
  16   2.0000      -0.923522       -25.1303
  17   2.0000      -0.920663       -25.0525
  18   2.0000      -0.709359       -19.3027
  19   2.0000      -0.695115       -18.9150
  20   2.0000      -0.624496       -16.9934
  21   2.0000      -0.596788       -16.2394
  22   2.0000      -0.572697       -15.5839
  23   2.0000      -0.533895       -14.5280
  24   2.0000      -0.515242       -14.0204
  25   2.0000      -0.493424       -13.4267
  26   2.0000      -0.466173       -12.6852
  27   2.0000      -0.458619       -12.4796
  28   2.0000      -0.455592       -12.3973
  29   2.0000      -0.445484       -12.1222
  30   2.0000      -0.426270       -11.5994
  31   2.0000      -0.403711       -10.9855
  32   2.0000      -0.381318       -10.3762
  33   2.0000      -0.376669       -10.2497
  34   2.0000      -0.370869       -10.0919
  35   2.0000      -0.361694        -9.8422
  36   2.0000      -0.352694        -9.5973
  37   2.0000      -0.318047        -8.6545
  38   2.0000      -0.314315        -8.5530
  39   2.0000      -0.296808        -8.0766
  40   2.0000      -0.285890        -7.7795
  41   2.0000      -0.274513        -7.4699
  42   2.0000      -0.262063        -7.1311
  43   2.0000      -0.254712        -6.9311
  44   2.0000      -0.244654        -6.6574
  45   2.0000      -0.230912        -6.2834
  46   2.0000      -0.217786        -5.9263
  47   2.0000      -0.207331        -5.6418
  48   0.0000       0.009856         0.2682
  49   0.0000       0.023575         0.6415
  50   0.0000       0.026708         0.7268
  51   0.0000       0.054267         1.4767
  52   0.0000       0.062393         1.6978

MULLIKEN ATOMIC CHARGES
-----------------------
   0 C :    0.071551
   1 C :    0.008389
   2 H :    0.051305
   3 C :    0.055801
   4 H :    0.046791
   5 C :    0.057103
   6 H :    0.070025
   7 C :    0.037275
   8 H :    0.083795
   9 C :    0.130606
  10 H :    0.077087
  11 O :   -0.312238
  12 O :   -0.398530
  13 O :   -0.411005
  14 O :   -0.427597
  15 O :   -0.422978
  16 O :   -0.433920
  17 H :    0.080474
  18 H :    0.090718
  19 H :    0.311970
  20 H :    0.307900
  21 H :    0.305446
  22 H :    0.312772
  23 H :    0.307259
Sum of atomic charges:   -0.0000000

LOEWDIN ATOMIC CHARGES
----------------------
   0 C :   -0.125093
   1 C :   -0.069989
   2 H :    0.101500
   3 C :   -0.096652
   4 H :    0.102351
   5 C :   -0.079953
   6 H :    0.119969
   7 C :   -0.083809
   8 H :    0.123792
   9 C :   -0.013197
  10 H :    0.101625
  11 O :   -0.145876
  12 O :   -0.315768
  13 O :   -0.303663
  14 O :   -0.315099
  15 O :   -0.322812
  16 O :   -0.331000
  17 H :    0.103668
  18 H :    0.119585
  19 H :    0.291473
  20 H :    0.283331
  21 H :    0.283381
  22 H :    0.292023
  23 H :    0.280211

  Mayer bond orders larger than 0.100000
B(  0-C ,  1-C ) :   1.0003 B(  0-C , 16-O ) :   1.1152 B(  0-C , 17-H ) :   0.9190
B(  0-C , 18-H ) :   0.9209 B(  1-C ,  2-H ) :   0.8716 B(  1-C ,  3-C ) :   1.0598
B(  1-C , 11-O ) :   0.9622 B(  3-C ,  4-H ) :   0.8178 B(  3-C ,  5-C ) :   1.0554
B(  3-C , 15-O ) :   1.0446 B(  5-C ,  6-H ) :   0.8603 B(  5-C ,  7-C ) :   0.9624
B(  5-C , 14-O ) :   1.0229 B(  7-C ,  8-H ) :   0.8815 B(  7-C ,  9-C ) :   1.0499
B(  7-C , 13-O ) :   1.0589 B(  9-C , 10-H ) :   0.8983 B(  9-C , 11-O ) :   1.0613
B(  9-C , 12-O ) :   1.1020 B( 12-O , 19-H ) :   0.8340 B( 13-O , 20-H ) :   0.8390
B( 14-O , 21-H ) :   0.8421 B( 15-O , 22-H ) :   0.8386 B( 16-O , 23-H ) :   0.8279

Dispersion correction           -0.025254884
FINAL SINGLE POINT ENERGY      -685.692308615674

DIPOLE MOMENT
-------------

Method             : SCF
Type of density    : Electron Density
Multiplicity       :   1
Irrep              :   0
Energy             :  -685.8252736950346389 Eh
Relativity type    :
Basis              : AO
                                X                 Y                 Z
Electronic contribution:      1.757976093       0.025212176      -0.964564901
Nuclear contribution   :     -1.887690939      -0.249905403       0.764548553
                        -----------------------------------------
Total Dipole Moment    :     -0.129714846      -0.224693227      -0.200016349
                        -----------------------------------------
Magnitude (a.u.)       :      0.327596592
Magnitude (Debye)      :      0.832684362

Rotational constants in cm-1:             0.041761             0.027094             0.022825
Rotational constants in MHz :          1251.963743           812.248218           684.266588

                             ****ORCA TERMINATED NORMALLY****
TOTAL RUN TIME: 0 days 0 hours 0 minutes 7 seconds 943 msec
