                         Program Version 6.0.1  -  RELEASE   -
|  1> ! pbe def2-sv(p) def2/J RI DEFGRID1 loosescf d4 GCP(DFT/SV(P)) printgap
|  2> %output
|  3>     printlevel normal
|  4> end
|  5> * xyz 0 1
|  6> C -2.1041908447 -1.3644151813 -0.0789669388
|  7> C -1.0017707203 -0.5224340872 0.5863229121
|  8> H -1.396574512 -0.1359735883 1.5345170616
|  9> C -0.6181926873 0.6683468454 -0.298827533
| 10> H -0.5003211311 0.3330513986 -1.344829923
| 11> C 0.7248141151 1.238978652 0.1797894143
| 12> H 0.677836184 1.4549169746 1.2522050923
| 13> C 1.8222529289 0.1959088169 -0.0566825215
| 14> H 2.1816907705 0.2801517735 -1.0966056809
| 15> C 1.2354272585 -1.2328640062 0.0862918963
| 16> H 1.9843399733 -1.8757260781 0.5805971616
| 17> O 0.1305746494 -1.3153825932 0.9303138512
| 18> O 0.9645069895 -1.6958477113 -1.2071013952
| 19> O 2.857039554 0.4437477006 0.8530055224
| 20> O 0.9699600273 2.4743006318 -0.4403971784
| 21> O -1.6273138665 1.6466923463 -0.2388314862
| 22> O -3.332721438 -0.6946126291 -0.0785552031
| 23> H -2.2447678712 -2.2888062655 0.4878193773
| 24> H -1.7994804725 -1.6206754708 -1.106797325
| 25> H 0.5595905465 -2.5702848141 -1.1473679545
| 26> H 3.5876816682 -0.1648018844 0.6953825795
| 27> H 1.2201454092 2.3268155692 -1.3610789967
| 28> H -1.1896127687 2.5107948478 -0.2757253589
| 29> H -3.1732748589 0.2296328945 -0.3163188938
| 30> *
| 31>
| 32>                          ****END OF INPUT****

CARTESIAN COORDINATES (ANGSTROEM)
---------------------------------
  C     -2.104191   -1.364415   -0.078967
  C     -1.001771   -0.522434    0.586323
  H     -1.396575   -0.135974    1.534517
  C     -0.618193    0.668347   -0.298828
  H     -0.500321    0.333051   -1.344830
  C      0.724814    1.238979    0.179789
  H      0.677836    1.454917    1.252205
  C      1.822253    0.195909   -0.056683
  H      2.181691    0.280152   -1.096606
  C      1.235427   -1.232864    0.086292
  H      1.984340   -1.875726    0.580597
  O      0.130575   -1.315383    0.930314
  O      0.964507   -1.695848   -1.207101
  O      2.857040    0.443748    0.853006
  O      0.969960    2.474301   -0.440397
  O     -1.627314    1.646692   -0.238831
  O     -3.332721   -0.694613   -0.078555
  H     -2.244768   -2.288806    0.487819
  H     -1.799480   -1.620675   -1.106797
  H      0.559591   -2.570285   -1.147368
  H      3.587682   -0.164802    0.695383
  H      1.220145    2.326816   -1.361079
  H     -1.189613    2.510795   -0.275725
  H     -3.173275    0.229633   -0.316319

 Total Charge           Charge          ....    0
 Multiplicity           Mult            ....    1
 Number of Electrons    NEL             ....   96
 Basis Dimension        Dim             ....  192

ORBITAL ENERGIES
----------------

  NO   OCC          E(Eh)            E(eV)
   0   2.0000     -18.777768      -510.9690
   1   2.0000     -18.775141      -510.8976
   2   2.0000     -18.773344      -510.8487
   3   2.0000     -18.764154      -510.5986
   4   2.0000     -18.761942      -510.5384
   5   2.0000     -18.733443      -509.7629
   6   2.0000      -9.997214      -272.0380
   7   2.0000      -9.956462      -270.9291
   8   2.0000      -9.953967      -270.8612
   9   2.0000      -9.947423      -270.6831
  10   2.0000      -9.944415      -270.6013
  11   2.0000      -9.924775      -270.0668
  12   2.0000      -0.993540       -27.0356
  13   2.0000      -0.962802       -26.1992
  14   2.0000      -0.943578       -25.6761
  15   2.0000      -0.931513       -25.3478
  16   2.0000      -0.922353       -25.0985
  17   2.0000      -0.911401       -24.8005
  18   2.0000      -0.713615       -19.4184
  19   2.0000      -0.698484       -19.0067
  20   2.0000      -0.617938       -16.8149
  21   2.0000      -0.598740       -16.2926
  22   2.0000      -0.574153       -15.6235
  23   2.0000      -0.537422       -14.6240
  24   2.0000      -0.520370       -14.1600
  25   2.0000      -0.488134       -13.2828
  26   2.0000      -0.473454       -12.8833
  27   2.0000      -0.463677       -12.6173
  28   2.0000      -0.449836       -12.2407
  29   2.0000      -0.435854       -11.8602
  30   2.0000      -0.426444       -11.6041
  31   2.0000      -0.405205       -11.0262
  32   2.0000      -0.394813       -10.7434
  33   2.0000      -0.375602       -10.2207
  34   2.0000      -0.369942       -10.0666
  35   2.0000      -0.358878        -9.7656
  36   2.0000      -0.336835        -9.1658
  37   2.0000      -0.326268        -8.8782
  38   2.0000      -0.314929        -8.5697
  39   2.0000      -0.299930        -8.1615
  40   2.0000      -0.287792        -7.8312
  41   2.0000      -0.271853        -7.3975
  42   2.0000      -0.264801        -7.2056
  43   2.0000      -0.246581        -6.7098
  44   2.0000      -0.241033        -6.5588
  45   2.0000      -0.226815        -6.1720
  46   2.0000      -0.224437        -6.1072
  47   2.0000      -0.202298        -5.5048
  48   0.0000       0.011157         0.3036
  49   0.0000       0.018132         0.4934
  50   0.0000       0.022195         0.6040
  51   0.0000       0.038249         1.0408
  52   0.0000       0.052782         1.4363

MULLIKEN ATOMIC CHARGES
-----------------------
   0 C :    0.086614
   1 C :    0.031738
   2 H :    0.080829
   3 C :    0.004257
   4 H :    0.060275
   5 C :    0.040771
   6 H :    0.084024
   7 C :    0.080538
   8 H :    0.056013
   9 C :    0.147591
  10 H :    0.050989
  11 O :   -0.303722
  12 O :   -0.400231
  13 O :   -0.399392
  14 O :   -0.412668
  15 O :   -0.424629
  16 O :   -0.442697
  17 H :    0.083254
  18 H :    0.051662
  19 H :    0.306600
  20 H :    0.302283
  21 H :    0.302913
  22 H :    0.307228
  23 H :    0.305760
Sum of atomic charges:   -0.0000000

LOEWDIN ATOMIC CHARGES
----------------------
   0 C :   -0.130015
   1 C :   -0.069231
   2 H :    0.121187
   3 C :   -0.089563
   4 H :    0.101626
   5 C :   -0.070416
   6 H :    0.129946
   7 C :   -0.081272
   8 H :    0.103102
   9 C :   -0.010344
  10 H :    0.094138
  11 O :   -0.132798
  12 O :   -0.316086
  13 O :   -0.306928
  14 O :   -0.300680
  15 O :   -0.321119
  16 O :   -0.336943
  17 H :    0.109322
  18 H :    0.087633
  19 H :    0.285309
  20 H :    0.286748
  21 H :    0.286846
  22 H :    0.283253
  23 H :    0.276287

  Mayer bond orders larger than 0.100000
B(  0-C ,  1-C ) :   1.0612 B(  0-C , 16-O ) :   1.0889 B(  0-C , 17-H ) :   0.9198
B(  0-C , 18-H ) :   0.8984 B(  1-C ,  2-H ) :   0.8808 B(  1-C ,  3-C ) :   0.9731
B(  1-C , 11-O ) :   0.9509 B(  3-C ,  4-H ) :   0.8683 B(  3-C ,  5-C ) :   1.0359
B(  3-C , 15-O ) :   1.0585 B(  5-C ,  6-H ) :   0.8506 B(  5-C ,  7-C ) :   1.0299
B(  5-C , 14-O ) :   1.0219 B(  7-C ,  8-H ) :   0.8709 B(  7-C ,  9-C ) :   0.9778
B(  7-C , 13-O ) :   1.1053 B(  9-C , 10-H ) :   0.8968 B(  9-C , 11-O ) :   1.1093
B(  9-C , 12-O ) :   1.0767 B( 12-O , 19-H ) :   0.8313 B( 13-O , 20-H ) :   0.8462
B( 14-O , 21-H ) :   0.8458 B( 15-O , 22-H ) :   0.8109 B( 16-O , 23-H ) :   0.8229

Dispersion correction           -0.024668958
FINAL SINGLE POINT ENERGY      -685.691094352482

DIPOLE MOMENT
-------------

Method             : SCF
Type of density    : Electron Density
Multiplicity       :   1
Irrep              :   0
Energy             :  -685.8233363938436469 Eh
Relativity type    :
Basis              : AO
                                X                 Y                 Z
Electronic contribution:      1.382391272       1.100297270       1.203057299
Nuclear contribution   :     -0.087574793      -1.414143155      -1.971161031
                        -----------------------------------------
Total Dipole Moment    :      1.294816478      -0.313845885      -0.768103733
                        -----------------------------------------
Magnitude (a.u.)       :      1.537866150
Magnitude (Debye)      :      3.908945105

Rotational constants in cm-1:             0.044070             0.026085             0.018950
Rotational constants in MHz :          1321.171619           782.010793           568.117966

                             ****ORCA TERMINATED NORMALLY****
TOTAL RUN TIME: 0 days 0 hours 0 minutes 12 seconds 250 msec
