                         Program Version 6.0.1  -  RELEASE   -
|  1> ! pbe def2-sv(p) def2/J RI DEFGRID1 loosescf d4 GCP(DFT/SV(P)) printgap
|  2> %output
|  3>     printlevel normal
|  4> end
|  5> * xyz 0 1
|  6> C -2.0217471537 -0.6178098939 -0.6237728484
|  7> C -1.1790951814 -0.0765065002 0.5584138441
|  8> H -1.810303824 -0.0072946548 1.4526770021
|  9> C -0.6275710969 1.3372006042 0.2663136496
| 10> H -1.3787491781 1.8680441997 -0.3305003677
| 11> C 0.6979024921 1.3018780723 -0.5322575975
| 12> H 1.148530485 2.2995988439 -0.4439109
| 13> C 1.6521164763 0.2692389543 0.1035433347
| 14> H 2.5694921457 0.2085652301 -0.491906875
| 15> C 0.9576196369 -1.1014765911 0.1392642647
| 16> H 1.6038755046 -1.8259066176 0.668921962
| 17> O -0.1800170777 -1.0186610626 0.954299226
| 18> O 0.6951721713 -1.5496230459 -1.1538529679
| 19> O 1.993979323 0.6407550076 1.421565232
| 20> O 0.5059102378 1.0667410006 -1.8980792419
| 21> O -0.4767616992 2.0734214372 1.45408949
| 22> O -1.9915995999 -2.0266368151 -0.6854035963
| 23> H -1.6273355218 -0.2680803407 -1.5794943126
| 24> H -3.0505621554 -0.2528412958 -0.5191304886
| 25> H -0.1123907371 -2.0982546346 -1.131159238
| 26> H 1.4781480039 0.0941646645 2.0318462585
| 27> H 0.5492168376 0.1076111273 -2.0507634267
| 28> H 0.4129021483 1.9175920102 1.8045780934
| 29> H -2.2548737425 -2.3795079585 0.1732087809
| 30> *
| 31>
| 32>                          ****END OF INPUT****

CARTESIAN COORDINATES (ANGSTROEM)
---------------------------------
  C     -2.021747   -0.617810   -0.623773
  C     -1.179095   -0.076507    0.558414
  H     -1.810304   -0.007295    1.452677
  C     -0.627571    1.337201    0.266314
  H     -1.378749    1.868044   -0.330500
  C      0.697902    1.301878   -0.532258
  H      1.148530    2.299599   -0.443911
  C      1.652116    0.269239    0.103543
  H      2.569492    0.208565   -0.491907
  C      0.957620   -1.101477    0.139264
  H      1.603876   -1.825907    0.668922
  O     -0.180017   -1.018661    0.954299
  O      0.695172   -1.549623   -1.153853
  O      1.993979    0.640755    1.421565
  O      0.505910    1.066741   -1.898079
  O     -0.476762    2.073421    1.454089
  O     -1.991600   -2.026637   -0.685404
  H     -1.627336   -0.268080   -1.579494
  H     -3.050562   -0.252841   -0.519130
  H     -0.112391   -2.098255   -1.131159
  H      1.478148    0.094165    2.031846
  H      0.549217    0.107611   -2.050763
  H      0.412902    1.917592    1.804578
  H     -2.254874   -2.379508    0.173209

 Total Charge           Charge          ....    0
 Multiplicity           Mult            ....    1
 Number of Electrons    NEL             ....   96
 Basis Dimension        Dim             ....  192

ORBITAL ENERGIES
----------------

  NO   OCC          E(Eh)            E(eV)
   0   2.0000     -18.792826      -511.3788
   1   2.0000     -18.783583      -511.1273
   2   2.0000     -18.782469      -511.0970
   3   2.0000     -18.777367      -510.9581
   4   2.0000     -18.744244      -510.0568
   5   2.0000     -18.743205      -510.0285
   6   2.0000     -10.005557      -272.2650
   7   2.0000      -9.954956      -270.8881
   8   2.0000      -9.954286      -270.8699
   9   2.0000      -9.950650      -270.7709
  10   2.0000      -9.944363      -270.5999
  11   2.0000      -9.944052      -270.5914
  12   2.0000      -1.008451       -27.4413
  13   2.0000      -0.957790       -26.0628
  14   2.0000      -0.951218       -25.8840
  15   2.0000      -0.933392       -25.3989
  16   2.0000      -0.928659       -25.2701
  17   2.0000      -0.916544       -24.9404
  18   2.0000      -0.712078       -19.3766
  19   2.0000      -0.695409       -18.9230
  20   2.0000      -0.631867       -17.1940
  21   2.0000      -0.600719       -16.3464
  22   2.0000      -0.588918       -16.0253
  23   2.0000      -0.538079       -14.6419
  24   2.0000      -0.515492       -14.0273
  25   2.0000      -0.496844       -13.5198
  26   2.0000      -0.480009       -13.0617
  27   2.0000      -0.462337       -12.5808
  28   2.0000      -0.450477       -12.2581
  29   2.0000      -0.439085       -11.9481
  30   2.0000      -0.429553       -11.6887
  31   2.0000      -0.420879       -11.4527
  32   2.0000      -0.399503       -10.8710
  33   2.0000      -0.382438       -10.4067
  34   2.0000      -0.374994       -10.2041
  35   2.0000      -0.365238        -9.9386
  36   2.0000      -0.349350        -9.5063
  37   2.0000      -0.333263        -9.0686
  38   2.0000      -0.313924        -8.5423
  39   2.0000      -0.313210        -8.5229
  40   2.0000      -0.291516        -7.9326
  41   2.0000      -0.282238        -7.6801
  42   2.0000      -0.271164        -7.3788
  43   2.0000      -0.256203        -6.9716
  44   2.0000      -0.254178        -6.9165
  45   2.0000      -0.237443        -6.4612
  46   2.0000      -0.219708        -5.9785
  47   2.0000      -0.204159        -5.5555
  48   0.0000       0.005760         0.1567
  49   0.0000       0.020607         0.5608
  50   0.0000       0.044905         1.2219
  51   0.0000       0.052211         1.4207
  52   0.0000       0.064040         1.7426

MULLIKEN ATOMIC CHARGES
-----------------------
   0 C :   -0.009110
   1 C :    0.013019
   2 H :    0.078141
   3 C :    0.056536
   4 H :    0.082162
   5 C :    0.042451
   6 H :    0.087495
   7 C :    0.013637
   8 H :    0.097587
   9 C :    0.155534
  10 H :    0.080440
  11 O :   -0.321436
  12 O :   -0.424563
  13 O :   -0.416085
  14 O :   -0.417200
  15 O :   -0.422806
  16 O :   -0.431387
  17 H :    0.098710
  18 H :    0.100665
  19 H :    0.320951
  20 H :    0.305209
  21 H :    0.310358
  22 H :    0.289341
  23 H :    0.310351
Sum of atomic charges:    0.0000000

LOEWDIN ATOMIC CHARGES
----------------------
   0 C :   -0.151029
   1 C :   -0.082222
   2 H :    0.118216
   3 C :   -0.072822
   4 H :    0.120653
   5 C :   -0.073958
   6 H :    0.118046
   7 C :   -0.084714
   8 H :    0.122142
   9 C :   -0.007868
  10 H :    0.099617
  11 O :   -0.146488
  12 O :   -0.312581
  13 O :   -0.306239
  14 O :   -0.319898
  15 O :   -0.322943
  16 O :   -0.318175
  17 H :    0.114539
  18 H :    0.113248
  19 H :    0.283844
  20 H :    0.278960
  21 H :    0.271398
  22 H :    0.268055
  23 H :    0.290217

  Mayer bond orders larger than 0.100000
B(  0-C ,  1-C ) :   1.0201 B(  0-C , 16-O ) :   1.0172 B(  0-C , 17-H ) :   0.9090
B(  0-C , 18-H ) :   0.9151 B(  1-C ,  2-H ) :   0.8930 B(  1-C ,  3-C ) :   0.9776
B(  1-C , 11-O ) :   0.9950 B(  3-C ,  4-H ) :   0.8928 B(  3-C ,  5-C ) :   0.9585
B(  3-C , 15-O ) :   1.0635 B(  5-C ,  6-H ) :   0.9044 B(  5-C ,  7-C ) :   0.9743
B(  5-C , 14-O ) :   1.0865 B(  7-C ,  8-H ) :   0.8966 B(  7-C ,  9-C ) :   1.0021
B(  7-C , 13-O ) :   1.0463 B(  9-C , 10-H ) :   0.9093 B(  9-C , 11-O ) :   1.0357
B(  9-C , 12-O ) :   1.0947 B( 12-O , 19-H ) :   0.7657 B( 12-O , 21-H ) :   0.1145
B( 13-O , 20-H ) :   0.8162 B( 13-O , 22-H ) :   0.1063 B( 14-O , 21-H ) :   0.7882
B( 15-O , 22-H ) :   0.8131 B( 16-O , 19-H ) :   0.1299 B( 16-O , 23-H ) :   0.8413

Dispersion correction           -0.026756621
FINAL SINGLE POINT ENERGY      -685.699815866038

DIPOLE MOMENT
-------------

Method             : SCF
Type of density    : Electron Density
Multiplicity       :   1
Irrep              :   0
Energy             :  -685.8379820538472131 Eh
Relativity type    :
Basis              : AO
                                X                 Y                 Z
Electronic contribution:      1.814189259      -0.733085165       0.973931425
Nuclear contribution   :     -2.311104636      -0.327574501      -0.388562850
                        -----------------------------------------
Total Dipole Moment    :     -0.496915377      -1.060659667       0.585368575
                        -----------------------------------------
Magnitude (a.u.)       :      1.309419791
Magnitude (Debye)      :      3.328280605

Rotational constants in cm-1:             0.042569             0.029563             0.026557
Rotational constants in MHz :          1276.183863           886.267917           796.148483

                             ****ORCA TERMINATED NORMALLY****
TOTAL RUN TIME: 0 days 0 hours 0 minutes 8 seconds 354 msec
