                         Program Version 6.0.1  -  RELEASE   -
|  1> ! r2scan-3c def2/J RI DEFGRID2 scfconv6 printgap
|  2> %output
|  3>     printlevel normal
|  4> end
|  5> * xyz 0 1
|  6> C -3.8053793064 0.7179261905 -0.0050802824
|  7> O -2.3881251823 0.7951297602 -0.0086206586
|  8> C -1.707736535 -0.3652001867 0.0038348934
|  9> O -2.2405097454 -1.4489507868 0.0100342338
| 10> C -0.2446505024 -0.1569532683 0.0012777607
| 11> C 0.5852705018 -1.2789279297 -0.0046118513
| 12> C 1.9543969156 -1.1388988746 -0.0059923467
| 13> C 2.5214603091 0.1353767344 -0.0006501201
| 14> C 1.6969025958 1.2580081724 0.0055400306
| 15> C 0.3247613773 1.1136612733 0.0063502137
| 16> O 3.8715988071 0.2347281919 -0.0015030246
| 17> H -4.1751597566 1.4573558409 -0.7140064421
| 18> H -4.1757687383 0.9447999429 0.9965222369
| 19> H -4.1251938235 -0.2851206871 -0.2941818126
| 20> H 0.1287516527 -2.2567201047 -0.008097277
| 21> H 2.6085898349 -1.9958190957 -0.0108157939
| 22> H 2.1390269641 2.2459292313 0.0098511821
| 23> H -0.312286452 1.9836899621 0.0112359647
| 24> H 4.139090779 1.1623524656 0.0029478505
| 25> *
| 26>
| 27>                          ****END OF INPUT****

CARTESIAN COORDINATES (ANGSTROEM)
---------------------------------
  C     -3.805379    0.717926   -0.005080
  O     -2.388125    0.795130   -0.008621
  C     -1.707737   -0.365200    0.003835
  O     -2.240510   -1.448951    0.010034
  C     -0.244651   -0.156953    0.001278
  C      0.585271   -1.278928   -0.004612
  C      1.954397   -1.138899   -0.005992
  C      2.521460    0.135377   -0.000650
  C      1.696903    1.258008    0.005540
  C      0.324761    1.113661    0.006350
  O      3.871599    0.234728   -0.001503
  H     -4.175160    1.457356   -0.714006
  H     -4.175769    0.944800    0.996522
  H     -4.125194   -0.285121   -0.294182
  H      0.128752   -2.256720   -0.008097
  H      2.608590   -1.995819   -0.010816
  H      2.139027    2.245929    0.009851
  H     -0.312286    1.983690    0.011236
  H      4.139091    1.162352    0.002948

 Total Charge           Charge          ....    0
 Multiplicity           Mult            ....    1
 Number of Electrons    NEL             ....   80
 Basis Dimension        Dim             ....  264

ORBITAL ENERGIES
----------------

  NO   OCC          E(Eh)            E(eV)
   0   2.0000     -19.001639      -517.0609
   1   2.0000     -18.996344      -516.9168
   2   2.0000     -18.928292      -515.0650
   3   2.0000     -10.153492      -276.2906
   4   2.0000     -10.113994      -275.2158
   5   2.0000     -10.081917      -274.3429
   6   2.0000     -10.051648      -273.5193
   7   2.0000     -10.048525      -273.4343
   8   2.0000     -10.048005      -273.4201
   9   2.0000     -10.047806      -273.4147
  10   2.0000     -10.042093      -273.2592
  11   2.0000      -1.069923       -29.1141
  12   2.0000      -1.047874       -28.5141
  13   2.0000      -0.979419       -26.6514
  14   2.0000      -0.837809       -22.7979
  15   2.0000      -0.743715       -20.2375
  16   2.0000      -0.732482       -19.9318
  17   2.0000      -0.690483       -18.7890
  18   2.0000      -0.612635       -16.6707
  19   2.0000      -0.597046       -16.2465
  20   2.0000      -0.543472       -14.7886
  21   2.0000      -0.529951       -14.4207
  22   2.0000      -0.497408       -13.5352
  23   2.0000      -0.462375       -12.5819
  24   2.0000      -0.449592       -12.2340
  25   2.0000      -0.432427       -11.7669
  26   2.0000      -0.421868       -11.4796
  27   2.0000      -0.405668       -11.0388
  28   2.0000      -0.405058       -11.0222
  29   2.0000      -0.399325       -10.8662
  30   2.0000      -0.375242       -10.2109
  31   2.0000      -0.369551       -10.0560
  32   2.0000      -0.354807        -9.6548
  33   2.0000      -0.323871        -8.8130
  34   2.0000      -0.319633        -8.6976
  35   2.0000      -0.312261        -8.4970
  36   2.0000      -0.271836        -7.3970
  37   2.0000      -0.250801        -6.8247
  38   2.0000      -0.242557        -6.6003
  39   2.0000      -0.220837        -6.0093
  40   0.0000      -0.065033        -1.7696
  41   0.0000      -0.043649        -1.1878
  42   0.0000       0.034797         0.9469
  43   0.0000       0.047122         1.2822
  44   0.0000       0.064062         1.7432

MULLIKEN ATOMIC CHARGES
-----------------------
   0 C :   -0.305734
   1 O :   -0.176370
   2 C :    0.373631
   3 O :   -0.441323
   4 C :    0.075457
   5 C :   -0.211680
   6 C :   -0.305893
   7 C :    0.454408
   8 C :   -0.324912
   9 C :   -0.186116
  10 O :   -0.399762
  11 H :    0.145673
  12 H :    0.147607
  13 H :    0.186323
  14 H :    0.182499
  15 H :    0.158076
  16 H :    0.138549
  17 H :    0.173563
  18 H :    0.316004
Sum of atomic charges:    0.0000000

LOEWDIN ATOMIC CHARGES
----------------------
   0 C :   -0.046473
   1 O :   -0.616741
   2 C :    0.384518
   3 O :   -0.442365
   4 C :   -0.053594
   5 C :   -0.092764
   6 C :   -0.137208
   7 C :    0.197646
   8 C :   -0.169584
   9 C :   -0.100463
  10 O :   -0.479204
  11 H :    0.172805
  12 H :    0.170987
  13 H :    0.193623
  14 H :    0.191659
  15 H :    0.182666
  16 H :    0.170418
  17 H :    0.189451
  18 H :    0.284623

  Mayer bond orders larger than 0.100000
B(  0-C ,  1-O ) :   0.8368 B(  0-C , 11-H ) :   0.9691 B(  0-C , 12-H ) :   0.9604
B(  0-C , 13-H ) :   0.9710 B(  1-O ,  2-C ) :   1.1351 B(  1-O ,  4-C ) :  -0.1239
B(  2-C ,  3-O ) :   1.8780 B(  2-C ,  4-C ) :   1.0549 B(  4-C ,  5-C ) :   1.4500
B(  4-C ,  9-C ) :   1.3827 B(  5-C ,  6-C ) :   1.3508 B(  5-C , 14-H ) :   0.9418
B(  6-C ,  7-C ) :   1.3772 B(  6-C , 10-O ) :   0.1008 B(  6-C , 15-H ) :   0.9589
B(  7-C ,  8-C ) :   1.3085 B(  7-C , 10-O ) :   0.9367 B(  8-C ,  9-C ) :   1.3867
B(  8-C , 16-H ) :   0.9276 B(  9-C , 17-H ) :   0.9419 B( 10-O , 18-H ) :   0.8806

Dispersion correction           -0.006359872
FINAL SINGLE POINT ENERGY      -535.248385560998

DIPOLE MOMENT
-------------

Method             : SCF
Type of density    : Electron Density
Multiplicity       :   1
Irrep              :   0
Energy             :  -535.2519081688387814 Eh
Relativity type    :
Basis              : AO
                                X                 Y                 Z
Electronic contribution:      3.995679770      -1.809299423      -0.000644812
Nuclear contribution   :     -3.550884615       3.048918495      -0.006140804
                        -----------------------------------------
Total Dipole Moment    :      0.444795155       1.239619072      -0.006785617
                        -----------------------------------------
Magnitude (a.u.)       :      1.317020963
Magnitude (Debye)      :      3.347601250

Rotational constants in cm-1:             0.115233             0.019465             0.016705
Rotational constants in MHz :          3454.599297           583.548827           500.811168

                             ****ORCA TERMINATED NORMALLY****
TOTAL RUN TIME: 0 days 0 hours 0 minutes 35 seconds 80 msec
