                         Program Version 6.0.1  -  RELEASE   -
|  1> ! r2scan-3c def2/J RI DEFGRID2 scfconv6 printgap
|  2> %output
|  3>     printlevel normal
|  4> end
|  5> * xyz 0 1
|  6> C -2.3664042528 0.8344572532 -0.8676688649
|  7> N -1.5972418494 0.0855211973 0.0971567154
|  8> C -2.3427773017 -0.9434366692 0.7752743901
|  9> C -0.2203057037 0.0310141902 0.0312241362
| 10> C 0.516275251 1.1436874715 -0.3965047639
| 11> C 1.8950306564 1.1131806734 -0.431133969
| 12> C 2.5891272842 -0.0163526276 -0.0302928884
| 13> C 1.8756597234 -1.1173848011 0.4089311444
| 14> C 0.4946712326 -1.1013182357 0.4388613207
| 15> H -3.0569214428 0.1692926916 -1.3970368328
| 16> H -1.7163956447 1.2953893352 -1.6064008155
| 17> H -2.9531973456 1.617015947 -0.3752217237
| 18> H -3.3354331085 -0.5543451744 1.0051394546
| 19> H -1.8542400835 -1.2000823549 1.7140944531
| 20> H -2.4604745883 -1.854592966 0.1720290974
| 21> H 0.0061363744 2.0507111396 -0.6833348189
| 22> H 2.434724698 1.9878717719 -0.7655751582
| 23> H 3.6679915366 -0.0356080739 -0.0564318202
| 24> H 2.3992169502 -2.0086807112 0.7251492221
| 25> H -0.0270213004 -1.9862881353 0.7671954273
| 26> *
| 27>
| 28>                          ****END OF INPUT****

CARTESIAN COORDINATES (ANGSTROEM)
---------------------------------
  C     -2.366404    0.834457   -0.867669
  N     -1.597242    0.085521    0.097157
  C     -2.342777   -0.943437    0.775274
  C     -0.220306    0.031014    0.031224
  C      0.516275    1.143687   -0.396505
  C      1.895031    1.113181   -0.431134
  C      2.589127   -0.016353   -0.030293
  C      1.875660   -1.117385    0.408931
  C      0.494671   -1.101318    0.438861
  H     -3.056921    0.169293   -1.397037
  H     -1.716396    1.295389   -1.606401
  H     -2.953197    1.617016   -0.375222
  H     -3.335433   -0.554345    1.005139
  H     -1.854240   -1.200082    1.714094
  H     -2.460475   -1.854593    0.172029
  H      0.006136    2.050711   -0.683335
  H      2.434725    1.987872   -0.765575
  H      3.667992   -0.035608   -0.056432
  H      2.399217   -2.008681    0.725149
  H     -0.027021   -1.986288    0.767195

 Total Charge           Charge          ....    0
 Multiplicity           Mult            ....    1
 Number of Electrons    NEL             ....   66
 Basis Dimension        Dim             ....  231

ORBITAL ENERGIES
----------------

  NO   OCC          E(Eh)            E(eV)
   0   2.0000     -14.175508      -385.7352
   1   2.0000     -10.067137      -273.9407
   2   2.0000     -10.060637      -273.7639
   3   2.0000     -10.060369      -273.7566
   4   2.0000     -10.024468      -272.7796
   5   2.0000     -10.024394      -272.7776
   6   2.0000     -10.020042      -272.6592
   7   2.0000     -10.019704      -272.6500
   8   2.0000     -10.013810      -272.4896
   9   2.0000      -0.916834       -24.9483
  10   2.0000      -0.808161       -21.9912
  11   2.0000      -0.712067       -19.3763
  12   2.0000      -0.711455       -19.3597
  13   2.0000      -0.685951       -18.6657
  14   2.0000      -0.624813       -17.0020
  15   2.0000      -0.565264       -15.3816
  16   2.0000      -0.541076       -14.7234
  17   2.0000      -0.496691       -13.5156
  18   2.0000      -0.446397       -12.1471
  19   2.0000      -0.441003       -12.0003
  20   2.0000      -0.437048       -11.8927
  21   2.0000      -0.409915       -11.1544
  22   2.0000      -0.388709       -10.5773
  23   2.0000      -0.383216       -10.4278
  24   2.0000      -0.372037       -10.1237
  25   2.0000      -0.362706        -9.8697
  26   2.0000      -0.350289        -9.5318
  27   2.0000      -0.336068        -9.1449
  28   2.0000      -0.318197        -8.6586
  29   2.0000      -0.299414        -8.1475
  30   2.0000      -0.256535        -6.9807
  31   2.0000      -0.227183        -6.1820
  32   2.0000      -0.167860        -4.5677
  33   0.0000      -0.022251        -0.6055
  34   0.0000      -0.005906        -0.1607
  35   0.0000       0.077065         2.0971
  36   0.0000       0.085075         2.3150
  37   0.0000       0.110047         2.9945

MULLIKEN ATOMIC CHARGES
-----------------------
   0 C :   -0.386094
   1 N :    0.116718
   2 C :   -0.449154
   3 C :    0.231256
   4 C :   -0.331970
   5 C :   -0.138008
   6 C :   -0.196959
   7 C :   -0.151264
   8 C :   -0.314367
   9 H :    0.141658
  10 H :    0.147807
  11 H :    0.156737
  12 H :    0.147899
  13 H :    0.159701
  14 H :    0.159684
  15 H :    0.134480
  16 H :    0.143597
  17 H :    0.144613
  18 H :    0.143164
  19 H :    0.140501
Sum of atomic charges:   -0.0000000

LOEWDIN ATOMIC CHARGES
----------------------
   0 C :   -0.121400
   1 N :   -0.923049
   2 C :   -0.127745
   3 C :    0.147972
   4 C :   -0.164184
   5 C :   -0.157806
   6 C :   -0.205566
   7 C :   -0.156728
   8 C :   -0.170013
   9 H :    0.170735
  10 H :    0.183094
  11 H :    0.166027
  12 H :    0.178919
  13 H :    0.181715
  14 H :    0.161186
  15 H :    0.169593
  16 H :    0.165857
  17 H :    0.164342
  18 H :    0.165769
  19 H :    0.171281

  Mayer bond orders larger than 0.100000
B(  0-C ,  1-N ) :   0.8956 B(  0-C ,  9-H ) :   0.9511 B(  0-C , 10-H ) :   0.9614
B(  0-C , 11-H ) :   0.9721 B(  1-N ,  2-C ) :   0.8981 B(  1-N ,  3-C ) :   1.1722
B(  2-C , 12-H ) :   0.9577 B(  2-C , 13-H ) :   0.9640 B(  2-C , 14-H ) :   0.9520
B(  3-C ,  4-C ) :   1.3266 B(  3-C ,  8-C ) :   1.3128 B(  4-C ,  5-C ) :   1.4305
B(  4-C , 15-H ) :   0.9454 B(  5-C ,  6-C ) :   1.4056 B(  5-C , 16-H ) :   0.9482
B(  6-C ,  7-C ) :   1.4231 B(  6-C , 17-H ) :   0.9487 B(  7-C ,  8-C ) :   1.4125
B(  7-C , 18-H ) :   0.9499 B(  8-C , 19-H ) :   0.9489

Dispersion correction           -0.006681365
FINAL SINGLE POINT ENERGY      -366.098065158592

DIPOLE MOMENT
-------------

Method             : SCF
Type of density    : Electron Density
Multiplicity       :   1
Irrep              :   0
Energy             :  -366.1039940880406220 Eh
Relativity type    :
Basis              : AO
                                X                 Y                 Z
Electronic contribution:      5.717672758       0.436953815       0.392496964
Nuclear contribution   :     -6.477998263      -0.486737347      -0.468920606
                        -----------------------------------------
Total Dipole Moment    :     -0.760325506      -0.049783532      -0.076423642
                        -----------------------------------------
Magnitude (a.u.)       :      0.765776630
Magnitude (Debye)      :      1.946449507

Rotational constants in cm-1:             0.119613             0.040420             0.031126
Rotational constants in MHz :          3585.911512          1211.756477           933.120787

                             ****ORCA TERMINATED NORMALLY****
TOTAL RUN TIME: 0 days 0 hours 0 minutes 25 seconds 551 msec
