                         Program Version 6.0.1  -  RELEASE   -
|  1> ! r2scan-3c def2/J RI DEFGRID2 scfconv6 printgap
|  2> %output
|  3>     printlevel normal
|  4> end
|  5> * xyz 0 1
|  6> C -2.5838117315 0.2512182735 -3.82401e-05
|  7> C -1.8874569494 1.4616450228 0.000111054
|  8> C -0.5168006422 1.4449665438 0.0001277928
|  9> C 0.1920417567 0.2364001466 1.58494e-05
| 10> C -0.5015151475 -0.9979111762 -3.05077e-05
| 11> C -1.9096434763 -0.9423738914 -0.0001073895
| 12> N 0.1219739436 -2.188418919 2.81548e-05
| 13> N 1.6063007235 0.3122951408 -0.0001190943
| 14> O 2.1268113821 1.4117874591 -0.0001875398
| 15> O 2.2600250286 -0.7280408196 0.0002201724
| 16> H -3.6633910159 0.2545162107 -9.2044e-05
| 17> H -2.4227823121 2.3970563445 0.0002266921
| 18> H 0.0548606562 2.360323584 0.0002256851
| 19> H -2.4524653202 -1.8763181327 -0.0002148576
| 20> H 1.1330616385 -2.2081470361 1.37395e-05
| 21> H -0.4165838929 -3.0353439398 -0.0003496204
| 22> *
| 23>
| 24>                          ****END OF INPUT****

CARTESIAN COORDINATES (ANGSTROEM)
---------------------------------
  C     -2.583812    0.251218   -0.000038
  C     -1.887457    1.461645    0.000111
  C     -0.516801    1.444967    0.000128
  C      0.192042    0.236400    0.000016
  C     -0.501515   -0.997911   -0.000031
  C     -1.909643   -0.942374   -0.000107
  N      0.121974   -2.188419    0.000028
  N      1.606301    0.312295   -0.000119
  O      2.126811    1.411787   -0.000188
  O      2.260025   -0.728041    0.000220
  H     -3.663391    0.254516   -0.000092
  H     -2.422782    2.397056    0.000227
  H      0.054861    2.360324    0.000226
  H     -2.452465   -1.876318   -0.000215
  H      1.133062   -2.208147    0.000014
  H     -0.416584   -3.035344   -0.000350

 Total Charge           Charge          ....    0
 Multiplicity           Mult            ....    1
 Number of Electrons    NEL             ....   72
 Basis Dimension        Dim             ....  240

ORBITAL ENERGIES
----------------

  NO   OCC          E(Eh)            E(eV)
   0   2.0000     -18.974802      -516.3306
   1   2.0000     -18.969602      -516.1891
   2   2.0000     -14.385415      -391.4470
   3   2.0000     -14.192127      -386.1874
   4   2.0000     -10.115908      -275.2679
   5   2.0000     -10.092100      -274.6200
   6   2.0000     -10.061674      -273.7921
   7   2.0000     -10.057514      -273.6789
   8   2.0000     -10.054835      -273.6060
   9   2.0000     -10.046005      -273.3657
  10   2.0000      -1.194954       -32.5163
  11   2.0000      -1.015706       -27.6388
  12   2.0000      -0.924307       -25.1517
  13   2.0000      -0.841417       -22.8961
  14   2.0000      -0.782827       -21.3018
  15   2.0000      -0.726118       -19.7587
  16   2.0000      -0.670619       -18.2485
  17   2.0000      -0.605966       -16.4892
  18   2.0000      -0.582716       -15.8565
  19   2.0000      -0.532475       -14.4894
  20   2.0000      -0.504489       -13.7278
  21   2.0000      -0.504216       -13.7204
  22   2.0000      -0.501168       -13.6375
  23   2.0000      -0.480226       -13.0676
  24   2.0000      -0.451376       -12.2826
  25   2.0000      -0.419725       -11.4213
  26   2.0000      -0.417867       -11.3707
  27   2.0000      -0.386924       -10.5288
  28   2.0000      -0.364181        -9.9099
  29   2.0000      -0.341276        -9.2866
  30   2.0000      -0.317827        -8.6485
  31   2.0000      -0.283150        -7.7049
  32   2.0000      -0.274016        -7.4563
  33   2.0000      -0.262776        -7.1505
  34   2.0000      -0.251311        -6.8385
  35   2.0000      -0.211263        -5.7488
  36   0.0000      -0.110778        -3.0144
  37   0.0000      -0.038198        -1.0394
  38   0.0000      -0.020561        -0.5595
  39   0.0000       0.064349         1.7510
  40   0.0000       0.075450         2.0531

MULLIKEN ATOMIC CHARGES
-----------------------
   0 C :   -0.085526
   1 C :   -0.180098
   2 C :   -0.180980
   3 C :   -0.107643
   4 C :    0.384548
   5 C :   -0.396326
   6 N :   -0.425995
   7 N :    0.335024
   8 O :   -0.243595
   9 O :   -0.275514
  10 H :    0.151550
  11 H :    0.153058
  12 H :    0.186467
  13 H :    0.142668
  14 H :    0.299370
  15 H :    0.242991
Sum of atomic charges:    0.0000000

LOEWDIN ATOMIC CHARGES
----------------------
   0 C :   -0.123643
   1 C :   -0.190656
   2 C :   -0.062826
   3 C :    0.194440
   4 C :    0.196174
   5 C :   -0.153795
   6 N :   -0.526355
   7 N :   -0.493047
   8 O :   -0.032904
   9 O :   -0.072074
  10 H :    0.171820
  11 H :    0.171527
  12 H :    0.202972
  13 H :    0.173388
  14 H :    0.286036
  15 H :    0.258943

  Mayer bond orders larger than 0.100000
B(  0-C ,  1-C ) :   1.3056 B(  0-C ,  5-C ) :   1.4740 B(  0-C , 10-H ) :   0.9419
B(  1-C ,  2-C ) :   1.4015 B(  1-C , 11-H ) :   0.9554 B(  2-C ,  3-C ) :   1.2568
B(  2-C ,  8-O ) :   0.1154 B(  2-C , 12-H ) :   0.9525 B(  3-C ,  4-C ) :   1.4873
B(  3-C ,  7-N ) :   1.0300 B(  4-C ,  5-C ) :   1.1610 B(  4-C ,  6-N ) :   1.0428
B(  5-C , 13-H ) :   0.9654 B(  6-N , 14-H ) :   0.8674 B(  6-N , 15-H ) :   0.9362
B(  7-N ,  8-O ) :   1.8734 B(  7-N ,  9-O ) :   1.7292 B(  8-O ,  9-O ) :   0.2041

Dispersion correction           -0.005724029
FINAL SINGLE POINT ENERGY      -492.026903367419

DIPOLE MOMENT
-------------

Method             : SCF
Type of density    : Electron Density
Multiplicity       :   1
Irrep              :   0
Energy             :  -492.0347054006268763 Eh
Relativity type    :
Basis              : AO
                                X                 Y                 Z
Electronic contribution:      5.568860184       1.053333610      -0.000074095
Nuclear contribution   :     -7.212620043      -1.977770285      -0.000178650
                        -----------------------------------------
Total Dipole Moment    :     -1.643759859      -0.924436675      -0.000252745
                        -----------------------------------------
Magnitude (a.u.)       :      1.885876376
Magnitude (Debye)      :      4.793516800

Rotational constants in cm-1:             0.079205             0.043129             0.027924
Rotational constants in MHz :          2374.509914          1292.980110           837.137687

                             ****ORCA TERMINATED NORMALLY****
TOTAL RUN TIME: 0 days 0 hours 0 minutes 35 seconds 852 msec
