                         Program Version 6.0.1  -  RELEASE   -
|  1> ! pbe def2-sv(p) def2/J RI DEFGRID1 loosescf d4 GCP(DFT/SV(P)) printgap
|  2> %output
|  3>     printlevel normal
|  4> end
|  5> * xyz 0 1
|  6> C -2.1423624765 -0.9663130326 -0.1916734153
|  7> C -1.1210768076 -0.3694735722 0.7939814624
|  8> H -1.6273503454 -0.3717957053 1.7686700375
|  9> C -0.7481599588 1.1093333777 0.5164399537
| 10> H -1.62241655 1.6093467024 0.0827523059
| 11> C 0.4473397806 1.28351718 -0.4411620621
| 12> H 0.8441245968 2.2942008864 -0.2775276692
| 13> C 1.57564746 0.3027677761 -0.055004493
| 14> H 2.3244883991 0.3029883409 -0.8605686734
| 15> C 1.0770635505 -1.1484759291 0.1261129614
| 16> H 1.8645708665 -1.7265983978 0.6338114925
| 17> O -0.0073613582 -1.2184105126 1.0156357794
| 18> O 0.8649450767 -1.798341937 -1.0808295838
| 19> O 2.1234721371 0.7861554655 1.1553010173
| 20> O 0.111564097 1.2225516648 -1.7954937854
| 21> O -0.4931659982 1.7638709846 1.7313232231
| 22> O -1.7119053064 -0.858842555 -1.5432847325
| 23> H -3.0911310369 -0.433716457 -0.0636197954
| 24> H -2.2803880836 -2.0217161207 0.0700178922
| 25> H 0.0284007553 -1.4907622222 -1.46839793
| 26> H 2.8296534775 0.1973375794 1.4440594483
| 27> H -0.5140921195 0.4972299675 -1.9395815315
| 28> H 0.3954164859 1.5075773082 2.0215495399
| 29> H -2.3774272407 -1.2474990505 -2.1208680855
| 30> *
| 31>
| 32>                          ****END OF INPUT****

CARTESIAN COORDINATES (ANGSTROEM)
---------------------------------
  C     -2.142362   -0.966313   -0.191673
  C     -1.121077   -0.369474    0.793981
  H     -1.627350   -0.371796    1.768670
  C     -0.748160    1.109333    0.516440
  H     -1.622417    1.609347    0.082752
  C      0.447340    1.283517   -0.441162
  H      0.844125    2.294201   -0.277528
  C      1.575647    0.302768   -0.055004
  H      2.324488    0.302988   -0.860569
  C      1.077064   -1.148476    0.126113
  H      1.864571   -1.726598    0.633811
  O     -0.007361   -1.218411    1.015636
  O      0.864945   -1.798342   -1.080830
  O      2.123472    0.786155    1.155301
  O      0.111564    1.222552   -1.795494
  O     -0.493166    1.763871    1.731323
  O     -1.711905   -0.858843   -1.543285
  H     -3.091131   -0.433716   -0.063620
  H     -2.280388   -2.021716    0.070018
  H      0.028401   -1.490762   -1.468398
  H      2.829653    0.197338    1.444059
  H     -0.514092    0.497230   -1.939582
  H      0.395416    1.507577    2.021550
  H     -2.377427   -1.247499   -2.120868

 Total Charge           Charge          ....    0
 Multiplicity           Mult            ....    1
 Number of Electrons    NEL             ....   96
 Basis Dimension        Dim             ....  192

ORBITAL ENERGIES
----------------

  NO   OCC          E(Eh)            E(eV)
   0   2.0000     -18.814745      -511.9752
   1   2.0000     -18.768472      -510.7161
   2   2.0000     -18.766597      -510.6651
   3   2.0000     -18.743619      -510.0398
   4   2.0000     -18.737187      -509.8648
   5   2.0000     -18.734702      -509.7972
   6   2.0000      -9.981576      -271.6125
   7   2.0000      -9.962968      -271.1061
   8   2.0000      -9.953386      -270.8454
   9   2.0000      -9.941493      -270.5218
  10   2.0000      -9.936551      -270.3873
  11   2.0000      -9.936497      -270.3858
  12   2.0000      -0.987490       -26.8710
  13   2.0000      -0.970851       -26.4182
  14   2.0000      -0.941127       -25.6094
  15   2.0000      -0.923190       -25.1213
  16   2.0000      -0.915852       -24.9216
  17   2.0000      -0.902357       -24.5544
  18   2.0000      -0.711435       -19.3591
  19   2.0000      -0.683650       -18.6031
  20   2.0000      -0.630937       -17.1687
  21   2.0000      -0.595055       -16.1923
  22   2.0000      -0.574029       -15.6201
  23   2.0000      -0.537782       -14.6338
  24   2.0000      -0.506241       -13.7755
  25   2.0000      -0.486195       -13.2300
  26   2.0000      -0.479579       -13.0500
  27   2.0000      -0.465474       -12.6662
  28   2.0000      -0.443828       -12.0772
  29   2.0000      -0.435858       -11.8603
  30   2.0000      -0.428075       -11.6485
  31   2.0000      -0.417567       -11.3626
  32   2.0000      -0.399188       -10.8625
  33   2.0000      -0.373271       -10.1572
  34   2.0000      -0.361682        -9.8419
  35   2.0000      -0.349483        -9.5099
  36   2.0000      -0.341710        -9.2984
  37   2.0000      -0.323314        -8.7978
  38   2.0000      -0.307694        -8.3728
  39   2.0000      -0.300668        -8.1816
  40   2.0000      -0.279632        -7.6092
  41   2.0000      -0.276983        -7.5371
  42   2.0000      -0.263309        -7.1650
  43   2.0000      -0.254562        -6.9270
  44   2.0000      -0.236564        -6.4372
  45   2.0000      -0.224225        -6.1015
  46   2.0000      -0.204370        -5.5612
  47   2.0000      -0.197078        -5.3628
  48   0.0000      -0.012809        -0.3485
  49   0.0000       0.015877         0.4320
  50   0.0000       0.046348         1.2612
  51   0.0000       0.051657         1.4056
  52   0.0000       0.068111         1.8534

MULLIKEN ATOMIC CHARGES
-----------------------
   0 C :    0.015827
   1 C :    0.025982
   2 H :    0.088811
   3 C :    0.045280
   4 H :    0.071138
   5 C :    0.037418
   6 H :    0.085125
   7 C :    0.036565
   8 H :    0.079955
   9 C :    0.177391
  10 H :    0.050090
  11 O :   -0.301743
  12 O :   -0.406460
  13 O :   -0.425060
  14 O :   -0.417108
  15 O :   -0.428369
  16 O :   -0.453632
  17 H :    0.096648
  18 H :    0.103418
  19 H :    0.285715
  20 H :    0.307367
  21 H :    0.288963
  22 H :    0.302705
  23 H :    0.333977
Sum of atomic charges:   -0.0000000

LOEWDIN ATOMIC CHARGES
----------------------
   0 C :   -0.135770
   1 C :   -0.075079
   2 H :    0.132378
   3 C :   -0.070254
   4 H :    0.115438
   5 C :   -0.072409
   6 H :    0.121183
   7 C :   -0.095457
   8 H :    0.111358
   9 C :   -0.012643
  10 H :    0.099301
  11 O :   -0.141640
  12 O :   -0.320478
  13 O :   -0.313065
  14 O :   -0.320630
  15 O :   -0.320086
  16 O :   -0.318659
  17 H :    0.115285
  18 H :    0.115500
  19 H :    0.258003
  20 H :    0.289495
  21 H :    0.258288
  22 H :    0.273843
  23 H :    0.306097

  Mayer bond orders larger than 0.100000
B(  0-C ,  1-C ) :   1.0626 B(  0-C , 16-O ) :   0.9774 B(  0-C , 17-H ) :   0.9136
B(  0-C , 18-H ) :   0.9129 B(  1-C ,  2-H ) :   0.8821 B(  1-C ,  3-C ) :   0.9616
B(  1-C , 11-O ) :   1.0243 B(  3-C ,  4-H ) :   0.8965 B(  3-C ,  5-C ) :   1.0028
B(  3-C , 15-O ) :   1.0550 B(  5-C ,  6-H ) :   0.8947 B(  5-C ,  7-C ) :   0.9647
B(  5-C , 14-O ) :   1.0949 B(  7-C ,  8-H ) :   0.8930 B(  7-C ,  9-C ) :   0.9577
B(  7-C , 13-O ) :   0.9935 B(  9-C , 10-H ) :   0.9026 B(  9-C , 11-O ) :   1.0427
B(  9-C , 12-O ) :   1.1459 B( 12-O , 19-H ) :   0.7904 B( 13-O , 20-H ) :   0.8415
B( 14-O , 21-H ) :   0.8023 B( 15-O , 22-H ) :   0.8167 B( 16-O , 19-H ) :   0.1169
B( 16-O , 21-H ) :   0.1081 B( 16-O , 23-H ) :   0.8303

Dispersion correction           -0.026491527
FINAL SINGLE POINT ENERGY      -685.698686927962

DIPOLE MOMENT
-------------

Method             : SCF
Type of density    : Electron Density
Multiplicity       :   1
Irrep              :   0
Energy             :  -685.8344685424391400 Eh
Relativity type    :
Basis              : AO
                                X                 Y                 Z
Electronic contribution:      2.133465266      -0.082967585       0.460643740
Nuclear contribution   :     -3.013529690      -0.830312351      -0.673486367
                        -----------------------------------------
Total Dipole Moment    :     -0.880064424      -0.913279936      -0.212842626
                        -----------------------------------------
Magnitude (a.u.)       :      1.286038730
Magnitude (Debye)      :      3.268850672

Rotational constants in cm-1:             0.039602             0.031164             0.027625
Rotational constants in MHz :          1187.223947           934.271090           828.172380

                             ****ORCA TERMINATED NORMALLY****
TOTAL RUN TIME: 0 days 0 hours 14 minutes 52 seconds 429 msec
