                         Program Version 6.0.1  -  RELEASE   -
|  1> ! pbe def2-sv(p) def2/J RI DEFGRID1 loosescf d4 GCP(DFT/SV(P)) printgap
|  2> %output
|  3>     printlevel normal
|  4> end
|  5> * xyz 0 1
|  6> C -2.0107096614 -1.4395175936 -0.0884806605
|  7> C -1.0144931203 -0.5251500186 0.6575974301
|  8> H -1.4772415449 -0.1946251454 1.5968277181
|  9> C -0.7003850585 0.7252869808 -0.1762130922
| 10> H -0.6548327939 0.468709999 -1.2491675099
| 11> C 0.6754208941 1.2506177002 0.2382409538
| 12> H 0.697705201 1.362696028 1.3343239649
| 13> C 1.7204110199 0.2136270312 -0.1828055544
| 14> H 1.8309863279 0.2655313328 -1.2770564729
| 15> C 1.2391869352 -1.2063450554 0.1725154021
| 16> H 2.0453292395 -1.7000327569 0.7327039215
| 17> O 0.1493475388 -1.2322906153 1.0550967778
| 18> O 0.9580490054 -1.8784056427 -1.0215223048
| 19> O 2.9525526108 0.4323611278 0.446990753
| 20> O 0.9812289173 2.4725352555 -0.3821626232
| 21> O -1.6523055447 1.7436525873 0.0349645757
| 22> O -3.1479447259 -0.713914375 -0.510943649
| 23> H -2.3632815763 -2.2171982262 0.5933760235
| 24> H -1.5055111661 -1.91190808 -0.9359916126
| 25> H 0.8256065206 -2.8150731233 -0.8310689265
| 26> H 3.1871645504 1.3579008945 0.3029393162
| 27> H 0.18740137 3.0200029434 -0.3309774635
| 28> H -2.5299956738 1.3377879329 0.0502059911
| 29> H -2.9885195813 -0.3568171812 -1.391101719
| 30> *
| 31>
| 32>                          ****END OF INPUT****

CARTESIAN COORDINATES (ANGSTROEM)
---------------------------------
  C     -2.010710   -1.439518   -0.088481
  C     -1.014493   -0.525150    0.657597
  H     -1.477242   -0.194625    1.596828
  C     -0.700385    0.725287   -0.176213
  H     -0.654833    0.468710   -1.249168
  C      0.675421    1.250618    0.238241
  H      0.697705    1.362696    1.334324
  C      1.720411    0.213627   -0.182806
  H      1.830986    0.265531   -1.277056
  C      1.239187   -1.206345    0.172515
  H      2.045329   -1.700033    0.732704
  O      0.149348   -1.232291    1.055097
  O      0.958049   -1.878406   -1.021522
  O      2.952553    0.432361    0.446991
  O      0.981229    2.472535   -0.382163
  O     -1.652306    1.743653    0.034965
  O     -3.147945   -0.713914   -0.510944
  H     -2.363282   -2.217198    0.593376
  H     -1.505511   -1.911908   -0.935992
  H      0.825607   -2.815073   -0.831069
  H      3.187165    1.357901    0.302939
  H      0.187401    3.020003   -0.330977
  H     -2.529996    1.337788    0.050206
  H     -2.988520   -0.356817   -1.391102

 Total Charge           Charge          ....    0
 Multiplicity           Mult            ....    1
 Number of Electrons    NEL             ....   96
 Basis Dimension        Dim             ....  192

ORBITAL ENERGIES
----------------

  NO   OCC          E(Eh)            E(eV)
   0   2.0000     -18.776682      -510.9395
   1   2.0000     -18.772583      -510.8280
   2   2.0000     -18.769298      -510.7386
   3   2.0000     -18.758925      -510.4563
   4   2.0000     -18.749715      -510.2057
   5   2.0000     -18.747366      -510.1418
   6   2.0000      -9.987441      -271.7721
   7   2.0000      -9.947453      -270.6839
   8   2.0000      -9.946462      -270.6570
   9   2.0000      -9.941366      -270.5183
  10   2.0000      -9.938119      -270.4300
  11   2.0000      -9.937774      -270.4206
  12   2.0000      -0.986120       -26.8337
  13   2.0000      -0.953494       -25.9459
  14   2.0000      -0.944044       -25.6887
  15   2.0000      -0.930204       -25.3121
  16   2.0000      -0.918017       -24.9805
  17   2.0000      -0.914663       -24.8892
  18   2.0000      -0.706878       -19.2351
  19   2.0000      -0.696112       -18.9422
  20   2.0000      -0.627344       -17.0709
  21   2.0000      -0.581941       -15.8354
  22   2.0000      -0.572361       -15.5747
  23   2.0000      -0.516348       -14.0505
  24   2.0000      -0.509790       -13.8721
  25   2.0000      -0.502185       -13.6651
  26   2.0000      -0.480456       -13.0739
  27   2.0000      -0.475053       -12.9269
  28   2.0000      -0.434405       -11.8207
  29   2.0000      -0.430094       -11.7034
  30   2.0000      -0.408395       -11.1130
  31   2.0000      -0.394307       -10.7296
  32   2.0000      -0.391260       -10.6467
  33   2.0000      -0.384554       -10.4642
  34   2.0000      -0.373984       -10.1766
  35   2.0000      -0.363031        -9.8786
  36   2.0000      -0.328466        -8.9380
  37   2.0000      -0.323764        -8.8101
  38   2.0000      -0.308948        -8.4069
  39   2.0000      -0.303513        -8.2590
  40   2.0000      -0.281568        -7.6619
  41   2.0000      -0.271128        -7.3778
  42   2.0000      -0.267646        -7.2830
  43   2.0000      -0.249080        -6.7778
  44   2.0000      -0.234922        -6.3926
  45   2.0000      -0.221961        -6.0399
  46   2.0000      -0.218267        -5.9393
  47   2.0000      -0.208724        -5.6797
  48   0.0000       0.000635         0.0173
  49   0.0000       0.017821         0.4849
  50   0.0000       0.037869         1.0305
  51   0.0000       0.053353         1.4518
  52   0.0000       0.058851         1.6014

MULLIKEN ATOMIC CHARGES
-----------------------
   0 C :    0.026550
   1 C :    0.069346
   2 H :    0.076749
   3 C :   -0.047195
   4 H :    0.053300
   5 C :    0.055155
   6 H :    0.057897
   7 C :    0.079910
   8 H :    0.071507
   9 C :    0.174098
  10 H :    0.079181
  11 O :   -0.311502
  12 O :   -0.397176
  13 O :   -0.414593
  14 O :   -0.425807
  15 O :   -0.427836
  16 O :   -0.436795
  17 H :    0.095760
  18 H :    0.082567
  19 H :    0.305278
  20 H :    0.310012
  21 H :    0.311403
  22 H :    0.297085
  23 H :    0.315106
Sum of atomic charges:   -0.0000000

LOEWDIN ATOMIC CHARGES
----------------------
   0 C :   -0.137523
   1 C :   -0.075893
   2 H :    0.118613
   3 C :   -0.086335
   4 H :    0.096468
   5 C :   -0.075040
   6 H :    0.107149
   7 C :   -0.072245
   8 H :    0.110895
   9 C :    0.004150
  10 H :    0.108702
  11 O :   -0.138798
  12 O :   -0.309418
  13 O :   -0.315182
  14 O :   -0.324555
  15 O :   -0.329832
  16 O :   -0.327581
  17 H :    0.114400
  18 H :    0.103195
  19 H :    0.285437
  20 H :    0.290775
  21 H :    0.288430
  22 H :    0.273658
  23 H :    0.290529

  Mayer bond orders larger than 0.100000
B(  0-C ,  1-C ) :   1.0312 B(  0-C , 16-O ) :   1.0475 B(  0-C , 17-H ) :   0.9261
B(  0-C , 18-H ) :   0.9140 B(  1-C ,  2-H ) :   0.8825 B(  1-C ,  3-C ) :   0.9776
B(  1-C , 11-O ) :   0.9759 B(  3-C ,  4-H ) :   0.8845 B(  3-C ,  5-C ) :   1.0340
B(  3-C , 15-O ) :   1.0668 B(  5-C ,  6-H ) :   0.8591 B(  5-C ,  7-C ) :   1.0508
B(  5-C , 14-O ) :   1.0922 B(  7-C ,  8-H ) :   0.8800 B(  7-C ,  9-C ) :   0.9901
B(  7-C , 13-O ) :   1.0917 B(  9-C , 10-H ) :   0.8930 B(  9-C , 11-O ) :   1.0762
B(  9-C , 12-O ) :   1.0950 B( 12-O , 19-H ) :   0.8364 B( 13-O , 20-H ) :   0.8435
B( 14-O , 21-H ) :   0.8316 B( 15-O , 22-H ) :   0.8127 B( 16-O , 23-H ) :   0.8384

Dispersion correction           -0.024699322
FINAL SINGLE POINT ENERGY      -685.694393183118

DIPOLE MOMENT
-------------

Method             : SCF
Type of density    : Electron Density
Multiplicity       :   1
Irrep              :   0
Energy             :  -685.8265843223136926 Eh
Relativity type    :
Basis              : AO
                                X                 Y                 Z
Electronic contribution:      1.981718304       0.906756338       0.861339618
Nuclear contribution   :     -2.571885184      -1.285306859      -1.323710206
                        -----------------------------------------
Total Dipole Moment    :     -0.590166880      -0.378550521      -0.462370588
                        -----------------------------------------
Magnitude (a.u.)       :      0.839871421
Magnitude (Debye)      :      2.134783499

Rotational constants in cm-1:             0.042980             0.027130             0.018957
Rotational constants in MHz :          1288.508495           813.343040           568.302507

                             ****ORCA TERMINATED NORMALLY****
TOTAL RUN TIME: 0 days 0 hours 0 minutes 7 seconds 988 msec
