                         Program Version 6.0.1  -  RELEASE   -
|  1> ! pbe def2-sv(p) def2/J RI DEFGRID1 loosescf d4 GCP(DFT/SV(P)) printgap
|  2> %output
|  3>     printlevel normal
|  4> end
|  5> * xyz 0 1
|  6> C -2.1535082243 -0.9009234076 -0.2607343586
|  7> C -1.1604619407 -0.341323914 0.7839434566
|  8> H -1.7108559392 -0.3637952951 1.7373493966
|  9> C -0.7479194549 1.1253381555 0.5361587549
| 10> H -1.6089519554 1.6685757666 0.114410991
| 11> C 0.4346963798 1.2797164311 -0.4348634421
| 12> H 0.8285528751 2.2987387286 -0.2908529629
| 13> C 1.5625174229 0.2997657028 -0.0671129743
| 14> H 2.2873470531 0.2464217631 -0.8894808373
| 15> C 1.0446652994 -1.145281208 0.1670577553
| 16> H 1.8333043915 -1.6846529931 0.7097538273
| 17> O -0.0531327084 -1.1837717038 1.0450936499
| 18> O 0.8466966072 -1.8243907435 -1.0258217109
| 19> O 2.2688651078 0.772992537 1.0452924621
| 20> O -0.0405714495 1.1372600892 -1.7566150434
| 21> O -0.3265337777 1.7330239394 1.7394211206
| 22> O -1.6821566187 -0.9895946317 -1.5777086771
| 23> H -3.0613023338 -0.2821731225 -0.2198430095
| 24> H -2.4105809693 -1.9217627376 0.033269946
| 25> H -0.0662114227 -1.6708202723 -1.3506769807
| 26> H 1.6296061173 0.9736244554 1.7446696621
| 27> H 0.7137071418 1.0494232576 -2.3508373102
| 28> H -1.0183536922 1.6503000262 2.4053371457
| 29> H -1.3439528433 -0.1179780004 -1.8576710193
| 30> *
| 31>
| 32>                          ****END OF INPUT****

CARTESIAN COORDINATES (ANGSTROEM)
---------------------------------
  C     -2.153508   -0.900923   -0.260734
  C     -1.160462   -0.341324    0.783943
  H     -1.710856   -0.363795    1.737349
  C     -0.747919    1.125338    0.536159
  H     -1.608952    1.668576    0.114411
  C      0.434696    1.279716   -0.434863
  H      0.828553    2.298739   -0.290853
  C      1.562517    0.299766   -0.067113
  H      2.287347    0.246422   -0.889481
  C      1.044665   -1.145281    0.167058
  H      1.833304   -1.684653    0.709754
  O     -0.053133   -1.183772    1.045094
  O      0.846697   -1.824391   -1.025822
  O      2.268865    0.772993    1.045292
  O     -0.040571    1.137260   -1.756615
  O     -0.326534    1.733024    1.739421
  O     -1.682157   -0.989595   -1.577709
  H     -3.061302   -0.282173   -0.219843
  H     -2.410581   -1.921763    0.033270
  H     -0.066211   -1.670820   -1.350677
  H      1.629606    0.973624    1.744670
  H      0.713707    1.049423   -2.350837
  H     -1.018354    1.650300    2.405337
  H     -1.343953   -0.117978   -1.857671

 Total Charge           Charge          ....    0
 Multiplicity           Mult            ....    1
 Number of Electrons    NEL             ....   96
 Basis Dimension        Dim             ....  192

ORBITAL ENERGIES
----------------

  NO   OCC          E(Eh)            E(eV)
   0   2.0000     -18.795213      -511.4437
   1   2.0000     -18.784664      -511.1567
   2   2.0000     -18.768104      -510.7061
   3   2.0000     -18.767487      -510.6893
   4   2.0000     -18.741348      -509.9780
   5   2.0000     -18.728776      -509.6359
   6   2.0000      -9.972182      -271.3569
   7   2.0000      -9.969381      -271.2806
   8   2.0000      -9.961419      -271.0640
   9   2.0000      -9.961279      -271.0602
  10   2.0000      -9.948300      -270.7070
  11   2.0000      -9.939515      -270.4680
  12   2.0000      -0.984001       -26.7760
  13   2.0000      -0.963795       -26.2262
  14   2.0000      -0.957982       -26.0680
  15   2.0000      -0.940762       -25.5994
  16   2.0000      -0.921120       -25.0649
  17   2.0000      -0.894701       -24.3461
  18   2.0000      -0.719851       -19.5881
  19   2.0000      -0.690346       -18.7853
  20   2.0000      -0.634124       -17.2554
  21   2.0000      -0.592512       -16.1231
  22   2.0000      -0.587660       -15.9910
  23   2.0000      -0.541368       -14.7314
  24   2.0000      -0.501251       -13.6397
  25   2.0000      -0.496450       -13.5091
  26   2.0000      -0.481600       -13.1050
  27   2.0000      -0.466210       -12.6862
  28   2.0000      -0.449771       -12.2389
  29   2.0000      -0.432030       -11.7561
  30   2.0000      -0.427893       -11.6436
  31   2.0000      -0.423369       -11.5205
  32   2.0000      -0.400113       -10.8876
  33   2.0000      -0.385345       -10.4858
  34   2.0000      -0.369766       -10.0618
  35   2.0000      -0.360005        -9.7962
  36   2.0000      -0.348998        -9.4967
  37   2.0000      -0.330247        -8.9865
  38   2.0000      -0.304924        -8.2974
  39   2.0000      -0.301650        -8.2083
  40   2.0000      -0.292948        -7.9715
  41   2.0000      -0.281035        -7.6473
  42   2.0000      -0.258135        -7.0242
  43   2.0000      -0.255620        -6.9558
  44   2.0000      -0.248877        -6.7723
  45   2.0000      -0.237085        -6.4514
  46   2.0000      -0.215931        -5.8758
  47   2.0000      -0.191350        -5.2069
  48   0.0000      -0.004741        -0.1290
  49   0.0000       0.004206         0.1145
  50   0.0000       0.041436         1.1275
  51   0.0000       0.052185         1.4200
  52   0.0000       0.068161         1.8547

MULLIKEN ATOMIC CHARGES
-----------------------
   0 C :    0.039049
   1 C :    0.018105
   2 H :    0.061589
   3 C :    0.019135
   4 H :    0.079338
   5 C :    0.046559
   6 H :    0.091649
   7 C :    0.019225
   8 H :    0.069350
   9 C :    0.209711
  10 H :    0.069823
  11 O :   -0.303698
  12 O :   -0.423281
  13 O :   -0.421720
  14 O :   -0.427627
  15 O :   -0.416569
  16 O :   -0.441952
  17 H :    0.080391
  18 H :    0.104943
  19 H :    0.282058
  20 H :    0.300895
  21 H :    0.325026
  22 H :    0.310636
  23 H :    0.307363
Sum of atomic charges:    0.0000000

LOEWDIN ATOMIC CHARGES
----------------------
   0 C :   -0.136548
   1 C :   -0.084229
   2 H :    0.117430
   3 C :   -0.069526
   4 H :    0.108406
   5 C :   -0.070939
   6 H :    0.115042
   7 C :   -0.094995
   8 H :    0.114353
   9 C :   -0.006570
  10 H :    0.108992
  11 O :   -0.139484
  12 O :   -0.337622
  13 O :   -0.314233
  14 O :   -0.303355
  15 O :   -0.304321
  16 O :   -0.326339
  17 H :    0.105250
  18 H :    0.123157
  19 H :    0.262292
  20 H :    0.272831
  21 H :    0.299335
  22 H :    0.290995
  23 H :    0.270079

  Mayer bond orders larger than 0.100000
B(  0-C ,  1-C ) :   1.0242 B(  0-C , 16-O ) :   1.0581 B(  0-C , 17-H ) :   0.9099
B(  0-C , 18-H ) :   0.9157 B(  1-C ,  2-H ) :   0.8811 B(  1-C ,  3-C ) :   0.9712
B(  1-C , 11-O ) :   1.0358 B(  3-C ,  4-H ) :   0.8981 B(  3-C ,  5-C ) :   1.0104
B(  3-C , 15-O ) :   1.0238 B(  5-C ,  6-H ) :   0.8963 B(  5-C ,  7-C ) :   0.9799
B(  5-C , 14-O ) :   1.0038 B(  7-C ,  8-H ) :   0.8918 B(  7-C ,  9-C ) :   0.9488
B(  7-C , 13-O ) :   1.0547 B(  9-C , 10-H ) :   0.9026 B(  9-C , 11-O ) :   1.0261
B(  9-C , 12-O ) :   1.1379 B( 12-O , 19-H ) :   0.7644 B( 13-O , 20-H ) :   0.8181
B( 14-O , 21-H ) :   0.8293 B( 14-O , 23-H ) :   0.1370 B( 15-O , 22-H ) :   0.8407
B( 16-O , 19-H ) :   0.1702 B( 16-O , 23-H ) :   0.7692

Dispersion correction           -0.026694451
FINAL SINGLE POINT ENERGY      -685.703673107961

DIPOLE MOMENT
-------------

Method             : SCF
Type of density    : Electron Density
Multiplicity       :   1
Irrep              :   0
Energy             :  -685.8400770795759627 Eh
Relativity type    :
Basis              : AO
                                X                 Y                 Z
Electronic contribution:      2.522580869      -0.619256366       0.454139638
Nuclear contribution   :     -3.669833314       1.726518251      -0.209160933
                        -----------------------------------------
Total Dipole Moment    :     -1.147252445       1.107261886       0.244978705
                        -----------------------------------------
Magnitude (a.u.)       :      1.613143398
Magnitude (Debye)      :      4.100284663

Rotational constants in cm-1:             0.040243             0.031284             0.027664
Rotational constants in MHz :          1206.441620           937.859487           829.331662

                             ****ORCA TERMINATED NORMALLY****
TOTAL RUN TIME: 0 days 0 hours 0 minutes 23 seconds 195 msec
