                         Program Version 6.0.1  -  RELEASE   -
|  1> ! pbe def2-sv(p) def2/J RI DEFGRID1 loosescf d4 GCP(DFT/SV(P)) printgap
|  2> %output
|  3>     printlevel normal
|  4> end
|  5> * xyz 0 1
|  6> C 1.201568284 -1.2309235018 -0.6763034931
|  7> C 0.671171848 -0.2841957467 0.4066298876
|  8> C 1.5933112991 0.9219457544 0.5629568608
|  9> C -0.7215926658 0.1599374691 -0.0210853214
| 10> O -0.906045892 1.0836885095 -0.7706788974
| 11> C -1.8483664454 -0.6634512973 0.5503493561
| 12> H 0.5561327538 -2.0997392504 -0.7872519465
| 13> H 1.2500394214 -0.7116302414 -1.6306342635
| 14> H 2.200228482 -1.5735981102 -0.4153327956
| 15> H 0.6034678578 -0.8283186639 1.3535885072
| 16> H 1.5939397214 1.5047433294 -0.354643817
| 17> H 2.6092158103 0.5998279652 0.7785448152
| 18> H 1.2501876561 1.5610942366 1.3735065626
| 19> H -2.7852917181 -0.4193428647 0.0568386919
| 20> H -1.9382044376 -0.4420849443 1.6127651074
| 21> H -1.6357510774 -1.7243521018 0.4441941464
| 22> *
| 23>
| 24>                          ****END OF INPUT****

CARTESIAN COORDINATES (ANGSTROEM)
---------------------------------
  C      1.201568   -1.230924   -0.676303
  C      0.671172   -0.284196    0.406630
  C      1.593311    0.921946    0.562957
  C     -0.721593    0.159937   -0.021085
  O     -0.906046    1.083689   -0.770679
  C     -1.848366   -0.663451    0.550349
  H      0.556133   -2.099739   -0.787252
  H      1.250039   -0.711630   -1.630634
  H      2.200228   -1.573598   -0.415333
  H      0.603468   -0.828319    1.353589
  H      1.593940    1.504743   -0.354644
  H      2.609216    0.599828    0.778545
  H      1.250188    1.561094    1.373507
  H     -2.785292   -0.419343    0.056839
  H     -1.938204   -0.442085    1.612765
  H     -1.635751   -1.724352    0.444194

 Total Charge           Charge          ....    0
 Multiplicity           Mult            ....    1
 Number of Electrons    NEL             ....   48
 Basis Dimension        Dim             ....  104

ORBITAL ENERGIES
----------------

  NO   OCC          E(Eh)            E(eV)
   0   2.0000     -18.739192      -509.9193
   1   2.0000      -9.970308      -271.3059
   2   2.0000      -9.902842      -269.4700
   3   2.0000      -9.887528      -269.0533
   4   2.0000      -9.885949      -269.0104
   5   2.0000      -9.875674      -268.7308
   6   2.0000      -0.941198       -25.6113
   7   2.0000      -0.729363       -19.8470
   8   2.0000      -0.666050       -18.1241
   9   2.0000      -0.617563       -16.8047
  10   2.0000      -0.552096       -15.0233
  11   2.0000      -0.459240       -12.4965
  12   2.0000      -0.430061       -11.7026
  13   2.0000      -0.407750       -11.0954
  14   2.0000      -0.406055       -11.0493
  15   2.0000      -0.373303       -10.1581
  16   2.0000      -0.361561        -9.8386
  17   2.0000      -0.356310        -9.6957
  18   2.0000      -0.345819        -9.4102
  19   2.0000      -0.319166        -8.6849
  20   2.0000      -0.313109        -8.5201
  21   2.0000      -0.299008        -8.1364
  22   2.0000      -0.297487        -8.0950
  23   2.0000      -0.195253        -5.3131
  24   0.0000      -0.046346        -1.2611
  25   0.0000       0.026786         0.7289
  26   0.0000       0.065923         1.7939
  27   0.0000       0.073758         2.0071
  28   0.0000       0.089936         2.4473

MULLIKEN ATOMIC CHARGES
-----------------------
   0 C :   -0.254575
   1 C :   -0.186294
   2 C :   -0.236573
   3 C :    0.010104
   4 O :   -0.158976
   5 C :   -0.253059
   6 H :    0.103226
   7 H :    0.114420
   8 H :    0.112382
   9 H :    0.073173
  10 H :    0.115009
  11 H :    0.096999
  12 H :    0.101867
  13 H :    0.115948
  14 H :    0.127805
  15 H :    0.118544
Sum of atomic charges:   -0.0000000

LOEWDIN ATOMIC CHARGES
----------------------
   0 C :   -0.318268
   1 C :   -0.184036
   2 C :   -0.326273
   3 C :    0.049334
   4 O :   -0.120578
   5 C :   -0.363246
   6 H :    0.117711
   7 H :    0.126296
   8 H :    0.123447
   9 H :    0.118328
  10 H :    0.126181
  11 H :    0.117972
  12 H :    0.120199
  13 H :    0.132361
  14 H :    0.144762
  15 H :    0.135811

  Mayer bond orders larger than 0.100000
B(  0-C ,  1-C ) :   1.0858 B(  0-C ,  6-H ) :   0.9482 B(  0-C ,  7-H ) :   0.9474
B(  0-C ,  8-H ) :   0.9483 B(  1-C ,  2-C ) :   1.1022 B(  1-C ,  3-C ) :   0.9129
B(  1-C ,  9-H ) :   0.8999 B(  2-C , 10-H ) :   0.9398 B(  2-C , 11-H ) :   0.9503
B(  2-C , 12-H ) :   0.9552 B(  3-C ,  4-O ) :   2.2000 B(  3-C ,  5-C ) :   1.0784
B(  5-C , 13-H ) :   0.9349 B(  5-C , 14-H ) :   0.9228 B(  5-C , 15-H ) :   0.9261

Dispersion correction           -0.011797221
FINAL SINGLE POINT ENERGY      -271.143617460720

DIPOLE MOMENT
-------------

Method             : SCF
Type of density    : Electron Density
Multiplicity       :   1
Irrep              :   0
Energy             :  -271.1975860304935964 Eh
Relativity type    :
Basis              : AO
                                X                 Y                 Z
Electronic contribution:     -3.267444832       3.099290952      -1.688333396
Nuclear contribution   :      3.461492386      -3.861739632       2.269788371
                        -----------------------------------------
Total Dipole Moment    :      0.194047553      -0.762448680       0.581454975
                        -----------------------------------------
Magnitude (a.u.)       :      0.978300736
Magnitude (Debye)      :      2.486642854

Rotational constants in cm-1:             0.159641             0.092970             0.077872
Rotational constants in MHz :          4785.912274          2787.167344          2334.543911

                             ****ORCA TERMINATED NORMALLY****
TOTAL RUN TIME: 0 days 0 hours 0 minutes 7 seconds 47 msec
