                         Program Version 6.0.1  -  RELEASE   -
|  1> ! pbe def2-sv(p) def2/J RI DEFGRID1 loosescf d4 GCP(DFT/SV(P)) printgap
|  2> %output
|  3>     printlevel normal
|  4> end
|  5> * xyz 0 1
|  6> C -2.9205763514 -1.1004117767 0.179082193
|  7> O -1.7923780431 -0.6098996815 -0.5297168276
|  8> C -1.0502138946 0.3061093609 0.1068768484
|  9> O -1.3168225565 0.7123127045 1.2074188025
| 10> C 0.1080881548 0.7779580819 -0.7580047313
| 11> C 0.8177956661 -0.4068746135 -1.4189603373
| 12> C 1.3972858412 -1.3583393464 -0.3662680299
| 13> C 1.8654256137 -0.5988805729 0.8814454145
| 14> C 2.306996824 0.8113848824 0.5084063126
| 15> C 1.0955091457 1.6300645449 0.0532946066
| 16> H -3.3598912433 -1.8749016111 -0.4443455303
| 17> H -3.638428924 -0.2963556227 0.3538311254
| 18> H -2.6140600126 -1.5106714741 1.1435058111
| 19> H -0.354025901 1.3914562141 -1.5403927265
| 20> H 0.1231890757 -0.9438339751 -2.0650056109
| 21> H 1.6181580282 -0.0105559791 -2.0461106225
| 22> H 0.644852863 -2.0958387991 -0.0813775886
| 23> H 2.2348642431 -1.9023760341 -0.8077223282
| 24> H 1.0510458421 -0.5237533693 1.6039086795
| 25> H 2.6823947934 -1.1407733343 1.3609034731
| 26> H 2.7737809668 1.3000057393 1.3648102679
| 27> H 3.052983413 0.7576948925 -0.2871615421
| 28> H 0.5684157106 2.0143629207 0.9286022895
| 29> H 1.4294294086 2.4827824563 -0.53944023
| 30> *
| 31>
| 32>                          ****END OF INPUT****

CARTESIAN COORDINATES (ANGSTROEM)
---------------------------------
  C     -2.920576   -1.100412    0.179082
  O     -1.792378   -0.609900   -0.529717
  C     -1.050214    0.306109    0.106877
  O     -1.316823    0.712313    1.207419
  C      0.108088    0.777958   -0.758005
  C      0.817796   -0.406875   -1.418960
  C      1.397286   -1.358339   -0.366268
  C      1.865426   -0.598881    0.881445
  C      2.306997    0.811385    0.508406
  C      1.095509    1.630065    0.053295
  H     -3.359891   -1.874902   -0.444346
  H     -3.638429   -0.296356    0.353831
  H     -2.614060   -1.510671    1.143506
  H     -0.354026    1.391456   -1.540393
  H      0.123189   -0.943834   -2.065006
  H      1.618158   -0.010556   -2.046111
  H      0.644853   -2.095839   -0.081378
  H      2.234864   -1.902376   -0.807722
  H      1.051046   -0.523753    1.603909
  H      2.682395   -1.140773    1.360903
  H      2.773781    1.300006    1.364810
  H      3.052983    0.757695   -0.287162
  H      0.568416    2.014363    0.928602
  H      1.429429    2.482782   -0.539440

 Total Charge           Charge          ....    0
 Multiplicity           Mult            ....    1
 Number of Electrons    NEL             ....   78
 Basis Dimension        Dim             ....  168

ORBITAL ENERGIES
----------------

  NO   OCC          E(Eh)            E(eV)
   0   2.0000     -18.798771      -511.5406
   1   2.0000     -18.740074      -509.9433
   2   2.0000     -10.005213      -272.2557
   3   2.0000      -9.940713      -270.5005
   4   2.0000      -9.904037      -269.5026
   5   2.0000      -9.886175      -269.0165
   6   2.0000      -9.881691      -268.8945
   7   2.0000      -9.879116      -268.8244
   8   2.0000      -9.878729      -268.8139
   9   2.0000      -9.877620      -268.7837
  10   2.0000      -1.008386       -27.4396
  11   2.0000      -0.917659       -24.9708
  12   2.0000      -0.760387       -20.6912
  13   2.0000      -0.688572       -18.7370
  14   2.0000      -0.663430       -18.0529
  15   2.0000      -0.647594       -17.6219
  16   2.0000      -0.565478       -15.3874
  17   2.0000      -0.542950       -14.7744
  18   2.0000      -0.509371       -13.8607
  19   2.0000      -0.473879       -12.8949
  20   2.0000      -0.460058       -12.5188
  21   2.0000      -0.442134       -12.0311
  22   2.0000      -0.426061       -11.5937
  23   2.0000      -0.411592       -11.2000
  24   2.0000      -0.407787       -11.0964
  25   2.0000      -0.384314       -10.4577
  26   2.0000      -0.363476        -9.8907
  27   2.0000      -0.352848        -9.6015
  28   2.0000      -0.334960        -9.1147
  29   2.0000      -0.331795        -9.0286
  30   2.0000      -0.327009        -8.8984
  31   2.0000      -0.323042        -8.7904
  32   2.0000      -0.310297        -8.4436
  33   2.0000      -0.303759        -8.2657
  34   2.0000      -0.267405        -7.2765
  35   2.0000      -0.261519        -7.1163
  36   2.0000      -0.260003        -7.0750
  37   2.0000      -0.257841        -7.0162
  38   2.0000      -0.222195        -6.0462
  39   0.0000      -0.022978        -0.6253
  40   0.0000       0.029846         0.8122
  41   0.0000       0.046446         1.2639
  42   0.0000       0.069807         1.8995
  43   0.0000       0.075395         2.0516

MULLIKEN ATOMIC CHARGES
-----------------------
   0 C :   -0.110008
   1 O :   -0.241528
   2 C :    0.139385
   3 O :   -0.185365
   4 C :   -0.228614
   5 C :   -0.083699
   6 C :   -0.175541
   7 C :   -0.163843
   8 C :   -0.157195
   9 C :   -0.105453
  10 H :    0.119852
  11 H :    0.117182
  12 H :    0.117804
  13 H :    0.099613
  14 H :    0.095640
  15 H :    0.078033
  16 H :    0.082834
  17 H :    0.081922
  18 H :    0.094444
  19 H :    0.084478
  20 H :    0.087397
  21 H :    0.073135
  22 H :    0.102564
  23 H :    0.076962
Sum of atomic charges:    0.0000000

LOEWDIN ATOMIC CHARGES
----------------------
   0 C :   -0.206875
   1 O :   -0.073007
   2 C :    0.043452
   3 O :   -0.148430
   4 C :   -0.168415
   5 C :   -0.217165
   6 C :   -0.231898
   7 C :   -0.235240
   8 C :   -0.224173
   9 C :   -0.221210
  10 H :    0.119239
  11 H :    0.117889
  12 H :    0.118068
  13 H :    0.142157
  14 H :    0.122037
  15 H :    0.118257
  16 H :    0.115683
  17 H :    0.117616
  18 H :    0.120004
  19 H :    0.117164
  20 H :    0.119259
  21 H :    0.111395
  22 H :    0.127039
  23 H :    0.117153

  Mayer bond orders larger than 0.100000
B(  0-C ,  1-O ) :   0.9489 B(  0-C , 10-H ) :   0.9587 B(  0-C , 11-H ) :   0.9538
B(  0-C , 12-H ) :   0.9493 B(  1-O ,  2-C ) :   1.1976 B(  2-C ,  3-O ) :   2.0569
B(  2-C ,  4-C ) :   0.9438 B(  4-C ,  5-C ) :   1.1395 B(  4-C ,  9-C ) :   1.0849
B(  4-C , 13-H ) :   0.8608 B(  5-C ,  6-C ) :   1.1508 B(  5-C , 14-H ) :   0.9077
B(  5-C , 15-H ) :   0.8978 B(  6-C ,  7-C ) :   1.1451 B(  6-C , 16-H ) :   0.9152
B(  6-C , 17-H ) :   0.9177 B(  7-C ,  8-C ) :   1.1836 B(  7-C , 18-H ) :   0.9030
B(  7-C , 19-H ) :   0.9214 B(  8-C ,  9-C ) :   1.1541 B(  8-C , 20-H ) :   0.9206
B(  8-C , 21-H ) :   0.9074 B(  9-C , 22-H ) :   0.8988 B(  9-C , 23-H ) :   0.9119

Dispersion correction           -0.024041570
FINAL SINGLE POINT ENERGY      -462.698085937356

DIPOLE MOMENT
-------------

Method             : SCF
Type of density    : Electron Density
Multiplicity       :   1
Irrep              :   0
Energy             :  -462.7862500802442582 Eh
Relativity type    :
Basis              : AO
                                X                 Y                 Z
Electronic contribution:     -5.921215164       1.816941809       0.479420085
Nuclear contribution   :      5.782460832      -2.205761857      -0.980651559
                        -----------------------------------------
Total Dipole Moment    :     -0.138754332      -0.388820047      -0.501231473
                        -----------------------------------------
Magnitude (a.u.)       :      0.649358748
Magnitude (Debye)      :      1.650538768

Rotational constants in cm-1:             0.076470             0.033266             0.029956
Rotational constants in MHz :          2292.504451           997.302060           898.059016

                             ****ORCA TERMINATED NORMALLY****
TOTAL RUN TIME: 0 days 0 hours 0 minutes 8 seconds 486 msec
