                         Program Version 6.0.1  -  RELEASE   -
|  1> ! pbe def2-sv(p) def2/J RI DEFGRID1 loosescf d4 GCP(DFT/SV(P)) printgap
|  2> %output
|  3>     printlevel normal
|  4> end
|  5> * xyz 0 1
|  6> C -3.253744019 -0.3276567906 -0.0297565511
|  7> C -1.789626971 -0.4978947087 -0.4468707395
|  8> H -1.7640000983 -0.6579279065 -1.5309115063
|  9> C -1.1248254516 -1.6781255446 0.2597991431
| 10> C 0.3872814207 -1.5960646114 0.0807203973
| 11> C 0.9713904177 -0.3702171023 0.8097457896
| 12> H 1.2806931551 -0.6821001913 1.812766169
| 13> C -0.091743269 0.7352330648 0.9826342213
| 14> C -1.0553808646 0.8030592173 -0.1718387832
| 15> O -1.2643056107 1.8078389992 -0.8058344987
| 16> C 2.197684946 0.1468615054 0.093360112
| 17> C 3.4071142541 -0.0493360881 0.5947181332
| 18> C 1.9851787205 0.8765441504 -1.1970646012
| 19> H -3.8203793372 -1.2232118666 -0.2741948643
| 20> H -3.3272832578 -0.1532470677 1.0421829329
| 21> H -3.6936555153 0.5200645612 -0.5489513275
| 22> H -1.373467566 -1.6733357259 1.3230765018
| 23> H -1.5018093218 -2.6128705493 -0.160204635
| 24> H 0.8659845621 -2.5010802891 0.4573121181
| 25> H 0.6051266592 -1.5349091345 -0.9872317401
| 26> H -0.6878800384 0.5151631327 1.8716906155
| 27> H 0.3876038594 1.7038580813 1.1302925702
| 28> H 4.2943918465 0.2974748566 0.0927603126
| 29> H 3.5632114478 -0.5656741169 1.5271771277
| 30> H 1.4352335289 1.8014329157 -1.0321448711
| 31> H 2.9380169675 1.1193333585 -1.65962249
| 32> H 1.4036445612 0.2778040023 -1.8964474513
| 33> *
| 34>
| 35>                          ****END OF INPUT****

CARTESIAN COORDINATES (ANGSTROEM)
---------------------------------
  C     -3.253744   -0.327657   -0.029757
  C     -1.789627   -0.497895   -0.446871
  H     -1.764000   -0.657928   -1.530912
  C     -1.124825   -1.678126    0.259799
  C      0.387281   -1.596065    0.080720
  C      0.971390   -0.370217    0.809746
  H      1.280693   -0.682100    1.812766
  C     -0.091743    0.735233    0.982634
  C     -1.055381    0.803059   -0.171839
  O     -1.264306    1.807839   -0.805834
  C      2.197685    0.146862    0.093360
  C      3.407114   -0.049336    0.594718
  C      1.985179    0.876544   -1.197065
  H     -3.820379   -1.223212   -0.274195
  H     -3.327283   -0.153247    1.042183
  H     -3.693656    0.520065   -0.548951
  H     -1.373468   -1.673336    1.323077
  H     -1.501809   -2.612871   -0.160205
  H      0.865985   -2.501080    0.457312
  H      0.605127   -1.534909   -0.987232
  H     -0.687880    0.515163    1.871691
  H      0.387604    1.703858    1.130293
  H      4.294392    0.297475    0.092760
  H      3.563211   -0.565674    1.527177
  H      1.435234    1.801433   -1.032145
  H      2.938017    1.119333   -1.659622
  H      1.403645    0.277804   -1.896447

 Total Charge           Charge          ....    0
 Multiplicity           Mult            ....    1
 Number of Electrons    NEL             ....   84
 Basis Dimension        Dim             ....  186

ORBITAL ENERGIES
----------------

  NO   OCC          E(Eh)            E(eV)
   0   2.0000     -18.740492      -509.9547
   1   2.0000      -9.970718      -271.3170
   2   2.0000      -9.908792      -269.6319
   3   2.0000      -9.902812      -269.4692
   4   2.0000      -9.901013      -269.4203
   5   2.0000      -9.895105      -269.2595
   6   2.0000      -9.894792      -269.2510
   7   2.0000      -9.893874      -269.2260
   8   2.0000      -9.887789      -269.0604
   9   2.0000      -9.879389      -268.8318
  10   2.0000      -9.874014      -268.6856
  11   2.0000      -0.940580       -25.5945
  12   2.0000      -0.773950       -21.0603
  13   2.0000      -0.730154       -19.8685
  14   2.0000      -0.683040       -18.5865
  15   2.0000      -0.662640       -18.0313
  16   2.0000      -0.618905       -16.8413
  17   2.0000      -0.603257       -16.4155
  18   2.0000      -0.555789       -15.1238
  19   2.0000      -0.534493       -14.5443
  20   2.0000      -0.476211       -12.9584
  21   2.0000      -0.468221       -12.7409
  22   2.0000      -0.440525       -11.9873
  23   2.0000      -0.424445       -11.5497
  24   2.0000      -0.410335       -11.1658
  25   2.0000      -0.399162       -10.8618
  26   2.0000      -0.389036       -10.5862
  27   2.0000      -0.380102       -10.3431
  28   2.0000      -0.371373       -10.1056
  29   2.0000      -0.357860        -9.7379
  30   2.0000      -0.352297        -9.5865
  31   2.0000      -0.350989        -9.5509
  32   2.0000      -0.336381        -9.1534
  33   2.0000      -0.326596        -8.8871
  34   2.0000      -0.324054        -8.8180
  35   2.0000      -0.319490        -8.6938
  36   2.0000      -0.305605        -8.3159
  37   2.0000      -0.290941        -7.9169
  38   2.0000      -0.280994        -7.6462
  39   2.0000      -0.277680        -7.5561
  40   2.0000      -0.219892        -5.9836
  41   2.0000      -0.192644        -5.2421
  42   0.0000      -0.054114        -1.4725
  43   0.0000      -0.012525        -0.3408
  44   0.0000       0.024222         0.6591
  45   0.0000       0.041472         1.1285
  46   0.0000       0.055144         1.5005

MULLIKEN ATOMIC CHARGES
-----------------------
   0 C :   -0.219087
   1 C :   -0.206212
   2 H :    0.087358
   3 C :   -0.090281
   4 C :   -0.096022
   5 C :   -0.139447
   6 H :    0.058477
   7 C :   -0.080334
   8 C :   -0.001238
   9 O :   -0.157136
  10 C :   -0.058127
  11 C :   -0.237481
  12 C :   -0.212490
  13 H :    0.107383
  14 H :    0.094959
  15 H :    0.118615
  16 H :    0.068898
  17 H :    0.088204
  18 H :    0.087507
  19 H :    0.082057
  20 H :    0.098965
  21 H :    0.101384
  22 H :    0.082029
  23 H :    0.082293
  24 H :    0.131454
  25 H :    0.099983
  26 H :    0.108288
Sum of atomic charges:    0.0000000

LOEWDIN ATOMIC CHARGES
----------------------
   0 C :   -0.316273
   1 C :   -0.174706
   2 H :    0.134578
   3 C :   -0.219791
   4 C :   -0.213986
   5 C :   -0.122276
   6 H :    0.122925
   7 C :   -0.236654
   8 C :    0.048766
   9 O :   -0.122625
  10 C :   -0.048775
  11 C :   -0.266087
  12 C :   -0.327907
  13 H :    0.122433
  14 H :    0.117719
  15 H :    0.127623
  16 H :    0.115306
  17 H :    0.122290
  18 H :    0.123690
  19 H :    0.119201
  20 H :    0.141568
  21 H :    0.132362
  22 H :    0.117046
  23 H :    0.115718
  24 H :    0.136183
  25 H :    0.126666
  26 H :    0.125007

  Mayer bond orders larger than 0.100000
B(  0-C ,  1-C ) :   1.1026 B(  0-C , 13-H ) :   0.9478 B(  0-C , 14-H ) :   0.9452
B(  0-C , 15-H ) :   0.9436 B(  1-C ,  2-H ) :   0.8720 B(  1-C ,  3-C ) :   1.0824
B(  1-C ,  8-C ) :   0.9377 B(  3-C ,  4-C ) :   1.1730 B(  3-C , 16-H ) :   0.8861
B(  3-C , 17-H ) :   0.9077 B(  4-C ,  5-C ) :   1.0801 B(  4-C , 18-H ) :   0.9106
B(  4-C , 19-H ) :   0.8991 B(  5-C ,  6-H ) :   0.8664 B(  5-C ,  7-C ) :   1.0601
B(  5-C , 10-C ) :   1.0195 B(  7-C ,  8-C ) :   1.0781 B(  7-C , 20-H ) :   0.8624
B(  7-C , 21-H ) :   0.8981 B(  8-C ,  9-O ) :   2.1702 B( 10-C , 11-C ) :   2.0361
B( 10-C , 12-C ) :   1.1335 B( 11-C , 22-H ) :   0.9054 B( 11-C , 23-H ) :   0.9088
B( 12-C , 24-H ) :   0.9091 B( 12-C , 25-H ) :   0.9329 B( 12-C , 26-H ) :   0.9157

Dispersion correction           -0.029286465
FINAL SINGLE POINT ENERGY      -464.825611042659

DIPOLE MOMENT
-------------

Method             : SCF
Type of density    : Electron Density
Multiplicity       :   1
Irrep              :   0
Energy             :  -464.9112735875061162 Eh
Relativity type    :
Basis              : AO
                                X                 Y                 Z
Electronic contribution:     -0.584401998       4.150847670      -0.665187097
Nuclear contribution   :      0.549247429      -5.010420115       1.083406306
                        -----------------------------------------
Total Dipole Moment    :     -0.035154570      -0.859572445       0.418219210
                        -----------------------------------------
Magnitude (a.u.)       :      0.956560473
Magnitude (Debye)      :      2.431383498

Rotational constants in cm-1:             0.066744             0.026444             0.022018
Rotational constants in MHz :          2000.925700           792.784298           660.087176

                             ****ORCA TERMINATED NORMALLY****
TOTAL RUN TIME: 0 days 0 hours 0 minutes 26 seconds 915 msec
