                         Program Version 6.0.0  -   RELEASE  -
|  1> ! r2SCAN-3c DEF2-TZVP FREQ
|  2> * xyzfile 0 1 censo.xyz
|  3>
|  4>                          ****END OF INPUT****

CARTESIAN COORDINATES (ANGSTROEM)
---------------------------------
  C     -2.603220    1.411163   -0.000006
  C     -1.616584    0.291990   -0.000033
  C     -1.882212   -1.055892   -0.000045
  N     -0.701007   -1.773875    0.000079
  C      0.356513   -0.898186   -0.000028
  C     -0.186225    0.418110   -0.000024
  C      0.689086    1.514242    0.000023
  C      2.057588    1.280051    0.000020
  C      2.571445   -0.031437   -0.000019
  C      1.730362   -1.137275   -0.000032
  H     -3.627651    1.029053    0.000441
  H     -2.482168    2.052820    0.880759
  H     -2.482773    2.052354   -0.881197
  H     -2.834057   -1.569594   -0.000049
  H     -0.631050   -2.779173   -0.000643
  H      0.300458    2.528882    0.000056
  H      2.747328    2.118525    0.000048
  H      3.646731   -0.181242   -0.000027
  H      2.125406   -2.148556   -0.000042

 Total Charge           Charge          ....    0
 Multiplicity           Mult            ....    1
 Number of Electrons    NEL             ....   70
 Basis Dimension        Dim             ....  364

ORBITAL ENERGIES
----------------

  NO   OCC          E(Eh)            E(eV)
   0   2.0000     -14.204417      -386.5218
   1   2.0000     -10.061758      -273.7943
   2   2.0000     -10.060005      -273.7466
   3   2.0000     -10.032280      -272.9922
   4   2.0000     -10.028620      -272.8926
   5   2.0000     -10.028350      -272.8853
   6   2.0000     -10.027843      -272.8715
   7   2.0000     -10.027135      -272.8522
   8   2.0000     -10.026151      -272.8254
   9   2.0000     -10.022791      -272.7340
  10   2.0000      -0.943018       -25.6608
  11   2.0000      -0.801630       -21.8135
  12   2.0000      -0.761134       -20.7115
  13   2.0000      -0.700347       -19.0574
  14   2.0000      -0.691768       -18.8240
  15   2.0000      -0.656419       -17.8621
  16   2.0000      -0.587181       -15.9780
  17   2.0000      -0.557208       -15.1624
  18   2.0000      -0.524318       -14.2674
  19   2.0000      -0.502331       -13.6691
  20   2.0000      -0.450594       -12.2613
  21   2.0000      -0.435463       -11.8495
  22   2.0000      -0.405445       -11.0327
  23   2.0000      -0.401362       -10.9216
  24   2.0000      -0.394921       -10.7463
  25   2.0000      -0.377021       -10.2593
  26   2.0000      -0.367667       -10.0047
  27   2.0000      -0.359732        -9.7888
  28   2.0000      -0.342884        -9.3303
  29   2.0000      -0.316258        -8.6058
  30   2.0000      -0.308349        -8.3906
  31   2.0000      -0.298950        -8.1348
  32   2.0000      -0.249669        -6.7938
  33   2.0000      -0.203777        -5.5451
  34   2.0000      -0.182892        -4.9767
  35   0.0000      -0.036969        -1.0060
  36   0.0000      -0.001595        -0.0434
  37   0.0000       0.037537         1.0214
  38   0.0000       0.046193         1.2570
  39   0.0000       0.059249         1.6123

MULLIKEN ATOMIC CHARGES
-----------------------
   0 C :   -0.373075
   1 C :   -0.071104
   2 C :   -0.018526
   3 N :   -0.240769
   4 C :    0.208698
   5 C :    0.096116
   6 C :   -0.215071
   7 C :   -0.124828
   8 C :   -0.076340
   9 C :   -0.274884
  10 H :    0.107042
  11 H :    0.117490
  12 H :    0.117500
  13 H :    0.127049
  14 H :    0.224944
  15 H :    0.102164
  16 H :    0.099819
  17 H :    0.104450
  18 H :    0.089326
Sum of atomic charges:   -0.0000000

LOEWDIN ATOMIC CHARGES
----------------------
   0 C :   -0.261014
   1 C :   -0.184149
   2 C :   -0.185479
   3 N :    0.192784
   4 C :   -0.165030
   5 C :   -0.099542
   6 C :   -0.114848
   7 C :   -0.160148
   8 C :   -0.154259
   9 C :   -0.135910
  10 H :    0.127370
  11 H :    0.128142
  12 H :    0.128143
  13 H :    0.132306
  14 H :    0.186739
  15 H :    0.143471
  16 H :    0.140151
  17 H :    0.140829
  18 H :    0.140444

  Mayer bond orders larger than 0.100000
B(  0-C ,  1-C ) :   0.9181 B(  0-C , 10-H ) :   0.9895 B(  0-C , 11-H ) :   0.9737
B(  0-C , 12-H ) :   0.9737 B(  1-C ,  2-C ) :   1.6060 B(  1-C ,  5-C ) :   1.1417
B(  2-C ,  3-N ) :   1.1172 B(  2-C , 13-H ) :   0.9505 B(  3-N ,  4-C ) :   1.1390
B(  3-N , 14-H ) :   0.9164 B(  4-C ,  5-C ) :   1.2432 B(  4-C ,  9-C ) :   1.2792
B(  5-C ,  6-C ) :   1.2483 B(  6-C ,  7-C ) :   1.4889 B(  6-C , 15-H ) :   0.9836
B(  7-C ,  8-C ) :   1.3258 B(  7-C , 16-H ) :   0.9754 B(  8-C ,  9-C ) :   1.4636
B(  8-C , 17-H ) :   0.9687 B(  9-C , 18-H ) :   0.9855

Dispersion correction           -0.006959688
FINAL SINGLE POINT ENERGY      -403.060604296471

DIPOLE MOMENT
-------------

Method             : SCF
Type of density    : Electron Density
Multiplicity       :   1
Irrep              :   0
Energy             :  -403.0609447096180702 Eh
Relativity type    :
Basis              : AO
                                X                 Y                 Z
Electronic contribution:      2.644860970      -3.641196784       0.000147966
Nuclear contribution   :     -3.062762962       2.913428434      -0.000529358
                        -----------------------------------------
Total Dipole Moment    :     -0.417901992      -0.727768350      -0.000381392
                        -----------------------------------------
Magnitude (a.u.)       :      0.839219275
Magnitude (Debye)      :      2.133125874

VIBRATIONAL FREQUENCIES
-----------------------

Scaling factor for frequencies =  1.000000000  (already applied!)

     0:       0.00 cm**-1
     1:       0.00 cm**-1
     2:       0.00 cm**-1
     3:       0.00 cm**-1
     4:       0.00 cm**-1
     5:       0.00 cm**-1
     6:     156.53 cm**-1
     7:     158.24 cm**-1
     8:     225.09 cm**-1
     9:     228.44 cm**-1
    10:     289.62 cm**-1
    11:     406.46 cm**-1
    12:     428.07 cm**-1
    13:     472.52 cm**-1
    14:     540.40 cm**-1
    15:     573.34 cm**-1
    16:     589.81 cm**-1
    17:     618.57 cm**-1
    18:     720.80 cm**-1
    19:     739.35 cm**-1
    20:     762.76 cm**-1
    21:     774.16 cm**-1
    22:     775.63 cm**-1
    23:     840.94 cm**-1
    24:     893.13 cm**-1
    25:     904.66 cm**-1
    26:     941.10 cm**-1
    27:     995.01 cm**-1
    28:    1027.40 cm**-1
    29:    1056.99 cm**-1
    30:    1094.51 cm**-1
    31:    1110.46 cm**-1
    32:    1144.92 cm**-1
    33:    1173.26 cm**-1
    34:    1245.43 cm**-1
    35:    1268.06 cm**-1
    36:    1320.05 cm**-1
    37:    1365.35 cm**-1
    38:    1372.77 cm**-1
    39:    1407.44 cm**-1
    40:    1448.08 cm**-1
    41:    1471.95 cm**-1
    42:    1474.31 cm**-1
    43:    1490.14 cm**-1
    44:    1517.88 cm**-1
    45:    1582.33 cm**-1
    46:    1604.51 cm**-1
    47:    1650.09 cm**-1
    48:    2996.73 cm**-1
    49:    3050.54 cm**-1
    50:    3091.43 cm**-1
    51:    3150.97 cm**-1
    52:    3157.69 cm**-1
    53:    3167.32 cm**-1
    54:    3178.35 cm**-1
    55:    3226.63 cm**-1
    56:    3627.24 cm**-1

IR SPECTRUM
-----------

 Mode   freq       eps      Int      T**2         TX        TY        TZ
       cm**-1   L/(mol*cm) km/mol    a.u.
----------------------------------------------------------------------------
  6:    156.53   0.000221    1.12  0.000441  (-0.000035 -0.000088  0.020994)
  7:    158.24   0.000513    2.59  0.001012  ( 0.000031 -0.000101  0.031815)
  8:    225.09   0.000093    0.47  0.000128  (-0.002881 -0.010962 -0.000106)
  9:    228.44   0.001111    5.61  0.001517  (-0.000062 -0.000021  0.038953)
 10:    289.62   0.000878    4.44  0.000946  (-0.000075 -0.000164  0.030756)
 11:    406.46   0.014434   72.94  0.011082  ( 0.000063  0.000160 -0.105269)
 12:    428.07   0.000369    1.86  0.000269  ( 0.000015  0.000098  0.016399)
 13:    472.52   0.000577    2.91  0.000381  ( 0.016185 -0.010904  0.000019)
 14:    540.40   0.000397    2.01  0.000229  (-0.009112  0.012091 -0.000010)
 15:    573.34   0.000329    1.66  0.000179  (-0.012933  0.003465 -0.000020)
 16:    589.81   0.001360    6.87  0.000720  (-0.000053  0.000072  0.026826)
 17:    618.57   0.000725    3.66  0.000366  (-0.000019  0.000014  0.019119)
 18:    720.80   0.000013    0.07  0.000006  (-0.002177 -0.000999 -0.000015)
 19:    739.35   0.016046   81.09  0.006773  (-0.000005 -0.000040  0.082297)
 20:    762.76   0.000015    0.08  0.000006  (-0.000003 -0.000092  0.002473)
 21:    774.16   0.000545    2.76  0.000220  ( 0.013847  0.005302  0.000188)
 22:    775.63   0.002536   12.82  0.001020  ( 0.000042 -0.000101 -0.031944)
 23:    840.94   0.000101    0.51  0.000038  ( 0.000011  0.000100  0.006124)
 24:    893.13   0.000015    0.08  0.000005  (-0.001473  0.001790  0.000003)
 25:    904.66   0.000125    0.63  0.000043  (-0.000020 -0.000023  0.006564)
 26:    941.10   0.000003    0.01  0.000001  ( 0.000010 -0.000006 -0.000992)
 27:    995.01   0.001231    6.22  0.000386  (-0.017002  0.009852  0.000003)
 28:   1027.40   0.002142   10.83  0.000651  (-0.024904 -0.005515  0.000002)
 29:   1056.99   0.000010    0.05  0.000003  ( 0.000008 -0.000018  0.001693)
 30:   1094.51   0.003349   16.93  0.000955  ( 0.017092  0.025744  0.000000)
 31:   1110.46   0.004515   22.82  0.001269  (-0.003386 -0.035460  0.000005)
 32:   1144.92   0.000189    0.96  0.000052  (-0.006768 -0.002393 -0.000004)
 33:   1173.26   0.000101    0.51  0.000027  (-0.004494  0.002569  0.000001)
 34:   1245.43   0.002412   12.19  0.000604  (-0.019870  0.014480 -0.000003)
 35:   1268.06   0.001585    8.01  0.000390  ( 0.009165 -0.017498 -0.000000)
 36:   1320.05   0.001614    8.16  0.000382  (-0.007305 -0.018118  0.000003)
 37:   1365.35   0.002286   11.55  0.000523  (-0.019207  0.012396  0.000001)
 38:   1372.77   0.003522   17.80  0.000801  ( 0.026089  0.010952  0.000000)
 39:   1407.44   0.000323    1.63  0.000072  (-0.001127  0.008386  0.000002)
 40:   1448.08   0.002372   11.98  0.000511  (-0.022590  0.000863  0.000002)
 41:   1471.95   0.001584    8.00  0.000336  (-0.000003  0.000006  0.018325)
 42:   1474.31   0.004661   23.55  0.000987  ( 0.021961  0.022456  0.000004)
 43:   1490.14   0.001457    7.36  0.000305  (-0.017005 -0.003980  0.000004)
 44:   1517.88   0.000342    1.73  0.000070  (-0.007859 -0.002933  0.000001)
 45:   1582.33   0.000210    1.06  0.000041  (-0.003674  0.005289 -0.000002)
 46:   1604.51   0.000174    0.88  0.000034  (-0.005697  0.001204  0.000000)
 47:   1650.09   0.000700    3.54  0.000132  ( 0.009471  0.006540 -0.000003)
 48:   2996.73   0.009700   49.02  0.001010  ( 0.021691 -0.023230  0.000011)
 49:   3050.54   0.003907   19.74  0.000400  ( 0.000009 -0.000008 -0.019991)
 50:   3091.43   0.003881   19.61  0.000392  ( 0.017427  0.009382 -0.000001)
 51:   3150.97   0.000334    1.69  0.000033  ( 0.004371 -0.003732  0.000000)
 52:   3157.69   0.000485    2.45  0.000048  (-0.006906 -0.000515  0.000000)
 53:   3167.32   0.005778   29.20  0.000569  ( 0.003831 -0.023550 -0.000000)
 54:   3178.35   0.003341   16.88  0.000328  ( 0.017829  0.003187  0.000000)
 55:   3226.63   0.000293    1.48  0.000028  ( 0.005278  0.000714  0.000001)
 56:   3627.24   0.013886   70.17  0.001195  ( 0.003367  0.034399  0.000019)

--------------------------
THERMOCHEMISTRY AT 298.15K
--------------------------

Temperature         ...   298.15 K
Pressure            ...     1.00 atm
Total Mass          ...   131.18 AMU
Quasi RRHO          ...     True
Cut-Off Frequency   ...     1.00 cm^-1

Throughout the following assumptions are being made:
  (1) The electronic state is orbitally nondegenerate
  (2) There are no thermally accessible electronically excited states
  (3) Hindered rotations indicated by low frequency modes are not
      treated as such but are treated as vibrations and this may
      cause some error
  (4) All equations used are the standard statistical mechanics
      equations for an ideal gas
  (5) All vibrations are strictly harmonic

freq.     156.53  E(vib)   ...       0.40
freq.     158.24  E(vib)   ...       0.39
freq.     225.09  E(vib)   ...       0.33
freq.     228.44  E(vib)   ...       0.32
freq.     289.62  E(vib)   ...       0.27
freq.     406.46  E(vib)   ...       0.19
freq.     428.07  E(vib)   ...       0.18
freq.     472.52  E(vib)   ...       0.15
freq.     540.40  E(vib)   ...       0.12
freq.     573.34  E(vib)   ...       0.11
freq.     589.81  E(vib)   ...       0.10
freq.     618.57  E(vib)   ...       0.09
freq.     720.80  E(vib)   ...       0.07
freq.     739.35  E(vib)   ...       0.06
freq.     762.76  E(vib)   ...       0.06
freq.     774.16  E(vib)   ...       0.05
freq.     775.63  E(vib)   ...       0.05
freq.     840.94  E(vib)   ...       0.04
freq.     893.13  E(vib)   ...       0.03
freq.     904.66  E(vib)   ...       0.03
freq.     941.10  E(vib)   ...       0.03
freq.     995.01  E(vib)   ...       0.02
freq.    1027.40  E(vib)   ...       0.02
freq.    1056.99  E(vib)   ...       0.02
freq.    1094.51  E(vib)   ...       0.02
freq.    1110.46  E(vib)   ...       0.02
freq.    1144.92  E(vib)   ...       0.01
freq.    1173.26  E(vib)   ...       0.01
freq.    1245.43  E(vib)   ...       0.01
freq.    1268.06  E(vib)   ...       0.01
freq.    1320.05  E(vib)   ...       0.01
freq.    1365.35  E(vib)   ...       0.01
freq.    1372.77  E(vib)   ...       0.01
freq.    1407.44  E(vib)   ...       0.00
freq.    1448.08  E(vib)   ...       0.00
freq.    1471.95  E(vib)   ...       0.00
freq.    1474.31  E(vib)   ...       0.00
freq.    1490.14  E(vib)   ...       0.00
freq.    1517.88  E(vib)   ...       0.00
freq.    1582.33  E(vib)   ...       0.00
freq.    1604.51  E(vib)   ...       0.00
freq.    1650.09  E(vib)   ...       0.00
freq.    2996.73  E(vib)   ...       0.00
freq.    3050.54  E(vib)   ...       0.00
freq.    3091.43  E(vib)   ...       0.00
freq.    3150.97  E(vib)   ...       0.00
freq.    3157.69  E(vib)   ...       0.00
freq.    3167.32  E(vib)   ...       0.00
freq.    3178.35  E(vib)   ...       0.00
freq.    3226.63  E(vib)   ...       0.00
freq.    3627.24  E(vib)   ...       0.00

------------
INNER ENERGY
------------

The inner energy is: U= E(el) + E(ZPE) + E(vib) + E(rot) + E(trans)
    E(el)   - is the total energy from the electronic structure calculation
              = E(kin-el) + E(nuc-el) + E(el-el) + E(nuc-nuc)
    E(ZPE)  - the the zero temperature vibrational energy from the frequency calculation
    E(vib)  - the the finite temperature correction to E(ZPE) due to population
              of excited vibrational states
    E(rot)  - is the rotational thermal energy
    E(trans)- is the translational thermal energy

Summary of contributions to the inner energy U:
Electronic energy                ...   -403.06060430 Eh
Zero point energy                ...      0.15607147 Eh      97.94 kcal/mol
Thermal vibrational correction   ...      0.00522547 Eh       3.28 kcal/mol
Thermal rotational correction    ...      0.00141627 Eh       0.89 kcal/mol
Thermal translational correction ...      0.00141627 Eh       0.89 kcal/mol
-----------------------------------------------------------------------
Total thermal energy                   -402.89647481 Eh

Summary of corrections to the electronic energy:
(perhaps to be used in another calculation)
Total thermal correction                  0.00805801 Eh       5.06 kcal/mol
Non-thermal (ZPE) correction              0.15607147 Eh      97.94 kcal/mol
-----------------------------------------------------------------------
Total correction                          0.16412949 Eh     102.99 kcal/mol

--------
ENTHALPY
--------

The enthalpy is H = U + kB*T
                kB is Boltzmann's constant
Total thermal energy              ...   -402.89647481 Eh
Thermal Enthalpy correction       ...      0.00094421 Eh       0.59 kcal/mol
-----------------------------------------------------------------------
Total Enthalpy                    ...   -402.89553060 Eh

Note: Only C1 symmetry has been detected, increase convergence thresholds
      if your molecule has a higher symmetry. Symmetry factor of 1.0 is
      used for the rotational entropy correction.

Note: Rotational entropy computed according to Herzberg
Infrared and Raman Spectra, Chapter V,1, Van Nostrand Reinhold, 1945
Point Group:  C1, Symmetry Number:   1
Rotational constants in cm-1:     0.086888     0.042408     0.028650

Vibrational entropy computed according to the QRRHO of S. Grimme
Chem.Eur.J. 2012 18 9955 using a reference frequency of 100.0 cm-1

-------
ENTROPY
-------

The entropy contributions are T*S = T*(S(el)+S(vib)+S(rot)+S(trans))
     S(el)   - electronic entropy
     S(vib)  - vibrational entropy
     S(rot)  - rotational entropy
     S(trans)- translational entropy
The entropies will be listed as multiplied by the temperature to get
units of energy

Electronic entropy                ...      0.00000000 Eh      0.00 kcal/mol
Vibrational entropy               ...      0.00828280 Eh      5.20 kcal/mol
Rotational entropy                ...      0.01383334 Eh      8.68 kcal/mol
Translational entropy             ...      0.01925560 Eh     12.08 kcal/mol
-----------------------------------------------------------------------
Final entropy term                ...      0.04137173 Eh     25.96 kcal/mol

In case the symmetry of your molecule has not been determined correctly
or in case you have a reason to use a different symmetry number we print
out the resulting rotational entropy values for sn=1,12:

 non-linear molecules -----------------------------------
|  sn= 1 | S(rot)=       0.01383334 Eh      8.68 kcal/mol|
|  sn= 2 | S(rot)=       0.01317888 Eh      8.27 kcal/mol|
|  sn= 3 | S(rot)=       0.01279605 Eh      8.03 kcal/mol|
|  sn= 4 | S(rot)=       0.01252443 Eh      7.86 kcal/mol|
|  sn= 5 | S(rot)=       0.01231374 Eh      7.73 kcal/mol|
|  sn= 6 | S(rot)=       0.01214159 Eh      7.62 kcal/mol|
|  sn= 7 | S(rot)=       0.01199605 Eh      7.53 kcal/mol|
|  sn= 8 | S(rot)=       0.01186997 Eh      7.45 kcal/mol|
|  sn= 9 | S(rot)=       0.01175876 Eh      7.38 kcal/mol|

                             ****ORCA TERMINATED NORMALLY****
TOTAL RUN TIME: 0 days 0 hours 19 minutes 20 seconds 547 msec
