                         Program Version 6.0.0  -   RELEASE  -
|  1> ! r2SCAN-3c DEF2-TZVP FREQ
|  2> * xyzfile 0 1 vacuum_censo.xyz
|  3>
|  4>                          ****END OF INPUT****

CARTESIAN COORDINATES (ANGSTROEM)
---------------------------------
  C     -2.599893    1.410583   -0.000052
  C     -1.616297    0.289086   -0.000037
  C     -1.885809   -1.054796   -0.000034
  N     -0.702547   -1.773506    0.000074
  C      0.357865   -0.897744   -0.000008
  C     -0.186163    0.414593   -0.000016
  C      0.687688    1.509334    0.000034
  C      2.054401    1.277612    0.000045
  C      2.569428   -0.030655    0.000010
  C      1.730456   -1.135857   -0.000007
  H     -2.475630    2.049096    0.882303
  H     -2.475648    2.049035   -0.882454
  H     -3.626649    1.035351   -0.000028
  H     -2.839404   -1.564254   -0.000024
  H     -0.631818   -2.774938   -0.000430
  H      0.298884    2.523365    0.000062
  H      2.742569    2.116626    0.000082
  H      3.644387   -0.178983    0.000010
  H      2.131251   -2.144861   -0.000011

 Total Charge           Charge          ....    0
 Multiplicity           Mult            ....    1
 Number of Electrons    NEL             ....   70
 Basis Dimension        Dim             ....  364

ORBITAL ENERGIES
----------------

  NO   OCC          E(Eh)            E(eV)
   0   2.0000     -14.203488      -386.4965
   1   2.0000     -10.061496      -273.7872
   2   2.0000     -10.059702      -273.7384
   3   2.0000     -10.031945      -272.9831
   4   2.0000     -10.028068      -272.8776
   5   2.0000     -10.027772      -272.8695
   6   2.0000     -10.027634      -272.8658
   7   2.0000     -10.026601      -272.8377
   8   2.0000     -10.025524      -272.8084
   9   2.0000     -10.022111      -272.7155
  10   2.0000      -0.942221       -25.6391
  11   2.0000      -0.802569       -21.8390
  12   2.0000      -0.761509       -20.7217
  13   2.0000      -0.700641       -19.0654
  14   2.0000      -0.692317       -18.8389
  15   2.0000      -0.656611       -17.8673
  16   2.0000      -0.587227       -15.9793
  17   2.0000      -0.557549       -15.1717
  18   2.0000      -0.524290       -14.2666
  19   2.0000      -0.502362       -13.6700
  20   2.0000      -0.450449       -12.2573
  21   2.0000      -0.435846       -11.8600
  22   2.0000      -0.405827       -11.0431
  23   2.0000      -0.401436       -10.9236
  24   2.0000      -0.394790       -10.7428
  25   2.0000      -0.377477       -10.2717
  26   2.0000      -0.367803       -10.0084
  27   2.0000      -0.359228        -9.7751
  28   2.0000      -0.343009        -9.3337
  29   2.0000      -0.316232        -8.6051
  30   2.0000      -0.308714        -8.4005
  31   2.0000      -0.299121        -8.1395
  32   2.0000      -0.249796        -6.7973
  33   2.0000      -0.204062        -5.5528
  34   2.0000      -0.183079        -4.9818
  35   0.0000      -0.036737        -0.9997
  36   0.0000      -0.001297        -0.0353
  37   0.0000       0.038002         1.0341
  38   0.0000       0.047416         1.2903
  39   0.0000       0.059239         1.6120

MULLIKEN ATOMIC CHARGES
-----------------------
   0 C :   -0.372709
   1 C :   -0.070848
   2 C :   -0.017721
   3 N :   -0.240139
   4 C :    0.209219
   5 C :    0.096419
   6 C :   -0.213928
   7 C :   -0.125909
   8 C :   -0.074010
   9 C :   -0.277678
  10 H :    0.117405
  11 H :    0.117407
  12 H :    0.106905
  13 H :    0.127319
  14 H :    0.223296
  15 H :    0.101787
  16 H :    0.099451
  17 H :    0.104377
  18 H :    0.089356
Sum of atomic charges:   -0.0000000

LOEWDIN ATOMIC CHARGES
----------------------
   0 C :   -0.260537
   1 C :   -0.184904
   2 C :   -0.184260
   3 N :    0.192545
   4 C :   -0.163904
   5 C :   -0.100292
   6 C :   -0.114512
   7 C :   -0.160355
   8 C :   -0.154271
   9 C :   -0.135703
  10 H :    0.128244
  11 H :    0.128246
  12 H :    0.127152
  13 H :    0.132478
  14 H :    0.184415
  15 H :    0.143622
  16 H :    0.140313
  17 H :    0.140985
  18 H :    0.140739

  Mayer bond orders larger than 0.100000
B(  0-C ,  1-C ) :   0.9174 B(  0-C , 10-H ) :   0.9741 B(  0-C , 11-H ) :   0.9741
B(  0-C , 12-H ) :   0.9894 B(  1-C ,  2-C ) :   1.6100 B(  1-C ,  5-C ) :   1.1396
B(  2-C ,  3-N ) :   1.1154 B(  2-C , 13-H ) :   0.9506 B(  3-N ,  4-C ) :   1.1376
B(  3-N , 14-H ) :   0.9179 B(  4-C ,  5-C ) :   1.2454 B(  4-C ,  9-C ) :   1.2792
B(  5-C ,  6-C ) :   1.2495 B(  6-C ,  7-C ) :   1.4894 B(  6-C , 15-H ) :   0.9839
B(  7-C ,  8-C ) :   1.3266 B(  7-C , 16-H ) :   0.9757 B(  8-C ,  9-C ) :   1.4638
B(  8-C , 17-H ) :   0.9685 B(  9-C , 18-H ) :   0.9860

Dispersion correction           -0.006965030
FINAL SINGLE POINT ENERGY      -403.060693118904

DIPOLE MOMENT
-------------

Method             : SCF
Type of density    : Electron Density
Multiplicity       :   1
Irrep              :   0
Energy             :  -403.0610223572751920 Eh
Relativity type    :
Basis              : AO
                                X                 Y                 Z
Electronic contribution:      2.638391807      -3.647123445       0.000185290
Nuclear contribution   :     -3.052459045       2.927740322      -0.000443757
                        -----------------------------------------
Total Dipole Moment    :     -0.414067238      -0.719383123      -0.000258467
                        -----------------------------------------
Magnitude (a.u.)       :      0.830038446
Magnitude (Debye)      :      2.109790062

VIBRATIONAL FREQUENCIES
-----------------------

Scaling factor for frequencies =  1.000000000  (already applied!)

     0:       0.00 cm**-1
     1:       0.00 cm**-1
     2:       0.00 cm**-1
     3:       0.00 cm**-1
     4:       0.00 cm**-1
     5:       0.00 cm**-1
     6:     152.56 cm**-1
     7:     155.30 cm**-1
     8:     223.80 cm**-1
     9:     225.49 cm**-1
    10:     268.33 cm**-1
    11:     364.38 cm**-1
    12:     425.39 cm**-1
    13:     471.30 cm**-1
    14:     540.78 cm**-1
    15:     573.75 cm**-1
    16:     587.10 cm**-1
    17:     615.95 cm**-1
    18:     722.03 cm**-1
    19:     737.70 cm**-1
    20:     761.74 cm**-1
    21:     773.88 cm**-1
    22:     775.40 cm**-1
    23:     840.54 cm**-1
    24:     894.01 cm**-1
    25:     904.79 cm**-1
    26:     940.83 cm**-1
    27:     995.63 cm**-1
    28:    1031.75 cm**-1
    29:    1058.03 cm**-1
    30:    1092.19 cm**-1
    31:    1107.64 cm**-1
    32:    1147.05 cm**-1
    33:    1174.92 cm**-1
    34:    1242.46 cm**-1
    35:    1267.91 cm**-1
    36:    1318.38 cm**-1
    37:    1366.84 cm**-1
    38:    1380.83 cm**-1
    39:    1407.26 cm**-1
    40:    1444.13 cm**-1
    41:    1472.71 cm**-1
    42:    1477.55 cm**-1
    43:    1489.22 cm**-1
    44:    1519.38 cm**-1
    45:    1588.63 cm**-1
    46:    1612.35 cm**-1
    47:    1654.65 cm**-1
    48:    2997.99 cm**-1
    49:    3053.25 cm**-1
    50:    3092.85 cm**-1
    51:    3154.93 cm**-1
    52:    3160.13 cm**-1
    53:    3170.38 cm**-1
    54:    3182.52 cm**-1
    55:    3231.33 cm**-1
    56:    3671.73 cm**-1

IR SPECTRUM
-----------

 Mode   freq       eps      Int      T**2         TX        TY        TZ
       cm**-1   L/(mol*cm) km/mol    a.u.
----------------------------------------------------------------------------
  6:    152.56   0.000006    0.03  0.000012  (-0.000025 -0.000016 -0.003527)
  7:    155.30   0.001054    5.33  0.002118  ( 0.000004  0.000164 -0.046026)
  8:    223.80   0.000096    0.48  0.000133  ( 0.002797  0.011190  0.000373)
  9:    225.49   0.001613    8.15  0.002232  ( 0.000071  0.000177 -0.047248)
 10:    268.33   0.003440   17.38  0.004000  (-0.000076 -0.000191  0.063247)
 11:    364.38   0.011194   56.57  0.009587  (-0.000037 -0.000041  0.097912)
 12:    425.39   0.000833    4.21  0.000611  ( 0.000003 -0.000007  0.024721)
 13:    471.30   0.000579    2.93  0.000384  (-0.016170  0.011048 -0.000020)
 14:    540.78   0.000399    2.01  0.000230  ( 0.009163 -0.012088  0.000008)
 15:    573.75   0.000326    1.65  0.000177  ( 0.012899 -0.003303  0.000018)
 16:    587.10   0.001085    5.48  0.000577  ( 0.000037 -0.000019 -0.024016)
 17:    615.95   0.000420    2.12  0.000213  ( 0.000012  0.000022 -0.014591)
 18:    722.03   0.000015    0.08  0.000006  ( 0.002356  0.000953  0.000006)
 19:    737.70   0.015998   80.85  0.006767  (-0.000001 -0.000010 -0.082265)
 20:    761.74   0.000030    0.15  0.000012  ( 0.000004  0.000024 -0.003512)
 21:    773.88   0.002547   12.87  0.001027  ( 0.000123  0.000102  0.032048)
 22:    775.40   0.000583    2.95  0.000235  (-0.014272 -0.005569  0.000212)
 23:    840.54   0.000087    0.44  0.000032  (-0.000011 -0.000048 -0.005689)
 24:    894.01   0.000015    0.08  0.000005  ( 0.000835 -0.002145  0.000002)
 25:    904.79   0.000135    0.68  0.000047  ( 0.000015  0.000008 -0.006827)
 26:    940.83   0.000004    0.02  0.000001  (-0.000005 -0.000003  0.001097)
 27:    995.63   0.001202    6.07  0.000377  ( 0.017136 -0.009117 -0.000004)
 28:   1031.75   0.002088   10.55  0.000632  ( 0.024368  0.006155 -0.000001)
 29:   1058.03   0.000010    0.05  0.000003  ( 0.000004  0.000010 -0.001729)
 30:   1092.19   0.005023   25.38  0.001435  (-0.016594 -0.034054  0.000001)
 31:   1107.64   0.002766   13.98  0.000779  (-0.001799  0.027856 -0.000004)
 32:   1147.05   0.000279    1.41  0.000076  (-0.007712 -0.004068 -0.000002)
 33:   1174.92   0.000095    0.48  0.000025  ( 0.003880 -0.003173 -0.000000)
 34:   1242.46   0.002306   11.65  0.000579  ( 0.020155 -0.013151  0.000002)
 35:   1267.91   0.001806    9.13  0.000445  (-0.010296  0.018401  0.000000)
 36:   1318.38   0.001538    7.77  0.000364  ( 0.007131  0.017695 -0.000003)
 37:   1366.84   0.002354   11.89  0.000537  ( 0.019453 -0.012608 -0.000002)
 38:   1380.83   0.004057   20.50  0.000917  (-0.028448 -0.010368 -0.000001)
 39:   1407.26   0.000393    1.99  0.000087  (-0.000589 -0.009315  0.000000)
 40:   1444.13   0.001929    9.75  0.000417  ( 0.020392 -0.001027  0.000001)
 41:   1472.71   0.001592    8.05  0.000337  (-0.000000 -0.000002 -0.018369)
 42:   1477.55   0.005013   25.33  0.001059  (-0.023211 -0.022802  0.000001)
 43:   1489.22   0.001200    6.07  0.000252  ( 0.015513  0.003299  0.000000)
 44:   1519.38   0.000250    1.26  0.000051  ( 0.006486  0.003039 -0.000001)
 45:   1588.63   0.000217    1.10  0.000043  ( 0.003448 -0.005551  0.000001)
 46:   1612.35   0.000106    0.54  0.000021  ( 0.004314 -0.001383  0.000000)
 47:   1654.65   0.000613    3.10  0.000116  (-0.008642 -0.006392  0.000003)
 48:   2997.99   0.009594   48.48  0.000999  (-0.021412  0.023242 -0.000007)
 49:   3053.25   0.003874   19.58  0.000396  (-0.000011  0.000007  0.019899)
 50:   3092.85   0.003929   19.85  0.000396  (-0.017656 -0.009201 -0.000004)
 51:   3154.93   0.000481    2.43  0.000048  (-0.003998  0.005622 -0.000000)
 52:   3160.13   0.000449    2.27  0.000044  ( 0.005798  0.003274 -0.000000)
 53:   3170.38   0.005572   28.16  0.000548  (-0.006203  0.022584  0.000000)
 54:   3182.52   0.003501   17.69  0.000343  (-0.017688 -0.005515 -0.000000)
 55:   3231.33   0.000264    1.33  0.000025  (-0.005015 -0.000580 -0.000000)
 56:   3671.73   0.013760   69.54  0.001169  (-0.003343 -0.034033 -0.000013)

--------------------------
THERMOCHEMISTRY AT 298.15K
--------------------------

Temperature         ...   298.15 K
Pressure            ...     1.00 atm
Total Mass          ...   131.18 AMU
Quasi RRHO          ...     True
Cut-Off Frequency   ...     1.00 cm^-1

Throughout the following assumptions are being made:
  (1) The electronic state is orbitally nondegenerate
  (2) There are no thermally accessible electronically excited states
  (3) Hindered rotations indicated by low frequency modes are not
      treated as such but are treated as vibrations and this may
      cause some error
  (4) All equations used are the standard statistical mechanics
      equations for an ideal gas
  (5) All vibrations are strictly harmonic

freq.     152.56  E(vib)   ...       0.40
freq.     155.30  E(vib)   ...       0.40
freq.     223.80  E(vib)   ...       0.33
freq.     225.49  E(vib)   ...       0.33
freq.     268.33  E(vib)   ...       0.29
freq.     364.38  E(vib)   ...       0.22
freq.     425.39  E(vib)   ...       0.18
freq.     471.30  E(vib)   ...       0.15
freq.     540.78  E(vib)   ...       0.12
freq.     573.75  E(vib)   ...       0.11
freq.     587.10  E(vib)   ...       0.10
freq.     615.95  E(vib)   ...       0.10
freq.     722.03  E(vib)   ...       0.07
freq.     737.70  E(vib)   ...       0.06
freq.     761.74  E(vib)   ...       0.06
freq.     773.88  E(vib)   ...       0.05
freq.     775.40  E(vib)   ...       0.05
freq.     840.54  E(vib)   ...       0.04
freq.     894.01  E(vib)   ...       0.03
freq.     904.79  E(vib)   ...       0.03
freq.     940.83  E(vib)   ...       0.03
freq.     995.63  E(vib)   ...       0.02
freq.    1031.75  E(vib)   ...       0.02
freq.    1058.03  E(vib)   ...       0.02
freq.    1092.19  E(vib)   ...       0.02
freq.    1107.64  E(vib)   ...       0.02
freq.    1147.05  E(vib)   ...       0.01
freq.    1174.92  E(vib)   ...       0.01
freq.    1242.46  E(vib)   ...       0.01
freq.    1267.91  E(vib)   ...       0.01
freq.    1318.38  E(vib)   ...       0.01
freq.    1366.84  E(vib)   ...       0.01
freq.    1380.83  E(vib)   ...       0.01
freq.    1407.26  E(vib)   ...       0.00
freq.    1444.13  E(vib)   ...       0.00
freq.    1472.71  E(vib)   ...       0.00
freq.    1477.55  E(vib)   ...       0.00
freq.    1489.22  E(vib)   ...       0.00
freq.    1519.38  E(vib)   ...       0.00
freq.    1588.63  E(vib)   ...       0.00
freq.    1612.35  E(vib)   ...       0.00
freq.    1654.65  E(vib)   ...       0.00
freq.    2997.99  E(vib)   ...       0.00
freq.    3053.25  E(vib)   ...       0.00
freq.    3092.85  E(vib)   ...       0.00
freq.    3154.93  E(vib)   ...       0.00
freq.    3160.13  E(vib)   ...       0.00
freq.    3170.38  E(vib)   ...       0.00
freq.    3182.52  E(vib)   ...       0.00
freq.    3231.33  E(vib)   ...       0.00
freq.    3671.73  E(vib)   ...       0.00

------------
INNER ENERGY
------------

The inner energy is: U= E(el) + E(ZPE) + E(vib) + E(rot) + E(trans)
    E(el)   - is the total energy from the electronic structure calculation
              = E(kin-el) + E(nuc-el) + E(el-el) + E(nuc-nuc)
    E(ZPE)  - the the zero temperature vibrational energy from the frequency calculation
    E(vib)  - the the finite temperature correction to E(ZPE) due to population
              of excited vibrational states
    E(rot)  - is the rotational thermal energy
    E(trans)- is the translational thermal energy

Summary of contributions to the inner energy U:
Electronic energy                ...   -403.06069312 Eh
Zero point energy                ...      0.15609927 Eh      97.95 kcal/mol
Thermal vibrational correction   ...      0.00531965 Eh       3.34 kcal/mol
Thermal rotational correction    ...      0.00141627 Eh       0.89 kcal/mol
Thermal translational correction ...      0.00141627 Eh       0.89 kcal/mol
-----------------------------------------------------------------------
Total thermal energy                   -402.89644165 Eh

Summary of corrections to the electronic energy:
(perhaps to be used in another calculation)
Total thermal correction                  0.00815220 Eh       5.12 kcal/mol
Non-thermal (ZPE) correction              0.15609927 Eh      97.95 kcal/mol
-----------------------------------------------------------------------
Total correction                          0.16425147 Eh     103.07 kcal/mol

--------
ENTHALPY
--------

The enthalpy is H = U + kB*T
                kB is Boltzmann's constant
Total thermal energy              ...   -402.89644165 Eh
Thermal Enthalpy correction       ...      0.00094421 Eh       0.59 kcal/mol
-----------------------------------------------------------------------
Total Enthalpy                    ...   -402.89549744 Eh

Note: Only C1 symmetry has been detected, increase convergence thresholds
      if your molecule has a higher symmetry. Symmetry factor of 1.0 is
      used for the rotational entropy correction.

Note: Rotational entropy computed according to Herzberg
Infrared and Raman Spectra, Chapter V,1, Van Nostrand Reinhold, 1945
Point Group:  C1, Symmetry Number:   1
Rotational constants in cm-1:     0.087125     0.042448     0.028695

Vibrational entropy computed according to the QRRHO of S. Grimme
Chem.Eur.J. 2012 18 9955 using a reference frequency of 100.0 cm-1

-------
ENTROPY
-------

The entropy contributions are T*S = T*(S(el)+S(vib)+S(rot)+S(trans))
     S(el)   - electronic entropy
     S(vib)  - vibrational entropy
     S(rot)  - rotational entropy
     S(trans)- translational entropy
The entropies will be listed as multiplied by the temperature to get
units of energy

Electronic entropy                ...      0.00000000 Eh      0.00 kcal/mol
Vibrational entropy               ...      0.00848387 Eh      5.32 kcal/mol
Rotational entropy                ...      0.01383088 Eh      8.68 kcal/mol
Translational entropy             ...      0.01925560 Eh     12.08 kcal/mol
-----------------------------------------------------------------------
Final entropy term                ...      0.04157034 Eh     26.09 kcal/mol

In case the symmetry of your molecule has not been determined correctly
or in case you have a reason to use a different symmetry number we print
out the resulting rotational entropy values for sn=1,12:

 non-linear molecules -----------------------------------
|  sn= 1 | S(rot)=       0.01383088 Eh      8.68 kcal/mol|
|  sn= 2 | S(rot)=       0.01317642 Eh      8.27 kcal/mol|
|  sn= 3 | S(rot)=       0.01279359 Eh      8.03 kcal/mol|
|  sn= 4 | S(rot)=       0.01252196 Eh      7.86 kcal/mol|
|  sn= 5 | S(rot)=       0.01231127 Eh      7.73 kcal/mol|
|  sn= 6 | S(rot)=       0.01213913 Eh      7.62 kcal/mol|
|  sn= 7 | S(rot)=       0.01199358 Eh      7.53 kcal/mol|
|  sn= 8 | S(rot)=       0.01186751 Eh      7.45 kcal/mol|
|  sn= 9 | S(rot)=       0.01175630 Eh      7.38 kcal/mol|

                             ****ORCA TERMINATED NORMALLY****
TOTAL RUN TIME: 0 days 0 hours 19 minutes 24 seconds 153 msec
