                         Program Version 6.0.1  -  RELEASE   -
|  1> ! pbe def2-sv(p) def2/J RI DEFGRID1 loosescf d4 GCP(DFT/SV(P)) printgap
|  2> %output
|  3>     printlevel normal
|  4> end
|  5> * xyz 0 1
|  6> C -3.3865262391 -0.5516070777 -0.0704216553
|  7> C -1.9061441717 -0.4637600713 -0.4231255422
|  8> H -1.7806163465 -0.6013427419 -1.5037993746
|  9> C -1.0864146971 -1.5416099992 0.3008820173
| 10> C 0.3963924865 -1.4319385074 -0.0342965732
| 11> C 0.9298628097 -0.0498018854 0.3586954673
| 12> H 0.748423874 0.0871677994 1.4306329717
| 13> C 0.138107252 1.0298585183 -0.3960537207
| 14> C -1.3309961791 0.8963739036 -0.0697575464
| 15> O -1.9728632038 1.7783833955 0.4410749264
| 16> C 2.4175429667 0.0601663281 0.1231247538
| 17> C 3.2664446938 0.0500780661 1.1388814669
| 18> C 2.8902700004 0.1669610607 -1.2952532751
| 19> H -3.7873819611 -1.5249457907 -0.3434288537
| 20> H -3.5263746912 -0.3999029742 0.9970675079
| 21> H -3.9442659784 0.2199026729 -0.5950531428
| 22> H -1.2282107877 -1.4292345911 1.3783742448
| 23> H -1.4618682359 -2.527343436 0.0173089629
| 24> H 0.9552281902 -2.2011604078 0.5027820853
| 25> H 0.5405660652 -1.5975606748 -1.1041089135
| 26> H 0.4842608852 2.0247830756 -0.1109182822
| 27> H 0.2697946584 0.9002326608 -1.4715777606
| 28> H 4.3317188415 0.1061094778 0.9912745755
| 29> H 2.9334740683 -0.0136616377 2.1610656565
| 30> H 2.4265772336 -0.5928400315 -1.9213607591
| 31> H 2.6379952107 1.1439240068 -1.7063805288
| 32> H 3.9690355055 0.0465876931 -1.3461449992
| 33> *
| 34>
| 35>                          ****END OF INPUT****

CARTESIAN COORDINATES (ANGSTROEM)
---------------------------------
  C     -3.386526   -0.551607   -0.070422
  C     -1.906144   -0.463760   -0.423126
  H     -1.780616   -0.601343   -1.503799
  C     -1.086415   -1.541610    0.300882
  C      0.396392   -1.431939   -0.034297
  C      0.929863   -0.049802    0.358695
  H      0.748424    0.087168    1.430633
  C      0.138107    1.029859   -0.396054
  C     -1.330996    0.896374   -0.069758
  O     -1.972863    1.778383    0.441075
  C      2.417543    0.060166    0.123125
  C      3.266445    0.050078    1.138881
  C      2.890270    0.166961   -1.295253
  H     -3.787382   -1.524946   -0.343429
  H     -3.526375   -0.399903    0.997068
  H     -3.944266    0.219903   -0.595053
  H     -1.228211   -1.429235    1.378374
  H     -1.461868   -2.527343    0.017309
  H      0.955228   -2.201160    0.502782
  H      0.540566   -1.597561   -1.104109
  H      0.484261    2.024783   -0.110918
  H      0.269795    0.900233   -1.471578
  H      4.331719    0.106109    0.991275
  H      2.933474   -0.013662    2.161066
  H      2.426577   -0.592840   -1.921361
  H      2.637995    1.143924   -1.706381
  H      3.969036    0.046588   -1.346145

 Total Charge           Charge          ....    0
 Multiplicity           Mult            ....    1
 Number of Electrons    NEL             ....   84
 Basis Dimension        Dim             ....  186

ORBITAL ENERGIES
----------------

  NO   OCC          E(Eh)            E(eV)
   0   2.0000     -18.741936      -509.9940
   1   2.0000      -9.969951      -271.2962
   2   2.0000      -9.909708      -269.6569
   3   2.0000      -9.904835      -269.5243
   4   2.0000      -9.902555      -269.4622
   5   2.0000      -9.898122      -269.3416
   6   2.0000      -9.895768      -269.2775
   7   2.0000      -9.894010      -269.2297
   8   2.0000      -9.887984      -269.0657
   9   2.0000      -9.877060      -268.7685
  10   2.0000      -9.874964      -268.7114
  11   2.0000      -0.941969       -25.6323
  12   2.0000      -0.775001       -21.0888
  13   2.0000      -0.730884       -19.8884
  14   2.0000      -0.685122       -18.6431
  15   2.0000      -0.662641       -18.0314
  16   2.0000      -0.622384       -16.9359
  17   2.0000      -0.603437       -16.4204
  18   2.0000      -0.547632       -14.9018
  19   2.0000      -0.536218       -14.5912
  20   2.0000      -0.487388       -13.2625
  21   2.0000      -0.461669       -12.5627
  22   2.0000      -0.435636       -11.8543
  23   2.0000      -0.426955       -11.6180
  24   2.0000      -0.408770       -11.1232
  25   2.0000      -0.400018       -10.8851
  26   2.0000      -0.394060       -10.7229
  27   2.0000      -0.386502       -10.5172
  28   2.0000      -0.373000       -10.1499
  29   2.0000      -0.365970        -9.9585
  30   2.0000      -0.355242        -9.6666
  31   2.0000      -0.340225        -9.2580
  32   2.0000      -0.333990        -9.0883
  33   2.0000      -0.330074        -8.9818
  34   2.0000      -0.320682        -8.7262
  35   2.0000      -0.314407        -8.5555
  36   2.0000      -0.303356        -8.2547
  37   2.0000      -0.296275        -8.0621
  38   2.0000      -0.286827        -7.8050
  39   2.0000      -0.279024        -7.5926
  40   2.0000      -0.223209        -6.0738
  41   2.0000      -0.193559        -5.2670
  42   0.0000      -0.051452        -1.4001
  43   0.0000      -0.015216        -0.4140
  44   0.0000       0.035112         0.9554
  45   0.0000       0.042315         1.1514
  46   0.0000       0.047830         1.3015

MULLIKEN ATOMIC CHARGES
-----------------------
   0 C :   -0.190439
   1 C :   -0.211470
   2 H :    0.082540
   3 C :   -0.105727
   4 C :   -0.111088
   5 C :   -0.194661
   6 H :    0.065692
   7 C :   -0.052222
   8 C :    0.004176
   9 O :   -0.147206
  10 C :   -0.000346
  11 C :   -0.231146
  12 C :   -0.233613
  13 H :    0.092084
  14 H :    0.100262
  15 H :    0.106537
  16 H :    0.080938
  17 H :    0.092076
  18 H :    0.091212
  19 H :    0.077914
  20 H :    0.090054
  21 H :    0.091467
  22 H :    0.081428
  23 H :    0.086232
  24 H :    0.111264
  25 H :    0.122895
  26 H :    0.101148
Sum of atomic charges:   -0.0000000

LOEWDIN ATOMIC CHARGES
----------------------
   0 C :   -0.326181
   1 C :   -0.178259
   2 H :    0.130223
   3 C :   -0.207000
   4 C :   -0.213065
   5 C :   -0.124693
   6 H :    0.123862
   7 C :   -0.232283
   8 C :    0.050993
   9 O :   -0.115143
  10 C :   -0.048630
  11 C :   -0.262438
  12 C :   -0.324827
  13 H :    0.117233
  14 H :    0.123651
  15 H :    0.124898
  16 H :    0.120154
  17 H :    0.121129
  18 H :    0.123837
  19 H :    0.114956
  20 H :    0.130111
  21 H :    0.131589
  22 H :    0.117313
  23 H :    0.117740
  24 H :    0.124542
  25 H :    0.132546
  26 H :    0.127742

  Mayer bond orders larger than 0.100000
B(  0-C ,  1-C ) :   1.1220 B(  0-C , 13-H ) :   0.9450 B(  0-C , 14-H ) :   0.9442
B(  0-C , 15-H ) :   0.9459 B(  1-C ,  2-H ) :   0.8683 B(  1-C ,  3-C ) :   1.0809
B(  1-C ,  8-C ) :   0.9302 B(  3-C ,  4-C ) :   1.1303 B(  3-C , 16-H ) :   0.9036
B(  3-C , 17-H ) :   0.9145 B(  4-C ,  5-C ) :   1.0730 B(  4-C , 18-H ) :   0.9106
B(  4-C , 19-H ) :   0.9001 B(  5-C ,  6-H ) :   0.8782 B(  5-C ,  7-C ) :   1.0597
B(  5-C , 10-C ) :   1.0060 B(  7-C ,  8-C ) :   1.0444 B(  7-C , 20-H ) :   0.8938
B(  7-C , 21-H ) :   0.8684 B(  8-C ,  9-O ) :   2.2220 B( 10-C , 11-C ) :   2.0381
B( 10-C , 12-C ) :   1.1109 B( 11-C , 22-H ) :   0.9032 B( 11-C , 23-H ) :   0.9100
B( 12-C , 24-H ) :   0.9299 B( 12-C , 25-H ) :   0.9220 B( 12-C , 26-H ) :   0.9340

Dispersion correction           -0.028169147
FINAL SINGLE POINT ENERGY      -464.832192349292

DIPOLE MOMENT
-------------

Method             : SCF
Type of density    : Electron Density
Multiplicity       :   1
Irrep              :   0
Energy             :  -464.9182654628468754 Eh
Relativity type    :
Basis              : AO
                                X                 Y                 Z
Electronic contribution:     -2.806898767       5.133144084       1.941977813
Nuclear contribution   :      3.318457575      -5.939697101      -2.455458540
                        -----------------------------------------
Total Dipole Moment    :      0.511558808      -0.806553017      -0.513480727
                        -----------------------------------------
Magnitude (a.u.)       :      1.084381224
Magnitude (Debye)      :      2.756278027

Rotational constants in cm-1:             0.073366             0.021899             0.019677
Rotational constants in MHz :          2199.467915           656.528217           589.906543

                             ****ORCA TERMINATED NORMALLY****
TOTAL RUN TIME: 0 days 0 hours 0 minutes 26 seconds 841 msec
