                         Program Version 6.0.1  -  RELEASE   -
|  1> ! r2scan-3c def2/J RI DEFGRID2 scfconv6 printgap
|  2> %output
|  3>     printlevel normal
|  4> end
|  5> * xyz 0 1
|  6> C -3.181769746 -0.0084832124 0.8418782971
|  7> C -2.4793599192 0.0124108855 -0.5172110811
|  8> C -0.9872533008 0.0072847091 -0.3407023231
|  9> C -0.2875834775 -1.1891799026 -0.2364484214
| 10> C 1.0773335038 -1.2041075476 -0.0323427929
| 11> C 1.7755514171 -0.0060474546 0.074952885
| 12> C 1.0873648216 1.1958965746 -0.0255306095
| 13> C -0.2804807568 1.1960805107 -0.2297848796
| 14> O 3.1228731628 -0.0567603178 0.2746562924
| 15> H -2.8991085732 -0.8986903479 1.3992276692
| 16> H -4.2619243867 -0.0062796008 0.7137859421
| 17> H -2.899064373 0.8639923841 1.4267105353
| 18> H -2.7843874635 0.9058701759 -1.0658761482
| 19> H -2.7861887527 -0.8627505895 -1.0935043633
| 20> H -0.8203397911 -2.12554302 -0.3199067961
| 21> H 1.6225720264 -2.1312853729 0.0459117438
| 22> H 1.6249946203 2.1322149139 0.0556036524
| 23> H -0.8037038677 2.1385645105 -0.3072131813
| 24> H 3.4766522818 0.8389857007 0.3289580375
| 25> *
| 26>
| 27>                          ****END OF INPUT****

CARTESIAN COORDINATES (ANGSTROEM)
---------------------------------
  C     -3.181770   -0.008483    0.841878
  C     -2.479360    0.012411   -0.517211
  C     -0.987253    0.007285   -0.340702
  C     -0.287583   -1.189180   -0.236448
  C      1.077334   -1.204108   -0.032343
  C      1.775551   -0.006047    0.074953
  C      1.087365    1.195897   -0.025531
  C     -0.280481    1.196081   -0.229785
  O      3.122873   -0.056760    0.274656
  H     -2.899109   -0.898690    1.399228
  H     -4.261924   -0.006280    0.713786
  H     -2.899064    0.863992    1.426711
  H     -2.784387    0.905870   -1.065876
  H     -2.786189   -0.862751   -1.093504
  H     -0.820340   -2.125543   -0.319907
  H      1.622572   -2.131285    0.045912
  H      1.624995    2.132215    0.055604
  H     -0.803704    2.138565   -0.307213
  H      3.476652    0.838986    0.328958

 Total Charge           Charge          ....    0
 Multiplicity           Mult            ....    1
 Number of Electrons    NEL             ....   66
 Basis Dimension        Dim             ....  226

ORBITAL ENERGIES
----------------

  NO   OCC          E(Eh)            E(eV)
   0   2.0000     -18.982973      -516.5529
   1   2.0000     -10.093044      -274.6457
   2   2.0000     -10.033597      -273.0281
   3   2.0000     -10.033025      -273.0125
   4   2.0000     -10.032189      -272.9897
   5   2.0000     -10.031604      -272.9738
   6   2.0000     -10.031282      -272.9651
   7   2.0000     -10.028210      -272.8815
   8   2.0000     -10.018910      -272.6284
   9   2.0000      -1.027557       -27.9612
  10   2.0000      -0.825524       -22.4636
  11   2.0000      -0.752085       -20.4653
  12   2.0000      -0.718161       -19.5422
  13   2.0000      -0.685745       -18.6601
  14   2.0000      -0.603534       -16.4230
  15   2.0000      -0.587161       -15.9775
  16   2.0000      -0.550589       -14.9823
  17   2.0000      -0.515721       -14.0335
  18   2.0000      -0.457863       -12.4591
  19   2.0000      -0.440230       -11.9793
  20   2.0000      -0.411104       -11.1867
  21   2.0000      -0.398848       -10.8532
  22   2.0000      -0.390827       -10.6349
  23   2.0000      -0.385070       -10.4783
  24   2.0000      -0.374980       -10.2037
  25   2.0000      -0.353490        -9.6189
  26   2.0000      -0.343995        -9.3606
  27   2.0000      -0.315883        -8.5956
  28   2.0000      -0.305631        -8.3166
  29   2.0000      -0.300733        -8.1834
  30   2.0000      -0.298630        -8.1261
  31   2.0000      -0.236900        -6.4464
  32   2.0000      -0.197942        -5.3863
  33   0.0000      -0.032157        -0.8750
  34   0.0000      -0.012632        -0.3437
  35   0.0000       0.058848         1.6013
  36   0.0000       0.075604         2.0573
  37   0.0000       0.097266         2.6467

MULLIKEN ATOMIC CHARGES
-----------------------
   0 C :   -0.460704
   1 C :   -0.315211
   2 C :    0.187557
   3 C :   -0.190916
   4 C :   -0.312689
   5 C :    0.431327
   6 C :   -0.344104
   7 C :   -0.209286
   8 O :   -0.414880
   9 H :    0.149559
  10 H :    0.145367
  11 H :    0.148539
  12 H :    0.144513
  13 H :    0.145666
  14 H :    0.148637
  15 H :    0.155290
  16 H :    0.135565
  17 H :    0.148077
  18 H :    0.307692
Sum of atomic charges:   -0.0000000

LOEWDIN ATOMIC CHARGES
----------------------
   0 C :   -0.408357
   1 C :   -0.289394
   2 C :   -0.114299
   3 C :   -0.148764
   4 C :   -0.140638
   5 C :    0.177569
   6 C :   -0.170389
   7 C :   -0.150723
   8 O :   -0.497544
   9 H :    0.153436
  10 H :    0.148041
  11 H :    0.153058
  12 H :    0.159890
  13 H :    0.160364
  14 H :    0.170154
  15 H :    0.179362
  16 H :    0.167904
  17 H :    0.169793
  18 H :    0.280539

  Mayer bond orders larger than 0.100000
B(  0-C ,  1-C ) :   0.9231 B(  0-C ,  9-H ) :   0.9794 B(  0-C , 10-H ) :   0.9719
B(  0-C , 11-H ) :   0.9795 B(  1-C ,  2-C ) :   0.7951 B(  1-C , 12-H ) :   0.9943
B(  1-C , 13-H ) :   0.9945 B(  2-C ,  3-C ) :   1.3981 B(  2-C ,  7-C ) :   1.4239
B(  3-C ,  4-C ) :   1.4227 B(  3-C , 14-H ) :   0.9420 B(  4-C ,  5-C ) :   1.4330
B(  4-C , 15-H ) :   0.9476 B(  5-C ,  6-C ) :   1.3527 B(  5-C ,  8-O ) :   0.9178
B(  6-C ,  7-C ) :   1.4410 B(  6-C , 16-H ) :   0.9323 B(  7-C , 17-H ) :   0.9335
B(  8-O , 18-H ) :   0.8860

Dispersion correction           -0.006102997
FINAL SINGLE POINT ENERGY      -386.000856536099

DIPOLE MOMENT
-------------

Method             : SCF
Type of density    : Electron Density
Multiplicity       :   1
Irrep              :   0
Energy             :  -386.0014464997954065 Eh
Relativity type    :
Basis              : AO
                                X                 Y                 Z
Electronic contribution:      9.718294963      -0.305861756      -1.101769332
Nuclear contribution   :     -9.833102961       0.801366953       1.114578015
                        -----------------------------------------
Total Dipole Moment    :     -0.114807999       0.495505197       0.012808683
                        -----------------------------------------
Magnitude (a.u.)       :      0.508793022
Magnitude (Debye)      :      1.293249085

Rotational constants in cm-1:             0.147981             0.032186             0.028484
Rotational constants in MHz :          4436.358059           964.917357           853.931636

                             ****ORCA TERMINATED NORMALLY****
TOTAL RUN TIME: 0 days 0 hours 0 minutes 28 seconds 594 msec
