                         Program Version 6.0.1  -  RELEASE   -
|  1> ! pbe def2-sv(p) def2/J RI DEFGRID1 loosescf d4 GCP(DFT/SV(P)) printgap
|  2> %output
|  3>     printlevel normal
|  4> end
|  5> * xyz 0 1
|  6> C -1.6248186348 -0.4983923924 -1.7034e-06
|  7> C -0.6178463184 0.6522303989 -6.2306e-05
|  8> C 0.7445012122 0.1578169703 0.0001662435
|  9> C 1.8599011148 -0.2747829321 -6.05458e-05
| 10> H -2.6406554549 -0.1089715441 -0.0004714391
| 11> H -1.490229456 -1.1204275598 0.8822464216
| 12> H -1.4896368947 -1.1210271099 -0.8817378111
| 13> H -0.766090928 1.2773248038 0.8857440591
| 14> H -0.7659373358 1.2771260109 -0.8860390555
| 15> H 2.8417775754 -0.6434234779 -0.0002389687
| 16> *
| 17>
| 18>                          ****END OF INPUT****

CARTESIAN COORDINATES (ANGSTROEM)
---------------------------------
  C     -1.624819   -0.498392   -0.000002
  C     -0.617846    0.652230   -0.000062
  C      0.744501    0.157817    0.000166
  C      1.859901   -0.274783   -0.000061
  H     -2.640655   -0.108972   -0.000471
  H     -1.490229   -1.120428    0.882246
  H     -1.489637   -1.121027   -0.881738
  H     -0.766091    1.277325    0.885744
  H     -0.765937    1.277126   -0.886039
  H      2.841778   -0.643423   -0.000239

 Total Charge           Charge          ....    0
 Multiplicity           Mult            ....    1
 Number of Electrons    NEL             ....   30
 Basis Dimension        Dim             ....   68

ORBITAL ENERGIES
----------------

  NO   OCC          E(Eh)            E(eV)
   0   2.0000      -9.913625      -269.7634
   1   2.0000      -9.887565      -269.0543
   2   2.0000      -9.886865      -269.0353
   3   2.0000      -9.874215      -268.6910
   4   2.0000      -0.723331       -19.6828
   5   2.0000      -0.644707       -17.5434
   6   2.0000      -0.574079       -15.6215
   7   2.0000      -0.471098       -12.8192
   8   2.0000      -0.421487       -11.4692
   9   2.0000      -0.416934       -11.3453
  10   2.0000      -0.359453        -9.7812
  11   2.0000      -0.329854        -8.9758
  12   2.0000      -0.324094        -8.8190
  13   2.0000      -0.233094        -6.3428
  14   2.0000      -0.232466        -6.3257
  15   0.0000       0.016364         0.4453
  16   0.0000       0.022921         0.6237
  17   0.0000       0.054108         1.4724
  18   0.0000       0.087384         2.3778
  19   0.0000       0.089780         2.4430

MULLIKEN ATOMIC CHARGES
-----------------------
   0 C :   -0.290860
   1 C :   -0.143575
   2 C :    0.399402
   3 C :   -0.591613
   4 H :    0.107515
   5 H :    0.117143
   6 H :    0.117150
   7 H :    0.116095
   8 H :    0.116116
   9 H :    0.052627
Sum of atomic charges:   -0.0000000

LOEWDIN ATOMIC CHARGES
----------------------
   0 C :   -0.329129
   1 C :   -0.232619
   2 C :   -0.031089
   3 C :   -0.205003
   4 H :    0.120691
   5 H :    0.125591
   6 H :    0.125593
   7 H :    0.141519
   8 H :    0.141524
   9 H :    0.142922

  Mayer bond orders larger than 0.100000
B(  0-C ,  1-C ) :   1.1319 B(  0-C ,  4-H ) :   0.9487 B(  0-C ,  5-H ) :   0.9567
B(  0-C ,  6-H ) :   0.9567 B(  1-C ,  2-C ) :   1.1165 B(  1-C ,  7-H ) :   0.8927
B(  1-C ,  8-H ) :   0.8927 B(  2-C ,  3-C ) :   2.2500 B(  2-C ,  9-H ) :  -0.1251
B(  3-C ,  9-H ) :   1.0871

Dispersion correction           -0.005477859
FINAL SINGLE POINT ENERGY      -155.584179812978

DIPOLE MOMENT
-------------

Method             : SCF
Type of density    : Electron Density
Multiplicity       :   1
Irrep              :   0
Energy             :  -155.6135638953569469 Eh
Relativity type    :
Basis              : AO
                                X                 Y                 Z
Electronic contribution:      3.757007850       0.485295166       0.000341418
Nuclear contribution   :     -4.044220230      -0.412229091      -0.000466075
                        -----------------------------------------
Total Dipole Moment    :     -0.287212381       0.073066075      -0.000124657
                        -----------------------------------------
Magnitude (a.u.)       :      0.296360622
Magnitude (Debye)      :      0.753288837

Rotational constants in cm-1:             0.901496             0.155401             0.139461
Rotational constants in MHz :         27026.180429          4658.792460          4180.925981

                             ****ORCA TERMINATED NORMALLY****
TOTAL RUN TIME: 0 days 0 hours 0 minutes 7 seconds 718 msec
