                         Program Version 6.0.1  -  RELEASE   -
|  1> ! pbe def2-sv(p) def2/J RI DEFGRID1 loosescf d4 GCP(DFT/SV(P)) printgap
|  2> %output
|  3>     printlevel normal
|  4> end
|  5> * xyz 0 1
|  6> C -2.4585504775 -0.8547566639 -0.0525542844
|  7> C -1.0903638402 -0.5566002338 0.5734590059
|  8> H -1.0852865066 -0.8955517074 1.6223400211
|  9> C -0.7568513284 0.9587759828 0.5611657088
| 10> H -1.6464114291 1.5059544331 0.2301781851
| 11> C 0.3856799566 1.2382735256 -0.4292910042
| 12> H 0.6786703949 2.2925064431 -0.3157167585
| 13> C 1.6119507797 0.3733189427 -0.070906451
| 14> H 2.2924680212 0.3432229149 -0.9370859827
| 15> C 1.1738942631 -1.0868667694 0.2413098098
| 16> H 1.2763336945 -1.247929024 1.3341251997
| 17> O -0.1408920891 -1.318091692 -0.1585905202
| 18> O 1.9901516978 -2.0069368305 -0.4043495989
| 19> O 2.2507309354 0.9688781331 1.0360946922
| 20> O -0.0684442936 0.9755674296 -1.7333180407
| 21> O -0.4420639655 1.439934609 1.838725391
| 22> O -2.7076031767 -0.121735742 -1.2179565443
| 23> H -3.2482883519 -0.5956440648 0.6568329443
| 24> H -2.4995148288 -1.9349216445 -0.2565850694
| 25> H 1.4914542292 -2.3490981526 -1.1562445682
| 26> H 3.0435635587 0.4636313311 1.2498516548
| 27> H 0.5893345399 1.2764335296 -2.3695459547
| 28> H 0.5060043388 1.3191681759 1.9963091314
| 29> H -1.880689203 -0.0472264942 -1.7144629031
| 30> *
| 31>
| 32>                          ****END OF INPUT****

CARTESIAN COORDINATES (ANGSTROEM)
---------------------------------
  C     -2.458550   -0.854757   -0.052554
  C     -1.090364   -0.556600    0.573459
  H     -1.085287   -0.895552    1.622340
  C     -0.756851    0.958776    0.561166
  H     -1.646411    1.505954    0.230178
  C      0.385680    1.238274   -0.429291
  H      0.678670    2.292506   -0.315717
  C      1.611951    0.373319   -0.070906
  H      2.292468    0.343223   -0.937086
  C      1.173894   -1.086867    0.241310
  H      1.276334   -1.247929    1.334125
  O     -0.140892   -1.318092   -0.158591
  O      1.990152   -2.006937   -0.404350
  O      2.250731    0.968878    1.036095
  O     -0.068444    0.975567   -1.733318
  O     -0.442064    1.439935    1.838725
  O     -2.707603   -0.121736   -1.217957
  H     -3.248288   -0.595644    0.656833
  H     -2.499515   -1.934922   -0.256585
  H      1.491454   -2.349098   -1.156245
  H      3.043564    0.463631    1.249852
  H      0.589335    1.276434   -2.369546
  H      0.506004    1.319168    1.996309
  H     -1.880689   -0.047226   -1.714463

 Total Charge           Charge          ....    0
 Multiplicity           Mult            ....    1
 Number of Electrons    NEL             ....   96
 Basis Dimension        Dim             ....  192

ORBITAL ENERGIES
----------------

  NO   OCC          E(Eh)            E(eV)
   0   2.0000     -18.785485      -511.1790
   1   2.0000     -18.779841      -511.0255
   2   2.0000     -18.778765      -510.9962
   3   2.0000     -18.763005      -510.5673
   4   2.0000     -18.740531      -509.9558
   5   2.0000     -18.731240      -509.7030
   6   2.0000      -9.995379      -271.9881
   7   2.0000      -9.957189      -270.9489
   8   2.0000      -9.954288      -270.8699
   9   2.0000      -9.942010      -270.5359
  10   2.0000      -9.940236      -270.4876
  11   2.0000      -9.925411      -270.0842
  12   2.0000      -0.996851       -27.1257
  13   2.0000      -0.961953       -26.1761
  14   2.0000      -0.953218       -25.9384
  15   2.0000      -0.928881       -25.2761
  16   2.0000      -0.918083       -24.9823
  17   2.0000      -0.908494       -24.7214
  18   2.0000      -0.703510       -19.1435
  19   2.0000      -0.691962       -18.8293
  20   2.0000      -0.622406       -16.9365
  21   2.0000      -0.598012       -16.2727
  22   2.0000      -0.565554       -15.3895
  23   2.0000      -0.534290       -14.5388
  24   2.0000      -0.511540       -13.9197
  25   2.0000      -0.497335       -13.5332
  26   2.0000      -0.477165       -12.9843
  27   2.0000      -0.469777       -12.7833
  28   2.0000      -0.454188       -12.3591
  29   2.0000      -0.440980       -11.9997
  30   2.0000      -0.421321       -11.4647
  31   2.0000      -0.397638       -10.8203
  32   2.0000      -0.389273       -10.5926
  33   2.0000      -0.374373       -10.1872
  34   2.0000      -0.358823        -9.7641
  35   2.0000      -0.353874        -9.6294
  36   2.0000      -0.343216        -9.3394
  37   2.0000      -0.326170        -8.8755
  38   2.0000      -0.319463        -8.6930
  39   2.0000      -0.313625        -8.5342
  40   2.0000      -0.276761        -7.5310
  41   2.0000      -0.267617        -7.2822
  42   2.0000      -0.264560        -7.1991
  43   2.0000      -0.253162        -6.8889
  44   2.0000      -0.245448        -6.6790
  45   2.0000      -0.220706        -6.0057
  46   2.0000      -0.207934        -5.6582
  47   2.0000      -0.200682        -5.4608
  48   0.0000      -0.000551        -0.0150
  49   0.0000       0.012257         0.3335
  50   0.0000       0.040410         1.0996
  51   0.0000       0.044637         1.2146
  52   0.0000       0.060696         1.6516

MULLIKEN ATOMIC CHARGES
-----------------------
   0 C :    0.089650
   1 C :   -0.011767
   2 H :    0.065696
   3 C :    0.018317
   4 H :    0.096188
   5 C :    0.034400
   6 H :    0.088648
   7 C :    0.011225
   8 H :    0.052501
   9 C :    0.214322
  10 H :    0.040180
  11 O :   -0.303089
  12 O :   -0.397703
  13 O :   -0.418384
  14 O :   -0.412899
  15 O :   -0.421007
  16 O :   -0.444136
  17 H :    0.089132
  18 H :    0.075897
  19 H :    0.304496
  20 H :    0.317056
  21 H :    0.308774
  22 H :    0.300076
  23 H :    0.302428
Sum of atomic charges:   -0.0000000

LOEWDIN ATOMIC CHARGES
----------------------
   0 C :   -0.119983
   1 C :   -0.078418
   2 H :    0.110144
   3 C :   -0.070014
   4 H :    0.124473
   5 C :   -0.072228
   6 H :    0.112144
   7 C :   -0.100187
   8 H :    0.101678
   9 C :    0.002314
  10 H :    0.085323
  11 O :   -0.147800
  12 O :   -0.311592
  13 O :   -0.307871
  14 O :   -0.304519
  15 O :   -0.317927
  16 O :   -0.339196
  17 H :    0.115319
  18 H :    0.100138
  19 H :    0.289092
  20 H :    0.296439
  21 H :    0.291483
  22 H :    0.270281
  23 H :    0.270907

  Mayer bond orders larger than 0.100000
B(  0-C ,  1-C ) :   1.0532 B(  0-C , 16-O ) :   1.0903 B(  0-C , 17-H ) :   0.9206
B(  0-C , 18-H ) :   0.9101 B(  1-C ,  2-H ) :   0.8780 B(  1-C ,  3-C ) :   0.9511
B(  1-C , 11-O ) :   0.9728 B(  3-C ,  4-H ) :   0.8904 B(  3-C ,  5-C ) :   1.0282
B(  3-C , 15-O ) :   1.0808 B(  5-C ,  6-H ) :   0.8987 B(  5-C ,  7-C ) :   0.9708
B(  5-C , 14-O ) :   1.0264 B(  7-C ,  8-H ) :   0.8862 B(  7-C ,  9-C ) :   0.9420
B(  7-C , 13-O ) :   1.0276 B(  9-C , 10-H ) :   0.8787 B(  9-C , 11-O ) :   1.0814
B(  9-C , 12-O ) :   1.1261 B( 12-O , 19-H ) :   0.8406 B( 13-O , 20-H ) :   0.8393
B( 14-O , 21-H ) :   0.8399 B( 15-O , 22-H ) :   0.8128 B( 16-O , 23-H ) :   0.8120

Dispersion correction           -0.025382509
FINAL SINGLE POINT ENERGY      -685.687386562157

DIPOLE MOMENT
-------------

Method             : SCF
Type of density    : Electron Density
Multiplicity       :   1
Irrep              :   0
Energy             :  -685.8206545646148697 Eh
Relativity type    :
Basis              : AO
                                X                 Y                 Z
Electronic contribution:      1.922643825      -0.265507548      -0.790990913
Nuclear contribution   :     -0.439472595       0.121549924       0.309501687
                        -----------------------------------------
Total Dipole Moment    :      1.483171230      -0.143957623      -0.481489226
                        -----------------------------------------
Magnitude (a.u.)       :      1.565998905
Magnitude (Debye)      :      3.980452884

Rotational constants in cm-1:             0.041685             0.027609             0.023380
Rotational constants in MHz :          1249.687901           827.682596           700.917886

                             ****ORCA TERMINATED NORMALLY****
TOTAL RUN TIME: 0 days 0 hours 0 minutes 8 seconds 588 msec
