                         Program Version 6.0.1  -  RELEASE   -
|  1> ! r2scan-3c def2/J RI DEFGRID2 scfconv6 printgap
|  2> %output
|  3>     printlevel normal
|  4> end
|  5> * xyz 0 1
|  6> C 3.730958595 -0.3011156023 -0.1494815118
|  7> C 2.2913853332 -0.1725977992 0.3398933958
|  8> H 2.3044524318 0.0747000939 1.4080096486
|  9> C 1.5217859489 -1.4764733327 0.1516895312
| 10> C 0.0792899533 -1.336844083 0.6289084638
| 11> C -0.6713937054 -0.233325584 -0.1248310393
| 12> H -0.6650591909 -0.4746103069 -1.1924880819
| 13> C 0.1061225018 1.0813215374 0.0642717795
| 14> H 0.1051572842 1.3273375472 1.1415648714
| 15> C 1.5572344668 0.9368125542 -0.4064079889
| 16> O -0.5291114523 2.1257976746 -0.6489806827
| 17> C -2.1438000314 -0.0787860941 0.3261658684
| 18> C -2.9874815239 0.5184315813 -0.8005660896
| 19> C -2.7947201216 -1.3897865387 0.7701145166
| 20> H 4.2728881942 0.6301313129 0.0003520972
| 21> H 4.2482716108 -1.0900998594 0.3916652007
| 22> H 3.7511094576 -0.5429119657 -1.2100507995
| 23> H 1.5299584846 -1.7479549753 -0.9065440912
| 24> H 2.012216582 -2.2798415395 0.7060245313
| 25> H -0.4255157315 -2.2905855189 0.4813143953
| 26> H 0.0736325565 -1.1101862893 1.6979971011
| 27> H 1.5536464047 0.7200966242 -1.4774453603
| 28> H 2.0762534842 1.88980689 -0.2599270981
| 29> H 0.0207249955 2.9142929401 -0.584832092
| 30> H -2.163696325 0.6112993636 1.1768377694
| 31> H -3.0554555865 -0.1845567692 -1.6287167062
| 32> H -2.5434459224 1.4393398891 -1.1607934789
| 33> H -3.9946205469 0.7297568131 -0.4472564713
| 34> H -2.333220699 -1.790226831 1.6684338729
| 35> H -2.7375626557 -2.1354522785 -0.0200143142
| 36> H -3.845881693 -1.2107746526 0.9871966201
| 37> *
| 38>
| 39>                          ****END OF INPUT****

CARTESIAN COORDINATES (ANGSTROEM)
---------------------------------
  C      3.730959   -0.301116   -0.149482
  C      2.291385   -0.172598    0.339893
  H      2.304452    0.074700    1.408010
  C      1.521786   -1.476473    0.151690
  C      0.079290   -1.336844    0.628908
  C     -0.671394   -0.233326   -0.124831
  H     -0.665059   -0.474610   -1.192488
  C      0.106123    1.081322    0.064272
  H      0.105157    1.327338    1.141565
  C      1.557234    0.936813   -0.406408
  O     -0.529111    2.125798   -0.648981
  C     -2.143800   -0.078786    0.326166
  C     -2.987482    0.518432   -0.800566
  C     -2.794720   -1.389787    0.770115
  H      4.272888    0.630131    0.000352
  H      4.248272   -1.090100    0.391665
  H      3.751109   -0.542912   -1.210051
  H      1.529958   -1.747955   -0.906544
  H      2.012217   -2.279842    0.706025
  H     -0.425516   -2.290586    0.481314
  H      0.073633   -1.110186    1.697997
  H      1.553646    0.720097   -1.477445
  H      2.076253    1.889807   -0.259927
  H      0.020725    2.914293   -0.584832
  H     -2.163696    0.611299    1.176838
  H     -3.055456   -0.184557   -1.628717
  H     -2.543446    1.439340   -1.160793
  H     -3.994621    0.729757   -0.447256
  H     -2.333221   -1.790227    1.668434
  H     -2.737563   -2.135452   -0.020014
  H     -3.845882   -1.210775    0.987197

 Total Charge           Charge          ....    0
 Multiplicity           Mult            ....    1
 Number of Electrons    NEL             ....   88
 Basis Dimension        Dim             ....  314

ORBITAL ENERGIES
----------------

  NO   OCC          E(Eh)            E(eV)
   0   2.0000     -18.945891      -515.5439
   1   2.0000     -10.077499      -274.2227
   2   2.0000     -10.033928      -273.0371
   3   2.0000     -10.027397      -272.8593
   4   2.0000     -10.024951      -272.7928
   5   2.0000     -10.023852      -272.7629
   6   2.0000     -10.022592      -272.7286
   7   2.0000     -10.022443      -272.7245
   8   2.0000     -10.017388      -272.5870
   9   2.0000     -10.008355      -272.3412
  10   2.0000      -9.995786      -271.9992
  11   2.0000      -0.986814       -26.8526
  12   2.0000      -0.806206       -21.9380
  13   2.0000      -0.764697       -20.8085
  14   2.0000      -0.711401       -19.3582
  15   2.0000      -0.698267       -19.0008
  16   2.0000      -0.644014       -17.5245
  17   2.0000      -0.636576       -17.3221
  18   2.0000      -0.579703       -15.7745
  19   2.0000      -0.559445       -15.2233
  20   2.0000      -0.528006       -14.3678
  21   2.0000      -0.518126       -14.0989
  22   2.0000      -0.475250       -12.9322
  23   2.0000      -0.446322       -12.1450
  24   2.0000      -0.425728       -11.5847
  25   2.0000      -0.412426       -11.2227
  26   2.0000      -0.408464       -11.1149
  27   2.0000      -0.393719       -10.7136
  28   2.0000      -0.376445       -10.2436
  29   2.0000      -0.364795        -9.9266
  30   2.0000      -0.358962        -9.7679
  31   2.0000      -0.357138        -9.7182
  32   2.0000      -0.342881        -9.3303
  33   2.0000      -0.339743        -9.2449
  34   2.0000      -0.330825        -9.0022
  35   2.0000      -0.312819        -8.5122
  36   2.0000      -0.310671        -8.4538
  37   2.0000      -0.307434        -8.3657
  38   2.0000      -0.294026        -8.0009
  39   2.0000      -0.282531        -7.6881
  40   2.0000      -0.279190        -7.5972
  41   2.0000      -0.270172        -7.3517
  42   2.0000      -0.254445        -6.9238
  43   2.0000      -0.231216        -6.2917
  44   0.0000       0.062472         1.6999
  45   0.0000       0.080974         2.2034
  46   0.0000       0.089621         2.4387
  47   0.0000       0.100305         2.7294
  48   0.0000       0.113692         3.0937

MULLIKEN ATOMIC CHARGES
-----------------------
   0 C :   -0.499748
   1 C :   -0.047391
   2 H :    0.161358
   3 C :   -0.338599
   4 C :   -0.365042
   5 C :   -0.069168
   6 H :    0.188998
   7 C :   -0.069748
   8 H :    0.158802
   9 C :   -0.374028
  10 O :   -0.414286
  11 C :    0.007079
  12 C :   -0.580546
  13 C :   -0.514339
  14 H :    0.146269
  15 H :    0.147898
  16 H :    0.151331
  17 H :    0.156740
  18 H :    0.147892
  19 H :    0.156986
  20 H :    0.163202
  21 H :    0.174460
  22 H :    0.129829
  23 H :    0.282708
  24 H :    0.162033
  25 H :    0.144056
  26 H :    0.191145
  27 H :    0.140373
  28 H :    0.151696
  29 H :    0.162772
  30 H :    0.147270
Sum of atomic charges:    0.0000000

LOEWDIN ATOMIC CHARGES
----------------------
   0 C :   -0.412257
   1 C :   -0.233858
   2 H :    0.158396
   3 C :   -0.292615
   4 C :   -0.286591
   5 C :   -0.181917
   6 H :    0.172880
   7 C :    0.068262
   8 H :    0.165927
   9 C :   -0.270385
  10 O :   -0.624783
  11 C :   -0.226351
  12 C :   -0.413621
  13 C :   -0.419141
  14 H :    0.152854
  15 H :    0.153533
  16 H :    0.154477
  17 H :    0.159550
  18 H :    0.158333
  19 H :    0.163466
  20 H :    0.160658
  21 H :    0.168662
  22 H :    0.157228
  23 H :    0.266603
  24 H :    0.162418
  25 H :    0.149675
  26 H :    0.180596
  27 H :    0.148354
  28 H :    0.151841
  29 H :    0.153423
  30 H :    0.154383

  Mayer bond orders larger than 0.100000
B(  0-C ,  1-C ) :   0.8870 B(  0-C , 14-H ) :   0.9769 B(  0-C , 15-H ) :   0.9756
B(  0-C , 16-H ) :   0.9958 B(  1-C ,  2-H ) :   0.9591 B(  1-C ,  3-C ) :   0.9168
B(  1-C ,  9-C ) :   0.9073 B(  3-C ,  4-C ) :   0.8919 B(  3-C , 17-H ) :   1.0149
B(  3-C , 18-H ) :   0.9467 B(  4-C ,  5-C ) :   0.8638 B(  4-C , 19-H ) :   0.9338
B(  4-C , 20-H ) :   1.0010 B(  5-C ,  6-H ) :   0.9808 B(  5-C ,  7-C ) :   0.9393
B(  5-C , 11-C ) :   0.8348 B(  7-C ,  8-H ) :   0.9980 B(  7-C ,  9-C ) :   0.8500
B(  7-C , 10-O ) :   0.8453 B(  9-C , 21-H ) :   1.0226 B(  9-C , 22-H ) :   0.9446
B( 10-O , 23-H ) :   0.9013 B( 11-C , 12-C ) :   0.8983 B( 11-C , 13-C ) :   0.8373
B( 11-C , 24-H ) :   0.9773 B( 12-C , 25-H ) :   0.9905 B( 12-C , 26-H ) :   0.9641
B( 12-C , 27-H ) :   0.9777 B( 13-C , 28-H ) :   0.9677 B( 13-C , 29-H ) :   0.9979
B( 13-C , 30-H ) :   0.9749

Dispersion correction           -0.010722915
FINAL SINGLE POINT ENERGY      -468.205451752080

DIPOLE MOMENT
-------------

Method             : SCF
Type of density    : Electron Density
Multiplicity       :   1
Irrep              :   0
Energy             :  -468.2100798347956925 Eh
Relativity type    :
Basis              : AO
                                X                 Y                 Z
Electronic contribution:      0.434289330       4.273859410      -0.428123765
Nuclear contribution   :      0.164633847      -4.209374186       0.714002945
                        -----------------------------------------
Total Dipole Moment    :      0.598923176       0.064485224       0.285879180
                        -----------------------------------------
Magnitude (a.u.)       :      0.666778990
Magnitude (Debye)      :      1.694817502

Rotational constants in cm-1:             0.062141             0.023420             0.018158
Rotational constants in MHz :          1862.934197           702.101034           544.372002

                             ****ORCA TERMINATED NORMALLY****
TOTAL RUN TIME: 0 days 0 hours 0 minutes 39 seconds 379 msec
