                         Program Version 6.0.1  -  RELEASE   -
|  1> ! r2scan-3c def2/J RI DEFGRID2 scfconv6 printgap
|  2> %output
|  3>     printlevel normal
|  4> end
|  5> * xyz 0 1
|  6> C -2.2826587712 1.2636312667 0.2151171834
|  7> C -1.4216833844 0.0642235313 -0.1785125663
|  8> C -2.2528071268 -1.2163441468 -0.1163307935
|  9> C -0.1765853323 -0.0392201869 0.7244088881
| 10> C 1.1861241501 -0.0212960448 0.0074923618
| 11> C 1.304695459 -1.1888666449 -0.9742222228
| 12> C 1.3933949681 1.3035840405 -0.7298572744
| 13> C 2.28138131 -0.1639715611 1.0705914394
| 14> H -2.634499083 1.1597496226 1.2397400109
| 15> H -1.7125376271 2.1866712344 0.1369279067
| 16> H -3.1505472185 1.3423380918 -0.4368688508
| 17> H -1.1104580951 0.2081674979 -1.2167606289
| 18> H -1.6578296492 -2.075882466 -0.4157810886
| 19> H -2.6173745805 -1.3837266338 0.8954115957
| 20> H -3.1122350972 -1.1476784703 -0.7806073779
| 21> H -0.1853262779 0.7875092942 1.4380076867
| 22> H -0.236924517 -0.9609076275 1.3072087584
| 23> H 1.1644343033 -2.1357447681 -0.4571035135
| 24> H 2.2907180778 -1.1946591127 -1.4344111239
| 25> H 0.5640789732 -1.1178501606 -1.7663041437
| 26> H 0.6477093079 1.4462649713 -1.5073583661
| 27> H 2.3756438807 1.3252592852 -1.1970810689
| 28> H 1.3271096683 2.1386200644 -0.0356580745
| 29> H 2.2288537219 0.6514642564 1.7888446512
| 30> H 3.2660491454 -0.1481582369 0.6084246177
| 31> H 2.1734488452 -1.1021751988 1.6106785173
| 32> *
| 33>
| 34>                          ****END OF INPUT****

CARTESIAN COORDINATES (ANGSTROEM)
---------------------------------
  C     -2.282659    1.263631    0.215117
  C     -1.421683    0.064224   -0.178513
  C     -2.252807   -1.216344   -0.116331
  C     -0.176585   -0.039220    0.724409
  C      1.186124   -0.021296    0.007492
  C      1.304695   -1.188867   -0.974222
  C      1.393395    1.303584   -0.729857
  C      2.281381   -0.163972    1.070591
  H     -2.634499    1.159750    1.239740
  H     -1.712538    2.186671    0.136928
  H     -3.150547    1.342338   -0.436869
  H     -1.110458    0.208167   -1.216761
  H     -1.657830   -2.075882   -0.415781
  H     -2.617375   -1.383727    0.895412
  H     -3.112235   -1.147678   -0.780607
  H     -0.185326    0.787509    1.438008
  H     -0.236925   -0.960908    1.307209
  H      1.164434   -2.135745   -0.457104
  H      2.290718   -1.194659   -1.434411
  H      0.564079   -1.117850   -1.766304
  H      0.647709    1.446265   -1.507358
  H      2.375644    1.325259   -1.197081
  H      1.327110    2.138620   -0.035658
  H      2.228854    0.651464    1.788845
  H      3.266049   -0.148158    0.608425
  H      2.173449   -1.102175    1.610679

 Total Charge           Charge          ....    0
 Multiplicity           Mult            ....    1
 Number of Electrons    NEL             ....   66
 Basis Dimension        Dim             ....  242

ORBITAL ENERGIES
----------------

  NO   OCC          E(Eh)            E(eV)
   0   2.0000     -10.039369      -273.1851
   1   2.0000     -10.029211      -272.9087
   2   2.0000     -10.016160      -272.5536
   3   2.0000     -10.012452      -272.4527
   4   2.0000     -10.012325      -272.4492
   5   2.0000     -10.012316      -272.4490
   6   2.0000     -10.012219      -272.4463
   7   2.0000     -10.011630      -272.4303
   8   2.0000      -0.796222       -21.6663
   9   2.0000      -0.751652       -20.4535
  10   2.0000      -0.652622       -17.7588
  11   2.0000      -0.649437       -17.6721
  12   2.0000      -0.644523       -17.5383
  13   2.0000      -0.640052       -17.4167
  14   2.0000      -0.533122       -14.5070
  15   2.0000      -0.496494       -13.5103
  16   2.0000      -0.436802       -11.8860
  17   2.0000      -0.422870       -11.5069
  18   2.0000      -0.411314       -11.1924
  19   2.0000      -0.394225       -10.7274
  20   2.0000      -0.387673       -10.5491
  21   2.0000      -0.385218       -10.4823
  22   2.0000      -0.353042        -9.6068
  23   2.0000      -0.352394        -9.5891
  24   2.0000      -0.349442        -9.5088
  25   2.0000      -0.330535        -8.9943
  26   2.0000      -0.323644        -8.8068
  27   2.0000      -0.316494        -8.6122
  28   2.0000      -0.304025        -8.2730
  29   2.0000      -0.296114        -8.0577
  30   2.0000      -0.281305        -7.6547
  31   2.0000      -0.274979        -7.4825
  32   2.0000      -0.268621        -7.3095
  33   0.0000       0.073353         1.9960
  34   0.0000       0.096471         2.6251
  35   0.0000       0.106129         2.8879
  36   0.0000       0.114823         3.1245
  37   0.0000       0.125597         3.4177

MULLIKEN ATOMIC CHARGES
-----------------------
   0 C :   -0.515033
   1 C :    0.039223
   2 C :   -0.519919
   3 C :   -0.380712
   4 C :    0.125164
   5 C :   -0.508281
   6 C :   -0.503772
   7 C :   -0.490303
   8 H :    0.152506
   9 H :    0.149601
  10 H :    0.144177
  11 H :    0.147464
  12 H :    0.151265
  13 H :    0.152718
  14 H :    0.144849
  15 H :    0.164525
  16 H :    0.163229
  17 H :    0.157640
  18 H :    0.151949
  19 H :    0.155066
  20 H :    0.152694
  21 H :    0.152337
  22 H :    0.155976
  23 H :    0.151667
  24 H :    0.154030
  25 H :    0.151939
Sum of atomic charges:   -0.0000000

LOEWDIN ATOMIC CHARGES
----------------------
   0 C :   -0.416931
   1 C :   -0.248549
   2 C :   -0.417133
   3 C :   -0.287625
   4 C :   -0.209342
   5 C :   -0.407434
   6 C :   -0.407279
   7 C :   -0.409200
   8 H :    0.153276
   9 H :    0.152603
  10 H :    0.151228
  11 H :    0.154445
  12 H :    0.153165
  13 H :    0.152978
  14 H :    0.151311
  15 H :    0.164833
  16 H :    0.165089
  17 H :    0.157070
  18 H :    0.156605
  19 H :    0.155399
  20 H :    0.154744
  21 H :    0.156569
  22 H :    0.157037
  23 H :    0.156100
  24 H :    0.155096
  25 H :    0.155946

  Mayer bond orders larger than 0.100000
B(  0-C ,  1-C ) :   0.8904 B(  0-C ,  8-H ) :   0.9887 B(  0-C ,  9-H ) :   0.9782
B(  0-C , 10-H ) :   0.9773 B(  1-C ,  2-C ) :   0.8935 B(  1-C ,  3-C ) :   0.7909
B(  1-C , 11-H ) :   0.9649 B(  2-C , 12-H ) :   0.9755 B(  2-C , 13-H ) :   0.9897
B(  2-C , 14-H ) :   0.9778 B(  3-C ,  4-C ) :   0.8750 B(  3-C , 15-H ) :   0.9944
B(  3-C , 16-H ) :   0.9903 B(  4-C ,  5-C ) :   0.9132 B(  4-C ,  6-C ) :   0.9260
B(  4-C ,  7-C ) :   0.9396 B(  5-C , 17-H ) :   0.9793 B(  5-C , 18-H ) :   0.9738
B(  5-C , 19-H ) :   0.9679 B(  6-C , 20-H ) :   0.9679 B(  6-C , 21-H ) :   0.9748
B(  6-C , 22-H ) :   0.9789 B(  7-C , 23-H ) :   0.9765 B(  7-C , 24-H ) :   0.9791
B(  7-C , 25-H ) :   0.9770

Dispersion correction           -0.008001525
FINAL SINGLE POINT ENERGY      -315.587604065867

DIPOLE MOMENT
-------------

Method             : SCF
Type of density    : Electron Density
Multiplicity       :   1
Irrep              :   0
Energy             :  -315.5924072186378453 Eh
Relativity type    :
Basis              : AO
                                X                 Y                 Z
Electronic contribution:      0.375427409       0.023268782       0.184910407
Nuclear contribution   :     -0.356207046      -0.019455931      -0.208919676
                        -----------------------------------------
Total Dipole Moment    :      0.019220363       0.003812851      -0.024009268
                        -----------------------------------------
Magnitude (a.u.)       :      0.030990404
Magnitude (Debye)      :      0.078771347

Rotational constants in cm-1:             0.097855             0.041140             0.036830
Rotational constants in MHz :          2933.628561          1233.343970          1104.130636

                             ****ORCA TERMINATED NORMALLY****
TOTAL RUN TIME: 0 days 0 hours 0 minutes 27 seconds 449 msec
