                         Program Version 6.0.1  -  RELEASE   -
|  1> ! r2scan-3c def2/J RI DEFGRID2 scfconv6 printgap
|  2> %output
|  3>     printlevel normal
|  4> end
|  5> * xyz 0 1
|  6> C -1.7222040056 -1.2630738669 -0.139401223
|  7> C -1.0953322743 -1.2631e-05 0.4160308556
|  8> C -1.722349194 1.2630073251 -0.1394031771
|  9> Br 0.8392375344 1.43087e-05 -0.018661601
| 10> H -1.2317648059 -2.1494072621 0.2578548981
| 11> H -2.7756331633 -1.2972137473 0.1352782297
| 12> H -1.6457837162 -1.2829967603 -1.2250465105
| 13> H -1.1248912045 -6.70758e-05 1.5078535805
| 14> H -1.2319094785 2.1493490299 0.2578614419
| 15> H -2.7757005575 1.2971288949 0.1354116434
| 16> H -1.6459784696 1.2830160467 -1.2250723841
| 17> *
| 18>
| 19>                          ****END OF INPUT****

CARTESIAN COORDINATES (ANGSTROEM)
---------------------------------
  C     -1.722204   -1.263074   -0.139401
  C     -1.095332   -0.000013    0.416031
  C     -1.722349    1.263007   -0.139403
  Br     0.839238    0.000014   -0.018662
  H     -1.231765   -2.149407    0.257855
  H     -2.775633   -1.297214    0.135278
  H     -1.645784   -1.282997   -1.225047
  H     -1.124891   -0.000067    1.507854
  H     -1.231909    2.149349    0.257861
  H     -2.775701    1.297129    0.135412
  H     -1.645978    1.283016   -1.225072

 Total Charge           Charge          ....    0
 Multiplicity           Mult            ....    1
 Number of Electrons    NEL             ....   60
 Basis Dimension        Dim             ....  128

ORBITAL ENERGIES
----------------

  NO   OCC          E(Eh)            E(eV)
   0   2.0000    -482.207956    -13121.5456
   1   2.0000     -62.279970     -1694.7241
   2   2.0000     -56.060346     -1525.4796
   3   2.0000     -56.057827     -1525.4110
   4   2.0000     -56.057684     -1525.4071
   5   2.0000     -10.101062      -274.8639
   6   2.0000     -10.037087      -273.1230
   7   2.0000     -10.037079      -273.1228
   8   2.0000      -8.611897      -234.3416
   9   2.0000      -6.418959      -174.6687
  10   2.0000      -6.405951      -174.3148
  11   2.0000      -6.405831      -174.3115
  12   2.0000      -2.516627       -68.4809
  13   2.0000      -2.513417       -68.3936
  14   2.0000      -2.513336       -68.3914
  15   2.0000      -2.503659       -68.1280
  16   2.0000      -2.503648       -68.1277
  17   2.0000      -0.800379       -21.7794
  18   2.0000      -0.700049       -19.0493
  19   2.0000      -0.672576       -18.3017
  20   2.0000      -0.555732       -15.1222
  21   2.0000      -0.447140       -12.1673
  22   2.0000      -0.424852       -11.5608
  23   2.0000      -0.399887       -10.8815
  24   2.0000      -0.372667       -10.1408
  25   2.0000      -0.338820        -9.2197
  26   2.0000      -0.335178        -9.1207
  27   2.0000      -0.317622        -8.6429
  28   2.0000      -0.248621        -6.7653
  29   2.0000      -0.248133        -6.7520
  30   0.0000      -0.025770        -0.7012
  31   0.0000       0.088599         2.4109
  32   0.0000       0.120407         3.2764
  33   0.0000       0.126123         3.4320
  34   0.0000       0.138649         3.7728

MULLIKEN ATOMIC CHARGES
-----------------------
   0 C :   -0.444571
   1 C :   -0.005799
   2 C :   -0.444579
   3 Br:   -0.198084
   4 H :    0.163450
   5 H :    0.142471
   6 H :    0.158333
   7 H :    0.164518
   8 H :    0.163449
   9 H :    0.142480
  10 H :    0.158332
Sum of atomic charges:    0.0000000

LOEWDIN ATOMIC CHARGES
----------------------
   0 C :   -0.433731
   1 C :   -0.319848
   2 C :   -0.433724
   3 Br:    0.067319
   4 H :    0.161391
   5 H :    0.158478
   6 H :    0.160892
   7 H :    0.158457
   8 H :    0.161392
   9 H :    0.158476
  10 H :    0.160898

  Mayer bond orders larger than 0.100000
B(  0-C ,  1-C ) :   0.9326 B(  0-C ,  4-H ) :   0.9659 B(  0-C ,  5-H ) :   0.9553
B(  0-C ,  6-H ) :   0.9749 B(  1-C ,  2-C ) :   0.9326 B(  1-C ,  3-Br) :   0.9498
B(  1-C ,  7-H ) :   0.9456 B(  2-C ,  8-H ) :   0.9659 B(  2-C ,  9-H ) :   0.9553
B(  2-C , 10-H ) :   0.9749

Dispersion correction           -0.002420631
FINAL SINGLE POINT ENERGY     -2692.637027129203

DIPOLE MOMENT
-------------

Method             : SCF
Type of density    : Electron Density
Multiplicity       :   1
Irrep              :   0
Energy             : -2692.6401323893269364 Eh
Relativity type    :
Basis              : AO
                                X                 Y                 Z
Electronic contribution:     18.496559608       0.000308548       0.111200966
Nuclear contribution   :    -19.455517385      -0.000311932       0.027051020
                        -----------------------------------------
Total Dipole Moment    :     -0.958957776      -0.000003383       0.138251986
                        -----------------------------------------
Magnitude (a.u.)       :      0.968872349
Magnitude (Debye)      :      2.462677799

Rotational constants in cm-1:             0.270121             0.096148             0.076068
Rotational constants in MHz :          8098.014016          2882.448618          2280.449141

                             ****ORCA TERMINATED NORMALLY****
TOTAL RUN TIME: 0 days 0 hours 0 minutes 17 seconds 912 msec
