                         Program Version 6.0.1  -  RELEASE   -
|  1> ! r2scan-3c def2/J RI DEFGRID2 scfconv6 printgap
|  2> %output
|  3>     printlevel normal
|  4> end
|  5> * xyz 0 1
|  6> C 1.279013257 1.2130365671 -0.2449756307
|  7> C 0.4818745164 0.097039048 0.4389596526
|  8> C 0.9108266577 -1.2652714244 -0.0959404918
|  9> C -0.985928306 0.3757117967 0.2796939927
| 10> C -1.8832236399 -0.3931983343 -0.3070812351
| 11> H 1.0052585196 2.1857502951 0.1577766457
| 12> H 1.077708985 1.2145386165 -1.314252748
| 13> H 2.3461068965 1.0655323175 -0.0941741186
| 14> H 0.705522335 0.1333580901 1.5138963767
| 15> H 0.3639556618 -2.0635082804 0.4000809885
| 16> H 0.7321175591 -1.3285360417 -1.1668240114
| 17> H 1.9733704077 -1.4162825745 0.0823694844
| 18> H -1.2946650096 1.3276383964 0.6960125734
| 19> H -2.91655602 -0.0964148184 -0.3764034441
| 20> H -1.6399847377 -1.3476165606 -0.7404826112
| 21> *
| 22>
| 23>                          ****END OF INPUT****

CARTESIAN COORDINATES (ANGSTROEM)
---------------------------------
  C      1.279013    1.213037   -0.244976
  C      0.481875    0.097039    0.438960
  C      0.910827   -1.265271   -0.095940
  C     -0.985928    0.375712    0.279694
  C     -1.883224   -0.393198   -0.307081
  H      1.005259    2.185750    0.157777
  H      1.077709    1.214539   -1.314253
  H      2.346107    1.065532   -0.094174
  H      0.705522    0.133358    1.513896
  H      0.363956   -2.063508    0.400081
  H      0.732118   -1.328536   -1.166824
  H      1.973370   -1.416283    0.082369
  H     -1.294665    1.327638    0.696013
  H     -2.916556   -0.096415   -0.376403
  H     -1.639985   -1.347617   -0.740483

 Total Charge           Charge          ....    0
 Multiplicity           Mult            ....    1
 Number of Electrons    NEL             ....   40
 Basis Dimension        Dim             ....  145

ORBITAL ENERGIES
----------------

  NO   OCC          E(Eh)            E(eV)
   0   2.0000     -10.040745      -273.2226
   1   2.0000     -10.030919      -272.9552
   2   2.0000     -10.019788      -272.6523
   3   2.0000     -10.016944      -272.5749
   4   2.0000     -10.015814      -272.5442
   5   2.0000      -0.783936       -21.3320
   6   2.0000      -0.703731       -19.1495
   7   2.0000      -0.652996       -17.7689
   8   2.0000      -0.582357       -15.8467
   9   2.0000      -0.499834       -13.6012
  10   2.0000      -0.449044       -12.2191
  11   2.0000      -0.415641       -11.3102
  12   2.0000      -0.407598       -11.0913
  13   2.0000      -0.365945        -9.9579
  14   2.0000      -0.351054        -9.5527
  15   2.0000      -0.347302        -9.4506
  16   2.0000      -0.315945        -8.5973
  17   2.0000      -0.302193        -8.2231
  18   2.0000      -0.294520        -8.0143
  19   2.0000      -0.236253        -6.4288
  20   0.0000      -0.009243        -0.2515
  21   0.0000       0.090945         2.4747
  22   0.0000       0.121999         3.3198
  23   0.0000       0.133839         3.6420
  24   0.0000       0.139438         3.7943

MULLIKEN ATOMIC CHARGES
-----------------------
   0 C :   -0.459495
   1 C :    0.022204
   2 C :   -0.541803
   3 C :   -0.167276
   4 C :   -0.322086
   5 H :    0.145075
   6 H :    0.152605
   7 H :    0.142263
   8 H :    0.145306
   9 H :    0.157525
  10 H :    0.156170
  11 H :    0.145672
  12 H :    0.145375
  13 H :    0.137844
  14 H :    0.140620
Sum of atomic charges:   -0.0000000

LOEWDIN ATOMIC CHARGES
----------------------
   0 C :   -0.406534
   1 C :   -0.239866
   2 C :   -0.416644
   3 C :   -0.188348
   4 C :   -0.318249
   5 H :    0.153420
   6 H :    0.157157
   7 H :    0.152399
   8 H :    0.163422
   9 H :    0.156911
  10 H :    0.156077
  11 H :    0.155061
  12 H :    0.161836
  13 H :    0.156578
  14 H :    0.156781

  Mayer bond orders larger than 0.100000
B(  0-C ,  1-C ) :   0.8949 B(  0-C ,  5-H ) :   0.9752 B(  0-C ,  6-H ) :   0.9788
B(  0-C ,  7-H ) :   0.9707 B(  1-C ,  2-C ) :   0.8968 B(  1-C ,  3-C ) :   0.9564
B(  1-C ,  8-H ) :   0.9578 B(  2-C ,  9-H ) :   0.9734 B(  2-C , 10-H ) :   0.9827
B(  2-C , 11-H ) :   0.9732 B(  3-C ,  4-C ) :   1.9583 B(  3-C , 12-H ) :   0.9321
B(  4-C , 13-H ) :   0.9609 B(  4-C , 14-H ) :   0.9658

Dispersion correction           -0.003472043
FINAL SINGLE POINT ENERGY      -196.459650209056

DIPOLE MOMENT
-------------

Method             : SCF
Type of density    : Electron Density
Multiplicity       :   1
Irrep              :   0
Energy             :  -196.4622746779963904 Eh
Relativity type    :
Basis              : AO
                                X                 Y                 Z
Electronic contribution:     -2.038421519       0.350458513       0.856047773
Nuclear contribution   :      2.207342458      -0.305410121      -0.789934091
                        -----------------------------------------
Total Dipole Moment    :      0.168920939       0.045048392       0.066113682
                        -----------------------------------------
Magnitude (a.u.)       :      0.186908159
Magnitude (Debye)      :      0.475082786

Rotational constants in cm-1:             0.244156             0.132641             0.097794
Rotational constants in MHz :          7319.621153          3976.467177          2931.780846

                             ****ORCA TERMINATED NORMALLY****
TOTAL RUN TIME: 0 days 0 hours 0 minutes 21 seconds 307 msec
