                         Program Version 6.0.0  -   RELEASE  -
|  1> ! r2SCAN-3c DEF2-TZVP FREQ
|  2> * xyzfile 0 1 censo.xyz
|  3>
|  4>                          ****END OF INPUT****

CARTESIAN COORDINATES (ANGSTROEM)
---------------------------------
  C     -0.670059    1.265625    0.000297
  C      0.670206    1.265571    0.000183
  C      1.425166   -0.000073   -0.000023
  O      2.658477   -0.000125   -0.000201
  C      0.670104   -1.265655    0.000290
  C     -0.670163   -1.265599    0.000401
  C     -1.425123    0.000044   -0.000769
  O     -2.658436    0.000092    0.000014
  H     -1.252779    2.181627    0.000469
  H      1.252996    2.181527   -0.000083
  H      1.252820   -2.181659    0.000108
  H     -1.252957   -2.181556    0.000652

 Total Charge           Charge          ....    0
 Multiplicity           Mult            ....    1
 Number of Electrons    NEL             ....   56
 Basis Dimension        Dim             ....  272

ORBITAL ENERGIES
----------------

  NO   OCC          E(Eh)            E(eV)
   0   2.0000     -18.968324      -516.1543
   1   2.0000     -18.968320      -516.1542
   2   2.0000     -10.147171      -276.1186
   3   2.0000     -10.147164      -276.1184
   4   2.0000     -10.082553      -274.3602
   5   2.0000     -10.082538      -274.3598
   6   2.0000     -10.081860      -274.3414
   7   2.0000     -10.081858      -274.3413
   8   2.0000      -1.024839       -27.8873
   9   2.0000      -1.022460       -27.8226
  10   2.0000      -0.836383       -22.7591
  11   2.0000      -0.768685       -20.9170
  12   2.0000      -0.683698       -18.6044
  13   2.0000      -0.616285       -16.7700
  14   2.0000      -0.583164       -15.8687
  15   2.0000      -0.487458       -13.2644
  16   2.0000      -0.481385       -13.0992
  17   2.0000      -0.460099       -12.5199
  18   2.0000      -0.440309       -11.9814
  19   2.0000      -0.424438       -11.5496
  20   2.0000      -0.411021       -11.1844
  21   2.0000      -0.390462       -10.6250
  22   2.0000      -0.389373       -10.5954
  23   2.0000      -0.374343       -10.1864
  24   2.0000      -0.295458        -8.0398
  25   2.0000      -0.293326        -7.9818
  26   2.0000      -0.250255        -6.8098
  27   2.0000      -0.244988        -6.6665
  28   0.0000      -0.167221        -4.5503
  29   0.0000      -0.066820        -1.8183
  30   0.0000      -0.029809        -0.8111
  31   0.0000       0.052209         1.4207
  32   0.0000       0.075124         2.0442

MULLIKEN ATOMIC CHARGES
-----------------------
   0 C :   -0.151731
   1 C :   -0.151715
   2 C :    0.330242
   3 O :   -0.305715
   4 C :   -0.151733
   5 C :   -0.151717
   6 C :    0.330240
   7 O :   -0.305718
   8 H :    0.139461
   9 H :    0.139462
  10 H :    0.139459
  11 H :    0.139464
Sum of atomic charges:    0.0000000

LOEWDIN ATOMIC CHARGES
----------------------
   0 C :   -0.077038
   1 C :   -0.077037
   2 C :   -0.302916
   3 O :    0.144592
   4 C :   -0.077037
   5 C :   -0.077037
   6 C :   -0.302915
   7 O :    0.144589
   8 H :    0.156200
   9 H :    0.156200
  10 H :    0.156200
  11 H :    0.156200

  Mayer bond orders larger than 0.100000
B(  0-C ,  1-C ) :   1.6547 B(  0-C ,  6-C ) :   1.0416 B(  0-C ,  8-H ) :   0.9539
B(  1-C ,  2-C ) :   1.0416 B(  1-C ,  9-H ) :   0.9539 B(  2-C ,  3-O ) :   1.8646
B(  2-C ,  4-C ) :   1.0416 B(  4-C ,  5-C ) :   1.6547 B(  4-C , 10-H ) :   0.9539
B(  5-C ,  6-C ) :   1.0416 B(  5-C , 11-H ) :   0.9539 B(  6-C ,  7-O ) :   1.8646

Dispersion correction           -0.003751884
FINAL SINGLE POINT ENERGY      -381.405987989387

DIPOLE MOMENT
-------------

Method             : SCF
Type of density    : Electron Density
Multiplicity       :   1
Irrep              :   0
Energy             :  -381.4053134670837153 Eh
Relativity type    :
Basis              : AO
                                X                 Y                 Z
Electronic contribution:      0.000008903       0.000003490      -0.001170882
Nuclear contribution   :     -0.000004477      -0.000000379       0.000977829
                        -----------------------------------------
Total Dipole Moment    :      0.000004426       0.000003111      -0.000193053
                        -----------------------------------------
Magnitude (a.u.)       :      0.000193129
Magnitude (Debye)      :      0.000490895

VIBRATIONAL FREQUENCIES
-----------------------

Scaling factor for frequencies =  1.000000000  (already applied!)

     0:       0.00 cm**-1
     1:       0.00 cm**-1
     2:       0.00 cm**-1
     3:       0.00 cm**-1
     4:       0.00 cm**-1
     5:       0.00 cm**-1
     6:     113.99 cm**-1
     7:     233.50 cm**-1
     8:     324.78 cm**-1
     9:     423.22 cm**-1
    10:     458.31 cm**-1
    11:     468.20 cm**-1
    12:     515.83 cm**-1
    13:     608.35 cm**-1
    14:     753.66 cm**-1
    15:     761.86 cm**-1
    16:     781.16 cm**-1
    17:     819.22 cm**-1
    18:     908.80 cm**-1
    19:     958.46 cm**-1
    20:    1010.33 cm**-1
    21:    1017.21 cm**-1
    22:    1088.23 cm**-1
    23:    1159.46 cm**-1
    24:    1239.07 cm**-1
    25:    1322.25 cm**-1
    26:    1380.77 cm**-1
    27:    1405.95 cm**-1
    28:    1622.54 cm**-1
    29:    1624.71 cm**-1
    30:    1653.86 cm**-1
    31:    1679.71 cm**-1
    32:    3170.04 cm**-1
    33:    3170.65 cm**-1
    34:    3185.57 cm**-1
    35:    3188.58 cm**-1

IR SPECTRUM
-----------

 Mode   freq       eps      Int      T**2         TX        TY        TZ
       cm**-1   L/(mol*cm) km/mol    a.u.
----------------------------------------------------------------------------
  6:    113.99   0.002799   14.15  0.007664  (-0.000073 -0.000004 -0.087542)
  7:    233.50   0.000000    0.00  0.000000  ( 0.000092 -0.000000  0.000059)
  8:    324.78   0.000000    0.00  0.000000  ( 0.000008 -0.000039  0.000003)
  9:    423.22   0.004471   22.59  0.003296  ( 0.000011 -0.057415  0.000002)
 10:    458.31   0.000000    0.00  0.000000  (-0.000000 -0.000000 -0.000012)
 11:    468.20   0.000000    0.00  0.000000  (-0.000002  0.000001  0.000000)
 12:    515.83   0.001106    5.59  0.000669  ( 0.000362  0.000001  0.025866)
 13:    608.35   0.000000    0.00  0.000000  (-0.000001  0.000000  0.000000)
 14:    753.66   0.000000    0.00  0.000000  (-0.000003  0.000016 -0.000002)
 15:    761.86   0.000273    1.38  0.000112  ( 0.010578  0.000000  0.000022)
 16:    781.16   0.000000    0.00  0.000000  (-0.000000 -0.000000 -0.000036)
 17:    819.22   0.000000    0.00  0.000000  ( 0.000075 -0.000000  0.000088)
 18:    908.80   0.014462   73.08  0.004966  ( 0.000250  0.000003  0.070469)
 19:    958.46   0.003954   19.98  0.001287  ( 0.035878 -0.000002 -0.000039)
 20:   1010.33   0.000000    0.00  0.000000  (-0.000006  0.000014 -0.000003)
 21:   1017.21   0.000000    0.00  0.000000  ( 0.000169  0.000000  0.000004)
 22:   1088.23   0.007768   39.26  0.002228  (-0.000011 -0.047197  0.000002)
 23:   1159.46   0.000000    0.00  0.000000  (-0.000000  0.000000  0.000013)
 24:   1239.07   0.000000    0.00  0.000000  ( 0.000002  0.000001 -0.000000)
 25:   1322.25   0.015505   78.36  0.003659  (-0.000019 -0.060493  0.000002)
 26:   1380.77   0.000699    3.53  0.000158  ( 0.012565 -0.000000  0.000009)
 27:   1405.95   0.000000    0.00  0.000000  ( 0.000002  0.000000  0.000000)
 28:   1622.54   0.003450   17.43  0.000663  (-0.000001 -0.025757  0.000001)
 29:   1624.71   0.000000    0.00  0.000000  (-0.000016  0.000013 -0.000026)
 30:   1653.86   0.069806  352.77  0.013172  (-0.114768  0.000004 -0.000012)
 31:   1679.71   0.000000    0.00  0.000000  ( 0.000004 -0.000001 -0.000027)
 32:   3170.04   0.000000    0.00  0.000000  (-0.000031 -0.000003 -0.000000)
 33:   3170.65   0.000445    2.25  0.000044  (-0.006619  0.000002 -0.000006)
 34:   3185.57   0.000777    3.93  0.000076  ( 0.000001  0.008726 -0.000000)
 35:   3188.58   0.000000    0.00  0.000000  (-0.000002 -0.000008 -0.000011)

--------------------------
THERMOCHEMISTRY AT 298.15K
--------------------------

Temperature         ...   298.15 K
Pressure            ...     1.00 atm
Total Mass          ...   108.10 AMU
Quasi RRHO          ...     True
Cut-Off Frequency   ...     1.00 cm^-1

Throughout the following assumptions are being made:
  (1) The electronic state is orbitally nondegenerate
  (2) There are no thermally accessible electronically excited states
  (3) Hindered rotations indicated by low frequency modes are not
      treated as such but are treated as vibrations and this may
      cause some error
  (4) All equations used are the standard statistical mechanics
      equations for an ideal gas
  (5) All vibrations are strictly harmonic

freq.     113.99  E(vib)   ...       0.44
freq.     233.50  E(vib)   ...       0.32
freq.     324.78  E(vib)   ...       0.24
freq.     423.22  E(vib)   ...       0.18
freq.     458.31  E(vib)   ...       0.16
freq.     468.20  E(vib)   ...       0.16
freq.     515.83  E(vib)   ...       0.13
freq.     608.35  E(vib)   ...       0.10
freq.     753.66  E(vib)   ...       0.06
freq.     761.86  E(vib)   ...       0.06
freq.     781.16  E(vib)   ...       0.05
freq.     819.22  E(vib)   ...       0.05
freq.     908.80  E(vib)   ...       0.03
freq.     958.46  E(vib)   ...       0.03
freq.    1010.33  E(vib)   ...       0.02
freq.    1017.21  E(vib)   ...       0.02
freq.    1088.23  E(vib)   ...       0.02
freq.    1159.46  E(vib)   ...       0.01
freq.    1239.07  E(vib)   ...       0.01
freq.    1322.25  E(vib)   ...       0.01
freq.    1380.77  E(vib)   ...       0.01
freq.    1405.95  E(vib)   ...       0.00
freq.    1622.54  E(vib)   ...       0.00
freq.    1624.71  E(vib)   ...       0.00
freq.    1653.86  E(vib)   ...       0.00
freq.    1679.71  E(vib)   ...       0.00
freq.    3170.04  E(vib)   ...       0.00
freq.    3170.65  E(vib)   ...       0.00
freq.    3185.57  E(vib)   ...       0.00
freq.    3188.58  E(vib)   ...       0.00

------------
INNER ENERGY
------------

The inner energy is: U= E(el) + E(ZPE) + E(vib) + E(rot) + E(trans)
    E(el)   - is the total energy from the electronic structure calculation
              = E(kin-el) + E(nuc-el) + E(el-el) + E(nuc-nuc)
    E(ZPE)  - the the zero temperature vibrational energy from the frequency calculation
    E(vib)  - the the finite temperature correction to E(ZPE) due to population
              of excited vibrational states
    E(rot)  - is the rotational thermal energy
    E(trans)- is the translational thermal energy

Summary of contributions to the inner energy U:
Electronic energy                ...   -381.40598799 Eh
Zero point energy                ...      0.08440215 Eh      52.96 kcal/mol
Thermal vibrational correction   ...      0.00337144 Eh       2.12 kcal/mol
Thermal rotational correction    ...      0.00141627 Eh       0.89 kcal/mol
Thermal translational correction ...      0.00141627 Eh       0.89 kcal/mol
-----------------------------------------------------------------------
Total thermal energy                   -381.31538186 Eh

Summary of corrections to the electronic energy:
(perhaps to be used in another calculation)
Total thermal correction                  0.00620398 Eh       3.89 kcal/mol
Non-thermal (ZPE) correction              0.08440215 Eh      52.96 kcal/mol
-----------------------------------------------------------------------
Total correction                          0.09060613 Eh      56.86 kcal/mol

--------
ENTHALPY
--------

The enthalpy is H = U + kB*T
                kB is Boltzmann's constant
Total thermal energy              ...   -381.31538186 Eh
Thermal Enthalpy correction       ...      0.00094421 Eh       0.59 kcal/mol
-----------------------------------------------------------------------
Total Enthalpy                    ...   -381.31443765 Eh

Note: Rotational entropy computed according to Herzberg
Infrared and Raman Spectra, Chapter V,1, Van Nostrand Reinhold, 1945
Point Group:  Cs, Symmetry Number:   1
Rotational constants in cm-1:     0.175335     0.055666     0.042252

Vibrational entropy computed according to the QRRHO of S. Grimme
Chem.Eur.J. 2012 18 9955 using a reference frequency of 100.0 cm-1

-------
ENTROPY
-------

The entropy contributions are T*S = T*(S(el)+S(vib)+S(rot)+S(trans))
     S(el)   - electronic entropy
     S(vib)  - vibrational entropy
     S(rot)  - rotational entropy
     S(trans)- translational entropy
The entropies will be listed as multiplied by the temperature to get
units of energy

Electronic entropy                ...      0.00000000 Eh      0.00 kcal/mol
Vibrational entropy               ...      0.00531684 Eh      3.34 kcal/mol
Rotational entropy                ...      0.01319007 Eh      8.28 kcal/mol
Translational entropy             ...      0.01898150 Eh     11.91 kcal/mol
-----------------------------------------------------------------------
Final entropy term                ...      0.03748841 Eh     23.52 kcal/mol

In case the symmetry of your molecule has not been determined correctly
or in case you have a reason to use a different symmetry number we print
out the resulting rotational entropy values for sn=1,12:

 non-linear molecules -----------------------------------
|  sn= 1 | S(rot)=       0.01319007 Eh      8.28 kcal/mol|
|  sn= 2 | S(rot)=       0.01253562 Eh      7.87 kcal/mol|
|  sn= 3 | S(rot)=       0.01215279 Eh      7.63 kcal/mol|
|  sn= 4 | S(rot)=       0.01188116 Eh      7.46 kcal/mol|
|  sn= 5 | S(rot)=       0.01167047 Eh      7.32 kcal/mol|
|  sn= 6 | S(rot)=       0.01149833 Eh      7.22 kcal/mol|
|  sn= 7 | S(rot)=       0.01135278 Eh      7.12 kcal/mol|
|  sn= 8 | S(rot)=       0.01122671 Eh      7.04 kcal/mol|
|  sn= 9 | S(rot)=       0.01111550 Eh      6.98 kcal/mol|
|  sn=10 | S(rot)=       0.01101602 Eh      6.91 kcal/mol|
|  sn=11 | S(rot)=       0.01092603 Eh      6.86 kcal/mol|
|  sn=12 | S(rot)=       0.01084387 Eh      6.80 kcal/mol|
 linear molecules ---------------------------------------
|  Dinfh | S(rot)=       0.00831330 Eh      5.22 kcal/mol|
|  Cinfv | S(rot)=       0.00896776 Eh      5.63 kcal/mol|
 --------------------------------------------------------

-------------------
GIBBS FREE ENERGY
-------------------

The Gibbs free energy is G = H - T*S

Total enthalpy                    ...   -381.31443765 Eh
Total entropy correction          ...     -0.03748841 Eh    -23.52 kcal/mol
-----------------------------------------------------------------------
Final Gibbs free energy         ...   -381.35192606 Eh

For completeness - the Gibbs free energy minus the electronic energy
G-E(el)                           ...      0.05406193 Eh     33.92 kcal/mol

                             ****ORCA TERMINATED NORMALLY****
TOTAL RUN TIME: 0 days 0 hours 7 minutes 12 seconds 110 msec
