                         Program Version 6.0.0  -   RELEASE  -
|  1> ! r2SCAN-3c DEF2-TZVP FREQ
|  2> * xyzfile 0 1 vacuum_censo.xyz
|  3>
|  4>                          ****END OF INPUT****

CARTESIAN COORDINATES (ANGSTROEM)
---------------------------------
  C     -0.670241    1.264725   -0.000082
  C      0.670176    1.264767   -0.000130
  C      1.437053    0.000021    0.000151
  O      2.661151    0.000035    0.000043
  C      0.670215   -1.264750   -0.000065
  C     -0.670202   -1.264761   -0.000018
  C     -1.437121   -0.000030   -0.000141
  O     -2.661131   -0.000045    0.000090
  H     -1.258693    2.177419   -0.000031
  H      1.258635    2.177495   -0.000249
  H      1.258712   -2.177454   -0.000137
  H     -1.258617   -2.177479    0.000080

 Total Charge           Charge          ....    0
 Multiplicity           Mult            ....    1
 Number of Electrons    NEL             ....   56
 Basis Dimension        Dim             ....  272

ORBITAL ENERGIES
----------------

  NO   OCC          E(Eh)            E(eV)
   0   2.0000     -18.968948      -516.1713
   1   2.0000     -18.968931      -516.1708
   2   2.0000     -10.147029      -276.1147
   3   2.0000     -10.147020      -276.1144
   4   2.0000     -10.082120      -274.3484
   5   2.0000     -10.082106      -274.3480
   6   2.0000     -10.081429      -274.3296
   7   2.0000     -10.081426      -274.3295
   8   2.0000      -1.029634       -28.0178
   9   2.0000      -1.027517       -27.9602
  10   2.0000      -0.834512       -22.7082
  11   2.0000      -0.766952       -20.8698
  12   2.0000      -0.682832       -18.5808
  13   2.0000      -0.615391       -16.7456
  14   2.0000      -0.581221       -15.8158
  15   2.0000      -0.487550       -13.2669
  16   2.0000      -0.481304       -13.0969
  17   2.0000      -0.459732       -12.5099
  18   2.0000      -0.438119       -11.9218
  19   2.0000      -0.424959       -11.5637
  20   2.0000      -0.412302       -11.2193
  21   2.0000      -0.393067       -10.6959
  22   2.0000      -0.391979       -10.6663
  23   2.0000      -0.373761       -10.1706
  24   2.0000      -0.296604        -8.0710
  25   2.0000      -0.292296        -7.9538
  26   2.0000      -0.251479        -6.8431
  27   2.0000      -0.244590        -6.6556
  28   0.0000      -0.165792        -4.5114
  29   0.0000      -0.066026        -1.7967
  30   0.0000      -0.028247        -0.7687
  31   0.0000       0.053574         1.4578
  32   0.0000       0.075357         2.0506

MULLIKEN ATOMIC CHARGES
-----------------------
   0 C :   -0.154201
   1 C :   -0.154207
   2 C :    0.328489
   3 O :   -0.297301
   4 C :   -0.154211
   5 C :   -0.154195
   6 C :    0.328456
   7 O :   -0.297206
   8 H :    0.138590
   9 H :    0.138596
  10 H :    0.138598
  11 H :    0.138591
Sum of atomic charges:    0.0000000

LOEWDIN ATOMIC CHARGES
----------------------
   0 C :   -0.077996
   1 C :   -0.078007
   2 C :   -0.309539
   3 O :    0.154319
   4 C :   -0.078006
   5 C :   -0.077997
   6 C :   -0.309617
   7 O :    0.154431
   8 H :    0.155598
   9 H :    0.155608
  10 H :    0.155608
  11 H :    0.155598

  Mayer bond orders larger than 0.100000
B(  0-C ,  1-C ) :   1.6608 B(  0-C ,  6-C ) :   1.0361 B(  0-C ,  8-H ) :   0.9531
B(  1-C ,  2-C ) :   1.0361 B(  1-C ,  9-H ) :   0.9531 B(  2-C ,  3-O ) :   1.8865
B(  2-C ,  4-C ) :   1.0361 B(  4-C ,  5-C ) :   1.6608 B(  4-C , 10-H ) :   0.9531
B(  5-C ,  6-C ) :   1.0361 B(  5-C , 11-H ) :   0.9531 B(  6-C ,  7-O ) :   1.8867

Dispersion correction           -0.003749020
FINAL SINGLE POINT ENERGY      -381.406397649156

DIPOLE MOMENT
-------------

Method             : SCF
Type of density    : Electron Density
Multiplicity       :   1
Irrep              :   0
Energy             :  -381.4057154697105148 Eh
Relativity type    :
Basis              : AO
                                X                 Y                 Z
Electronic contribution:     -0.000289130       0.000000188       0.000144918
Nuclear contribution   :      0.000072674       0.000000251      -0.000256449
                        -----------------------------------------
Total Dipole Moment    :     -0.000216455       0.000000438      -0.000111531
                        -----------------------------------------
Magnitude (a.u.)       :      0.000243500
Magnitude (Debye)      :      0.000618927

VIBRATIONAL FREQUENCIES
-----------------------

Scaling factor for frequencies =  1.000000000  (already applied!)

     0:       0.00 cm**-1
     1:       0.00 cm**-1
     2:       0.00 cm**-1
     3:       0.00 cm**-1
     4:       0.00 cm**-1
     5:       0.00 cm**-1
     6:      95.26 cm**-1
     7:     227.13 cm**-1
     8:     327.56 cm**-1
     9:     414.86 cm**-1
    10:     457.55 cm**-1
    11:     460.24 cm**-1
    12:     505.76 cm**-1
    13:     604.02 cm**-1
    14:     750.21 cm**-1
    15:     757.21 cm**-1
    16:     772.89 cm**-1
    17:     817.14 cm**-1
    18:     909.83 cm**-1
    19:     957.78 cm**-1
    20:    1011.24 cm**-1
    21:    1019.02 cm**-1
    22:    1080.50 cm**-1
    23:    1160.22 cm**-1
    24:    1232.11 cm**-1
    25:    1310.94 cm**-1
    26:    1379.89 cm**-1
    27:    1394.76 cm**-1
    28:    1620.39 cm**-1
    29:    1657.50 cm**-1
    30:    1692.54 cm**-1
    31:    1698.48 cm**-1
    32:    3165.96 cm**-1
    33:    3166.55 cm**-1
    34:    3181.65 cm**-1
    35:    3184.81 cm**-1

IR SPECTRUM
-----------

 Mode   freq       eps      Int      T**2         TX        TY        TZ
       cm**-1   L/(mol*cm) km/mol    a.u.
----------------------------------------------------------------------------
  6:     95.26   0.002683   13.56  0.008788  ( 0.000838 -0.000002 -0.093739)
  7:    227.13   0.000000    0.00  0.000000  ( 0.000025 -0.000000 -0.000087)
  8:    327.56   0.000000    0.00  0.000000  ( 0.000018  0.000007 -0.000004)
  9:    414.86   0.004410   22.29  0.003318  (-0.000003 -0.057598  0.000001)
 10:    457.55   0.000000    0.00  0.000000  (-0.000006 -0.000000 -0.000005)
 11:    460.24   0.000000    0.00  0.000000  (-0.000001 -0.000046 -0.000000)
 12:    505.76   0.001090    5.51  0.000673  (-0.000470  0.000000  0.025935)
 13:    604.02   0.000000    0.00  0.000000  (-0.000000  0.000001  0.000000)
 14:    750.21   0.000000    0.00  0.000000  (-0.000000  0.000001  0.000001)
 15:    757.21   0.000103    0.52  0.000042  ( 0.006510  0.000000  0.000009)
 16:    772.89   0.000000    0.00  0.000000  ( 0.000007 -0.000000  0.000002)
 17:    817.14   0.000000    0.00  0.000000  (-0.000007 -0.000000  0.000003)
 18:    909.83   0.014489   73.22  0.004969  (-0.000441  0.000001  0.070493)
 19:    957.78   0.003932   19.87  0.001281  ( 0.035792  0.000001  0.000005)
 20:   1011.24   0.000000    0.00  0.000000  (-0.000018  0.000013  0.000005)
 21:   1019.02   0.000000    0.00  0.000000  (-0.000043 -0.000000  0.000035)
 22:   1080.50   0.009113   46.05  0.002632  ( 0.000003 -0.051302  0.000001)
 23:   1160.22   0.000000    0.00  0.000000  ( 0.000008 -0.000000  0.000000)
 24:   1232.11   0.000000    0.00  0.000000  ( 0.000001 -0.000024  0.000000)
 25:   1310.94   0.015310   77.37  0.003644  ( 0.000004 -0.060369  0.000002)
 26:   1379.89   0.001120    5.66  0.000253  ( 0.015913 -0.000000  0.000006)
 27:   1394.76   0.000000    0.00  0.000000  ( 0.000000  0.000006  0.000000)
 28:   1620.39   0.003287   16.61  0.000633  ( 0.000001 -0.025159  0.000001)
 29:   1657.50   0.000001    0.00  0.000000  ( 0.000418 -0.000000  0.000003)
 30:   1692.54   0.000056    0.28  0.000010  ( 0.003209  0.000000  0.000007)
 31:   1698.48   0.073428  371.08  0.013491  ( 0.116151  0.000001  0.000001)
 32:   3165.96   0.000000    0.00  0.000000  (-0.000010  0.000095 -0.000000)
 33:   3166.55   0.000552    2.79  0.000054  (-0.007379 -0.000001 -0.000002)
 34:   3181.65   0.001070    5.41  0.000105  (-0.000001  0.010244 -0.000000)
 35:   3184.81   0.000000    0.00  0.000000  ( 0.000061 -0.000003  0.000001)

--------------------------
THERMOCHEMISTRY AT 298.15K
--------------------------

Temperature         ...   298.15 K
Pressure            ...     1.00 atm
Total Mass          ...   108.10 AMU
Quasi RRHO          ...     True
Cut-Off Frequency   ...     1.00 cm^-1

Throughout the following assumptions are being made:
  (1) The electronic state is orbitally nondegenerate
  (2) There are no thermally accessible electronically excited states
  (3) Hindered rotations indicated by low frequency modes are not
      treated as such but are treated as vibrations and this may
      cause some error
  (4) All equations used are the standard statistical mechanics
      equations for an ideal gas
  (5) All vibrations are strictly harmonic

freq.      95.26  E(vib)   ...       0.47
freq.     227.13  E(vib)   ...       0.33
freq.     327.56  E(vib)   ...       0.24
freq.     414.86  E(vib)   ...       0.19
freq.     457.55  E(vib)   ...       0.16
freq.     460.24  E(vib)   ...       0.16
freq.     505.76  E(vib)   ...       0.14
freq.     604.02  E(vib)   ...       0.10
freq.     750.21  E(vib)   ...       0.06
freq.     757.21  E(vib)   ...       0.06
freq.     772.89  E(vib)   ...       0.05
freq.     817.14  E(vib)   ...       0.05
freq.     909.83  E(vib)   ...       0.03
freq.     957.78  E(vib)   ...       0.03
freq.    1011.24  E(vib)   ...       0.02
freq.    1019.02  E(vib)   ...       0.02
freq.    1080.50  E(vib)   ...       0.02
freq.    1160.22  E(vib)   ...       0.01
freq.    1232.11  E(vib)   ...       0.01
freq.    1310.94  E(vib)   ...       0.01
freq.    1379.89  E(vib)   ...       0.01
freq.    1394.76  E(vib)   ...       0.00
freq.    1620.39  E(vib)   ...       0.00
freq.    1657.50  E(vib)   ...       0.00
freq.    1692.54  E(vib)   ...       0.00
freq.    1698.48  E(vib)   ...       0.00
freq.    3165.96  E(vib)   ...       0.00
freq.    3166.55  E(vib)   ...       0.00
freq.    3181.65  E(vib)   ...       0.00
freq.    3184.81  E(vib)   ...       0.00

------------
INNER ENERGY
------------

The inner energy is: U= E(el) + E(ZPE) + E(vib) + E(rot) + E(trans)
    E(el)   - is the total energy from the electronic structure calculation
              = E(kin-el) + E(nuc-el) + E(el-el) + E(nuc-nuc)
    E(ZPE)  - the the zero temperature vibrational energy from the frequency calculation
    E(vib)  - the the finite temperature correction to E(ZPE) due to population
              of excited vibrational states
    E(rot)  - is the rotational thermal energy
    E(trans)- is the translational thermal energy

Summary of contributions to the inner energy U:
Electronic energy                ...   -381.40639765 Eh
Zero point energy                ...      0.08432410 Eh      52.91 kcal/mol
Thermal vibrational correction   ...      0.00344398 Eh       2.16 kcal/mol
Thermal rotational correction    ...      0.00141627 Eh       0.89 kcal/mol
Thermal translational correction ...      0.00141627 Eh       0.89 kcal/mol
-----------------------------------------------------------------------
Total thermal energy                   -381.31579703 Eh

Summary of corrections to the electronic energy:
(perhaps to be used in another calculation)
Total thermal correction                  0.00627652 Eh       3.94 kcal/mol
Non-thermal (ZPE) correction              0.08432410 Eh      52.91 kcal/mol
-----------------------------------------------------------------------
Total correction                          0.09060062 Eh      56.85 kcal/mol

--------
ENTHALPY
--------

The enthalpy is H = U + kB*T
                kB is Boltzmann's constant
Total thermal energy              ...   -381.31579703 Eh
Thermal Enthalpy correction       ...      0.00094421 Eh       0.59 kcal/mol
-----------------------------------------------------------------------
Total Enthalpy                    ...   -381.31485282 Eh

Note: Rotational entropy computed according to Herzberg
Infrared and Raman Spectra, Chapter V,1, Van Nostrand Reinhold, 1945
Point Group:  Cs, Symmetry Number:   1
Rotational constants in cm-1:     0.175659     0.055420     0.042129

Vibrational entropy computed according to the QRRHO of S. Grimme
Chem.Eur.J. 2012 18 9955 using a reference frequency of 100.0 cm-1

-------
ENTROPY
-------

The entropy contributions are T*S = T*(S(el)+S(vib)+S(rot)+S(trans))
     S(el)   - electronic entropy
     S(vib)  - vibrational entropy
     S(rot)  - rotational entropy
     S(trans)- translational entropy
The entropies will be listed as multiplied by the temperature to get
units of energy

Electronic entropy                ...      0.00000000 Eh      0.00 kcal/mol
Vibrational entropy               ...      0.00546444 Eh      3.43 kcal/mol
Rotational entropy                ...      0.01319266 Eh      8.28 kcal/mol
Translational entropy             ...      0.01898150 Eh     11.91 kcal/mol
-----------------------------------------------------------------------
Final entropy term                ...      0.03763861 Eh     23.62 kcal/mol

In case the symmetry of your molecule has not been determined correctly
or in case you have a reason to use a different symmetry number we print
out the resulting rotational entropy values for sn=1,12:

 non-linear molecules -----------------------------------
|  sn= 1 | S(rot)=       0.01319266 Eh      8.28 kcal/mol|
|  sn= 2 | S(rot)=       0.01253821 Eh      7.87 kcal/mol|
|  sn= 3 | S(rot)=       0.01215538 Eh      7.63 kcal/mol|
|  sn= 4 | S(rot)=       0.01188375 Eh      7.46 kcal/mol|
|  sn= 5 | S(rot)=       0.01167306 Eh      7.32 kcal/mol|
|  sn= 6 | S(rot)=       0.01150092 Eh      7.22 kcal/mol|
|  sn= 7 | S(rot)=       0.01135537 Eh      7.13 kcal/mol|
|  sn= 8 | S(rot)=       0.01122930 Eh      7.05 kcal/mol|
|  sn= 9 | S(rot)=       0.01111809 Eh      6.98 kcal/mol|
|  sn=10 | S(rot)=       0.01101861 Eh      6.91 kcal/mol|
|  sn=11 | S(rot)=       0.01092862 Eh      6.86 kcal/mol|
|  sn=12 | S(rot)=       0.01084646 Eh      6.81 kcal/mol|
 linear molecules ---------------------------------------
|  Dinfh | S(rot)=       0.00831605 Eh      5.22 kcal/mol|
|  Cinfv | S(rot)=       0.00897051 Eh      5.63 kcal/mol|
 --------------------------------------------------------

-------------------
GIBBS FREE ENERGY
-------------------

The Gibbs free energy is G = H - T*S

Total enthalpy                    ...   -381.31485282 Eh
Total entropy correction          ...     -0.03763861 Eh    -23.62 kcal/mol
-----------------------------------------------------------------------
Final Gibbs free energy         ...   -381.35249143 Eh

For completeness - the Gibbs free energy minus the electronic energy
G-E(el)                           ...      0.05390622 Eh     33.83 kcal/mol

                             ****ORCA TERMINATED NORMALLY****
TOTAL RUN TIME: 0 days 0 hours 7 minutes 8 seconds 63 msec
