                         Program Version 6.0.1  -  RELEASE   -
|  1> ! pbe def2-sv(p) def2/J RI DEFGRID1 loosescf d4 GCP(DFT/SV(P)) printgap
|  2> %output
|  3>     printlevel normal
|  4> end
|  5> * xyz 0 1
|  6> C -2.9597530779 0.3517632409 0.0211331613
|  7> C -1.9592986119 -0.5200504937 -0.016046392
|  8> C -0.5329497283 -0.2164651189 -0.0088462517
|  9> C 0.3795935203 -1.2730847694 0.0001081909
| 10> C 1.7412024432 -1.0395409503 0.0090043322
| 11> C 2.2225565466 0.2588722373 0.0075499353
| 12> C 1.3300976511 1.318633211 -0.0035113072
| 13> C -0.0313483757 1.0858394462 -0.0116737646
| 14> H -3.985870242 0.0259842777 0.0135213051
| 15> H -2.806269011 1.4164191804 0.0626495795
| 16> H -2.1906716241 -1.5782194418 -0.0521940274
| 17> H 0.010969062 -2.2896448507 0.0010530508
| 18> H 2.4302134671 -1.8718521655 0.0168863281
| 19> H 3.2865008654 0.444584 0.0143793634
| 20> H 1.700141004 2.3339110378 -0.0062518686
| 21> H -0.7104123841 1.9243866955 -0.0228483221
| 22> *
| 23>
| 24>                          ****END OF INPUT****

CARTESIAN COORDINATES (ANGSTROEM)
---------------------------------
  C     -2.959753    0.351763    0.021133
  C     -1.959299   -0.520050   -0.016046
  C     -0.532950   -0.216465   -0.008846
  C      0.379594   -1.273085    0.000108
  C      1.741202   -1.039541    0.009004
  C      2.222557    0.258872    0.007550
  C      1.330098    1.318633   -0.003511
  C     -0.031348    1.085839   -0.011674
  H     -3.985870    0.025984    0.013521
  H     -2.806269    1.416419    0.062650
  H     -2.190672   -1.578219   -0.052194
  H      0.010969   -2.289645    0.001053
  H      2.430213   -1.871852    0.016886
  H      3.286501    0.444584    0.014379
  H      1.700141    2.333911   -0.006252
  H     -0.710412    1.924387   -0.022848

 Total Charge           Charge          ....    0
 Multiplicity           Mult            ....    1
 Number of Electrons    NEL             ....   56
 Basis Dimension        Dim             ....  128

ORBITAL ENERGIES
----------------

  NO   OCC          E(Eh)            E(eV)
   0   2.0000      -9.905329      -269.5377
   1   2.0000      -9.898028      -269.3390
   2   2.0000      -9.894278      -269.2370
   3   2.0000      -9.894133      -269.2330
   4   2.0000      -9.893992      -269.2292
   5   2.0000      -9.893425      -269.2138
   6   2.0000      -9.893196      -269.2076
   7   2.0000      -9.882862      -268.9263
   8   2.0000      -0.781878       -21.2760
   9   2.0000      -0.713685       -19.4204
  10   2.0000      -0.672753       -18.3065
  11   2.0000      -0.651007       -17.7148
  12   2.0000      -0.561690       -15.2844
  13   2.0000      -0.542887       -14.7727
  14   2.0000      -0.502102       -13.6629
  15   2.0000      -0.464597       -12.6423
  16   2.0000      -0.425937       -11.5903
  17   2.0000      -0.405546       -11.0355
  18   2.0000      -0.392837       -10.6896
  19   2.0000      -0.375759       -10.2249
  20   2.0000      -0.366407        -9.9704
  21   2.0000      -0.342674        -9.3246
  22   2.0000      -0.327270        -8.9055
  23   2.0000      -0.303077        -8.2471
  24   2.0000      -0.297008        -8.0820
  25   2.0000      -0.274539        -7.4706
  26   2.0000      -0.232121        -6.3163
  27   2.0000      -0.205339        -5.5876
  28   0.0000      -0.065762        -1.7895
  29   0.0000      -0.035312        -0.9609
  30   0.0000       0.020541         0.5589
  31   0.0000       0.042747         1.1632
  32   0.0000       0.058293         1.5862

MULLIKEN ATOMIC CHARGES
-----------------------
   0 C :   -0.193899
   1 C :   -0.089506
   2 C :    0.172029
   3 C :   -0.134591
   4 C :   -0.039808
   5 C :   -0.050203
   6 C :   -0.042684
   7 C :   -0.127492
   8 H :    0.101773
   9 H :    0.102330
  10 H :    0.055493
  11 H :    0.044791
  12 H :    0.053023
  13 H :    0.054722
  14 H :    0.052015
  15 H :    0.042006
Sum of atomic charges:   -0.0000000

LOEWDIN ATOMIC CHARGES
----------------------
   0 C :   -0.239957
   1 C :   -0.121214
   2 C :   -0.041656
   3 C :   -0.113998
   4 C :   -0.121347
   5 C :   -0.122817
   6 C :   -0.119491
   7 C :   -0.107536
   8 H :    0.125830
   9 H :    0.120649
  10 H :    0.123271
  11 H :    0.122800
  12 H :    0.124231
  13 H :    0.123920
  14 H :    0.124032
  15 H :    0.123284

  Mayer bond orders larger than 0.100000
B(  0-C ,  1-C ) :   1.9705 B(  0-C ,  8-H ) :   0.9183 B(  0-C ,  9-H ) :   0.9031
B(  1-C ,  2-C ) :   1.1109 B(  1-C , 10-H ) :   0.9320 B(  2-C ,  3-C ) :   1.3355
B(  2-C ,  7-C ) :   1.3496 B(  3-C ,  4-C ) :   1.3736 B(  3-C , 11-H ) :   0.9638
B(  4-C ,  5-C ) :   1.3787 B(  4-C , 12-H ) :   0.9630 B(  5-C ,  6-C ) :   1.3632
B(  5-C , 13-H ) :   0.9649 B(  6-C ,  7-C ) :   1.3996 B(  6-C , 14-H ) :   0.9616
B(  7-C , 15-H ) :   0.9539

Dispersion correction           -0.016106752
FINAL SINGLE POINT ENERGY      -308.949564753318

DIPOLE MOMENT
-------------

Method             : SCF
Type of density    : Electron Density
Multiplicity       :   1
Irrep              :   0
Energy             :  -308.9908775999832642 Eh
Relativity type    :
Basis              : AO
                                X                 Y                 Z
Electronic contribution:      2.193275598      -0.376746601      -0.024571455
Nuclear contribution   :     -2.125327462       0.380492098       0.025513895
                        -----------------------------------------
Total Dipole Moment    :      0.067948137       0.003745497       0.000942440
                        -----------------------------------------
Magnitude (a.u.)       :      0.068057815
Magnitude (Debye)      :      0.172989218

Rotational constants in cm-1:             0.174893             0.052264             0.040243
Rotational constants in MHz :          5243.151170          1566.826011          1206.453537

                             ****ORCA TERMINATED NORMALLY****
TOTAL RUN TIME: 0 days 0 hours 0 minutes 9 seconds 557 msec
