                         Program Version 6.0.1  -  RELEASE   -
|  1> ! pbe def2-sv(p) def2/J RI DEFGRID1 loosescf d4 GCP(DFT/SV(P)) printgap
|  2> %output
|  3>     printlevel normal
|  4> end
|  5> * xyz 0 1
|  6> C -1.7517850511 -0.7960235037 -0.0395764898
|  7> C -0.4892003534 0.0053750648 -0.3404650598
|  8> C -0.635529399 1.4518752707 0.1226130258
|  9> C 0.7251865186 -0.6434179563 0.3276641146
| 10> O 1.8964257455 0.0003350484 -0.1281748593
| 11> H -1.9339418758 -0.8281344396 1.0329046709
| 12> H -1.6606881569 -1.8169944123 -0.4037394328
| 13> H -2.611353863 -0.3352508044 -0.5196908344
| 14> H -0.3049253776 0.0010180664 -1.4192505451
| 15> H -0.8562309624 1.4884192418 1.187774922
| 16> H -1.4417040316 1.9445559169 -0.4154412574
| 17> H 0.2894410412 1.9912652329 -0.0609244359
| 18> H 0.6361816381 -0.5528310381 1.4204688397
| 19> H 0.7564076192 -1.7135626558 0.073323249
| 20> H 2.6600315056 -0.396029484 0.3022344747
| 21> *
| 22>
| 23>                          ****END OF INPUT****

CARTESIAN COORDINATES (ANGSTROEM)
---------------------------------
  C     -1.751785   -0.796024   -0.039576
  C     -0.489200    0.005375   -0.340465
  C     -0.635529    1.451875    0.122613
  C      0.725187   -0.643418    0.327664
  O      1.896426    0.000335   -0.128175
  H     -1.933942   -0.828134    1.032905
  H     -1.660688   -1.816994   -0.403739
  H     -2.611354   -0.335251   -0.519691
  H     -0.304925    0.001018   -1.419251
  H     -0.856231    1.488419    1.187775
  H     -1.441704    1.944556   -0.415441
  H      0.289441    1.991265   -0.060924
  H      0.636182   -0.552831    1.420469
  H      0.756408   -1.713563    0.073323
  H      2.660032   -0.396029    0.302234

 Total Charge           Charge          ....    0
 Multiplicity           Mult            ....    1
 Number of Electrons    NEL             ....   42
 Basis Dimension        Dim             ....   90

ORBITAL ENERGIES
----------------

  NO   OCC          E(Eh)            E(eV)
   0   2.0000     -18.738596      -509.9031
   1   2.0000      -9.925097      -270.0756
   2   2.0000      -9.889700      -269.1124
   3   2.0000      -9.872720      -268.6504
   4   2.0000      -9.864092      -268.4156
   5   2.0000      -0.916435       -24.9375
   6   2.0000      -0.718022       -19.5384
   7   2.0000      -0.606720       -16.5097
   8   2.0000      -0.597686       -16.2639
   9   2.0000      -0.495523       -13.4839
  10   2.0000      -0.459821       -12.5124
  11   2.0000      -0.418011       -11.3747
  12   2.0000      -0.389681       -10.6038
  13   2.0000      -0.371519       -10.1095
  14   2.0000      -0.341958        -9.3051
  15   2.0000      -0.331709        -9.0263
  16   2.0000      -0.310487        -8.4488
  17   2.0000      -0.290213        -7.8971
  18   2.0000      -0.285315        -7.7638
  19   2.0000      -0.264996        -7.2109
  20   2.0000      -0.210631        -5.7316
  21   0.0000       0.030201         0.8218
  22   0.0000       0.045641         1.2420
  23   0.0000       0.075615         2.0576
  24   0.0000       0.088974         2.4211
  25   0.0000       0.109452         2.9783

MULLIKEN ATOMIC CHARGES
-----------------------
   0 C :   -0.253325
   1 C :   -0.185618
   2 C :   -0.249799
   3 C :    0.024368
   4 O :   -0.429335
   5 H :    0.093171
   6 H :    0.098897
   7 H :    0.103002
   8 H :    0.080800
   9 H :    0.084827
  10 H :    0.096651
  11 H :    0.114539
  12 H :    0.058753
  13 H :    0.066414
  14 H :    0.296656
Sum of atomic charges:   -0.0000000

LOEWDIN ATOMIC CHARGES
----------------------
   0 C :   -0.329112
   1 C :   -0.170143
   2 C :   -0.332014
   3 C :   -0.114692
   4 O :   -0.346039
   5 H :    0.115788
   6 H :    0.116161
   7 H :    0.120376
   8 H :    0.119863
   9 H :    0.113118
  10 H :    0.116063
  11 H :    0.123420
  12 H :    0.091133
  13 H :    0.091333
  14 H :    0.284747

  Mayer bond orders larger than 0.100000
B(  0-C ,  1-C ) :   1.1016 B(  0-C ,  5-H ) :   0.9497 B(  0-C ,  6-H ) :   0.9501
B(  0-C ,  7-H ) :   0.9529 B(  1-C ,  2-C ) :   1.1109 B(  1-C ,  3-C ) :   1.0744
B(  1-C ,  8-H ) :   0.8993 B(  2-C ,  9-H ) :   0.9505 B(  2-C , 10-H ) :   0.9535
B(  2-C , 11-H ) :   0.9446 B(  3-C ,  4-O ) :   1.0882 B(  3-C , 12-H ) :   0.9143
B(  3-C , 13-H ) :   0.9259 B(  4-O , 14-H ) :   0.8534

Dispersion correction           -0.009672949
FINAL SINGLE POINT ENERGY      -233.088743287411

DIPOLE MOMENT
-------------

Method             : SCF
Type of density    : Electron Density
Multiplicity       :   1
Irrep              :   0
Energy             :  -233.1482814720919805 Eh
Relativity type    :
Basis              : AO
                                X                 Y                 Z
Electronic contribution:      4.288174152      -0.219678375      -0.779653238
Nuclear contribution   :     -4.162430369      -0.204087273       1.121698741
                        -----------------------------------------
Total Dipole Moment    :      0.125743783      -0.423765649       0.342045502
                        -----------------------------------------
Magnitude (a.u.)       :      0.558913186
Magnitude (Debye)      :      1.420644419

Rotational constants in cm-1:             0.255979             0.117543             0.089405
Rotational constants in MHz :          7674.048336          3523.865087          2680.291580

                             ****ORCA TERMINATED NORMALLY****
TOTAL RUN TIME: 0 days 0 hours 0 minutes 5 seconds 966 msec
