                         Program Version 6.0.1  -  RELEASE   -
|  1> ! pbe def2-sv(p) def2/J RI DEFGRID1 loosescf d4 GCP(DFT/SV(P)) printgap
|  2> %output
|  3>     printlevel normal
|  4> end
|  5> * xyz 0 1
|  6> C -2.5099649226 -0.7294375691 -0.0039312538
|  7> C -1.1209395099 -0.4806872218 0.6025092543
|  8> H -1.13182877 -0.8115244121 1.6541938978
|  9> C -0.7167179729 1.0204818398 0.5933908231
| 10> H -1.5902839285 1.6270612907 0.3212755068
| 11> C 0.3925219512 1.2420463439 -0.4530515697
| 12> H 0.7092491961 2.2900132607 -0.4214473647
| 13> C 1.608935032 0.3614675569 -0.0985339442
| 14> H 2.2500476691 0.2875390164 -0.9869133563
| 15> C 1.1310991582 -1.0668943972 0.2626318719
| 16> H 1.2038887517 -1.1963748049 1.3668918727
| 17> O -0.2002298368 -1.2777512076 -0.1282256132
| 18> O 1.9298648936 -1.9865802957 -0.3959793634
| 19> O 2.2965524741 0.9606442324 0.9771494754
| 20> O -0.0605099932 0.999903584 -1.7532224536
| 21> O -0.3285177106 1.4570664454 1.8683854277
| 22> O -2.6029497751 -0.4046567821 -1.3610157439
| 23> H -3.2454527143 -0.1736649954 0.5953418777
| 24> H -2.7351350801 -1.7962679876 0.0557707698
| 25> H 1.4346669245 -2.8101253891 -0.4842461699
| 26> H 3.1331245678 0.5015243917 1.1108709123
| 27> H -0.2743132643 0.056056142 -1.8333761108
| 28> H 0.6331576532 1.3710753409 1.9510930978
| 29> H -2.3243959428 0.510128349 -1.5039352939
| 30> *
| 31>
| 32>                          ****END OF INPUT****

CARTESIAN COORDINATES (ANGSTROEM)
---------------------------------
  C     -2.509965   -0.729438   -0.003931
  C     -1.120940   -0.480687    0.602509
  H     -1.131829   -0.811524    1.654194
  C     -0.716718    1.020482    0.593391
  H     -1.590284    1.627061    0.321276
  C      0.392522    1.242046   -0.453052
  H      0.709249    2.290013   -0.421447
  C      1.608935    0.361468   -0.098534
  H      2.250048    0.287539   -0.986913
  C      1.131099   -1.066894    0.262632
  H      1.203889   -1.196375    1.366892
  O     -0.200230   -1.277751   -0.128226
  O      1.929865   -1.986580   -0.395979
  O      2.296552    0.960644    0.977149
  O     -0.060510    0.999904   -1.753222
  O     -0.328518    1.457066    1.868385
  O     -2.602950   -0.404657   -1.361016
  H     -3.245453   -0.173665    0.595342
  H     -2.735135   -1.796268    0.055771
  H      1.434667   -2.810125   -0.484246
  H      3.133125    0.501524    1.110871
  H     -0.274313    0.056056   -1.833376
  H      0.633158    1.371075    1.951093
  H     -2.324396    0.510128   -1.503935

 Total Charge           Charge          ....    0
 Multiplicity           Mult            ....    1
 Number of Electrons    NEL             ....   96
 Basis Dimension        Dim             ....  192

ORBITAL ENERGIES
----------------

  NO   OCC          E(Eh)            E(eV)
   0   2.0000     -18.788806      -511.2694
   1   2.0000     -18.785346      -511.1752
   2   2.0000     -18.772053      -510.8135
   3   2.0000     -18.761378      -510.5230
   4   2.0000     -18.752780      -510.2891
   5   2.0000     -18.743967      -510.0493
   6   2.0000      -9.999420      -272.0980
   7   2.0000      -9.954383      -270.8725
   8   2.0000      -9.952415      -270.8190
   9   2.0000      -9.949665      -270.7442
  10   2.0000      -9.946947      -270.6702
  11   2.0000      -9.939129      -270.4574
  12   2.0000      -1.002627       -27.2829
  13   2.0000      -0.960506       -26.1367
  14   2.0000      -0.947811       -25.7913
  15   2.0000      -0.931626       -25.3508
  16   2.0000      -0.926567       -25.2132
  17   2.0000      -0.920622       -25.0514
  18   2.0000      -0.701521       -19.0893
  19   2.0000      -0.700981       -19.0747
  20   2.0000      -0.626546       -17.0492
  21   2.0000      -0.602491       -16.3946
  22   2.0000      -0.573790       -15.6136
  23   2.0000      -0.531199       -14.4547
  24   2.0000      -0.516288       -14.0489
  25   2.0000      -0.499065       -13.5802
  26   2.0000      -0.492592       -13.4041
  27   2.0000      -0.479523       -13.0485
  28   2.0000      -0.449083       -12.2202
  29   2.0000      -0.442349       -12.0369
  30   2.0000      -0.414057       -11.2671
  31   2.0000      -0.401648       -10.9294
  32   2.0000      -0.398349       -10.8396
  33   2.0000      -0.383914       -10.4468
  34   2.0000      -0.370201       -10.0737
  35   2.0000      -0.352547        -9.5933
  36   2.0000      -0.336952        -9.1689
  37   2.0000      -0.336064        -9.1448
  38   2.0000      -0.324120        -8.8198
  39   2.0000      -0.302517        -8.2319
  40   2.0000      -0.292195        -7.9510
  41   2.0000      -0.284610        -7.7446
  42   2.0000      -0.263155        -7.1608
  43   2.0000      -0.255780        -6.9601
  44   2.0000      -0.240877        -6.5546
  45   2.0000      -0.226919        -6.1748
  46   2.0000      -0.221937        -6.0392
  47   2.0000      -0.209857        -5.7105
  48   0.0000       0.003884         0.1057
  49   0.0000       0.024037         0.6541
  50   0.0000       0.033145         0.9019
  51   0.0000       0.051354         1.3974
  52   0.0000       0.058404         1.5893

MULLIKEN ATOMIC CHARGES
-----------------------
   0 C :    0.075835
   1 C :    0.006352
   2 H :    0.070799
   3 C :   -0.002707
   4 H :    0.075128
   5 C :    0.036071
   6 H :    0.093592
   7 C :    0.022360
   8 H :    0.087306
   9 C :    0.190485
  10 H :    0.035511
  11 O :   -0.311510
  12 O :   -0.386719
  13 O :   -0.418971
  14 O :   -0.423369
  15 O :   -0.421851
  16 O :   -0.437913
  17 H :    0.087060
  18 H :    0.089489
  19 H :    0.307443
  20 H :    0.319109
  21 H :    0.307135
  22 H :    0.304845
  23 H :    0.294520
Sum of atomic charges:   -0.0000000

LOEWDIN ATOMIC CHARGES
----------------------
   0 C :   -0.122613
   1 C :   -0.084443
   2 H :    0.113881
   3 C :   -0.079517
   4 H :    0.110400
   5 C :   -0.072548
   6 H :    0.124753
   7 C :   -0.090882
   8 H :    0.119667
   9 C :   -0.003743
  10 H :    0.077453
  11 O :   -0.151715
  12 O :   -0.303019
  13 O :   -0.308301
  14 O :   -0.303676
  15 O :   -0.321949
  16 O :   -0.328362
  17 H :    0.103576
  18 H :    0.117633
  19 H :    0.290293
  20 H :    0.298651
  21 H :    0.270898
  22 H :    0.272990
  23 H :    0.270573

  Mayer bond orders larger than 0.100000
B(  0-C ,  1-C ) :   1.0273 B(  0-C , 16-O ) :   1.0949 B(  0-C , 17-H ) :   0.9171
B(  0-C , 18-H ) :   0.9151 B(  1-C ,  2-H ) :   0.8742 B(  1-C ,  3-C ) :   0.9287
B(  1-C , 11-O ) :   0.9639 B(  3-C ,  4-H ) :   0.9024 B(  3-C ,  5-C ) :   1.0007
B(  3-C , 15-O ) :   1.0892 B(  5-C ,  6-H ) :   0.8921 B(  5-C ,  7-C ) :   0.9962
B(  5-C , 14-O ) :   1.0516 B(  7-C ,  8-H ) :   0.8830 B(  7-C ,  9-C ) :   0.9742
B(  7-C , 13-O ) :   1.0231 B(  9-C , 10-H ) :   0.8747 B(  9-C , 11-O ) :   1.0440
B(  9-C , 12-O ) :   1.1559 B( 12-O , 19-H ) :   0.8378 B( 13-O , 20-H ) :   0.8404
B( 13-O , 22-H ) :   0.1023 B( 14-O , 21-H ) :   0.8001 B( 15-O , 22-H ) :   0.8090
B( 16-O , 23-H ) :   0.8153

Dispersion correction           -0.025576692
FINAL SINGLE POINT ENERGY      -685.693533442743

DIPOLE MOMENT
-------------

Method             : SCF
Type of density    : Electron Density
Multiplicity       :   1
Irrep              :   0
Energy             :  -685.8281540593935688 Eh
Relativity type    :
Basis              : AO
                                X                 Y                 Z
Electronic contribution:      2.510215322      -0.480784526      -1.169501230
Nuclear contribution   :     -1.802172161      -0.139345661       1.700901443
                        -----------------------------------------
Total Dipole Moment    :      0.708043161      -0.620130187       0.531400213
                        -----------------------------------------
Magnitude (a.u.)       :      1.080866667
Magnitude (Debye)      :      2.747344734

Rotational constants in cm-1:             0.041839             0.027754             0.023435
Rotational constants in MHz :          1254.316535           832.058478           702.565303

                             ****ORCA TERMINATED NORMALLY****
TOTAL RUN TIME: 0 days 0 hours 24 minutes 14 seconds 126 msec
