                         Program Version 6.0.1  -  RELEASE   -
|  1> ! r2scan-3c def2/J RI DEFGRID2 scfconv6 printgap
|  2> %output
|  3>     printlevel normal
|  4> end
|  5> * xyz 0 1
|  6> C -4.3916206715 -0.0003493675 -0.0009035894
|  7> C -3.6977171907 -0.5791360041 -1.0501428809
|  8> C -2.3147951106 -0.5826185789 -1.0506382739
|  9> C -1.6153239671 0.0002909002 4.3383e-05
| 10> C -2.3157344442 0.5829303919 1.0501971739
| 11> C -3.698673133 0.5788100754 1.0487486923
| 12> C -0.1380213692 0.0002496014 0.0003952728
| 13> C 0.5890385572 -1.188886181 0.0632569646
| 14> C 1.9742795345 -1.2043559923 0.065396112
| 15> C 2.656760822 -0.0002145994 -7.02947e-05
| 16> C 1.9746601446 1.2041533159 -0.0651457203
| 17> C 0.5894080737 1.1891465845 -0.0625081231
| 18> Cl -0.251714519 2.6902334602 -0.1716928057
| 19> Cl 4.3779308343 -0.0005089314 -0.0006285202
| 20> Cl -0.2525085158 -2.6897007213 0.1728696188
| 21> H -5.4714784794 -0.0007061046 -0.0012296206
| 22> H -4.2346336712 -1.030074027 -1.8714365469
| 23> H -1.7710199582 -1.0270094236 -1.8712775046
| 24> H -1.7727633545 1.0275383581 1.8712284355
| 25> H -4.2363490529 1.0295613325 1.8696716638
| 26> H 2.5083023468 -2.1388061034 0.1194610777
| 27> H 2.5090142623 2.1384184575 -0.119362379
| 28> *
| 29>
| 30>                          ****END OF INPUT****

CARTESIAN COORDINATES (ANGSTROEM)
---------------------------------
  C     -4.391621   -0.000349   -0.000904
  C     -3.697717   -0.579136   -1.050143
  C     -2.314795   -0.582619   -1.050638
  C     -1.615324    0.000291    0.000043
  C     -2.315734    0.582930    1.050197
  C     -3.698673    0.578810    1.048749
  C     -0.138021    0.000250    0.000395
  C      0.589039   -1.188886    0.063257
  C      1.974280   -1.204356    0.065396
  C      2.656761   -0.000215   -0.000070
  C      1.974660    1.204153   -0.065146
  C      0.589408    1.189147   -0.062508
  Cl    -0.251715    2.690233   -0.171693
  Cl     4.377931   -0.000509   -0.000629
  Cl    -0.252509   -2.689701    0.172870
  H     -5.471478   -0.000706   -0.001230
  H     -4.234634   -1.030074   -1.871437
  H     -1.771020   -1.027009   -1.871278
  H     -1.772763    1.027538    1.871228
  H     -4.236349    1.029561    1.869672
  H      2.508302   -2.138806    0.119461
  H      2.509014    2.138418   -0.119362

 Total Charge           Charge          ....    0
 Multiplicity           Mult            ....    1
 Number of Electrons    NEL             ....  130
 Basis Dimension        Dim             ....  344

ORBITAL ENERGIES
----------------

  NO   OCC          E(Eh)            E(eV)
   0   2.0000    -101.235356     -2754.7541
   1   2.0000    -101.232595     -2754.6790
   2   2.0000    -101.232592     -2754.6789
   3   2.0000     -10.123223      -275.4669
   4   2.0000     -10.123218      -275.4668
   5   2.0000     -10.122716      -275.4531
   6   2.0000     -10.078165      -274.2408
   7   2.0000     -10.067519      -273.9511
   8   2.0000     -10.067512      -273.9509
   9   2.0000     -10.058333      -273.7011
  10   2.0000     -10.044483      -273.3243
  11   2.0000     -10.044469      -273.3239
  12   2.0000     -10.042808      -273.2787
  13   2.0000     -10.042377      -273.2670
  14   2.0000     -10.042129      -273.2602
  15   2.0000      -9.391402      -255.5530
  16   2.0000      -9.388666      -255.4786
  17   2.0000      -9.388663      -255.4785
  18   2.0000      -7.137696      -194.2266
  19   2.0000      -7.135021      -194.1538
  20   2.0000      -7.135018      -194.1537
  21   2.0000      -7.127638      -193.9529
  22   2.0000      -7.127113      -193.9386
  23   2.0000      -7.125015      -193.8815
  24   2.0000      -7.125012      -193.8814
  25   2.0000      -7.124184      -193.8589
  26   2.0000      -7.124180      -193.8588
  27   2.0000      -0.904252       -24.6060
  28   2.0000      -0.862206       -23.4618
  29   2.0000      -0.857589       -23.3362
  30   2.0000      -0.835096       -22.7241
  31   2.0000      -0.789611       -21.4864
  32   2.0000      -0.756580       -20.5876
  33   2.0000      -0.725915       -19.7531
  34   2.0000      -0.721230       -19.6257
  35   2.0000      -0.698473       -19.0064
  36   2.0000      -0.605005       -16.4630
  37   2.0000      -0.597580       -16.2610
  38   2.0000      -0.582935       -15.8625
  39   2.0000      -0.566534       -15.4162
  40   2.0000      -0.514582       -14.0025
  41   2.0000      -0.490972       -13.3600
  42   2.0000      -0.484205       -13.1759
  43   2.0000      -0.454842       -12.3769
  44   2.0000      -0.437612       -11.9080
  45   2.0000      -0.435767       -11.8578
  46   2.0000      -0.428363       -11.6563
  47   2.0000      -0.412725       -11.2308
  48   2.0000      -0.407343       -11.0844
  49   2.0000      -0.397790       -10.8244
  50   2.0000      -0.379631       -10.3303
  51   2.0000      -0.377070       -10.2606
  52   2.0000      -0.354369        -9.6429
  53   2.0000      -0.354010        -9.6331
  54   2.0000      -0.349678        -9.5152
  55   2.0000      -0.326714        -8.8903
  56   2.0000      -0.323547        -8.8042
  57   2.0000      -0.305466        -8.3121
  58   2.0000      -0.302434        -8.2297
  59   2.0000      -0.291503        -7.9322
  60   2.0000      -0.290697        -7.9103
  61   2.0000      -0.253346        -6.8939
  62   2.0000      -0.246028        -6.6948
  63   2.0000      -0.241451        -6.5702
  64   2.0000      -0.228928        -6.2294
  65   0.0000      -0.069360        -1.8874
  66   0.0000      -0.064906        -1.7662
  67   0.0000      -0.039248        -1.0680
  68   0.0000      -0.033731        -0.9179
  69   0.0000      -0.030467        -0.8290

MULLIKEN ATOMIC CHARGES
-----------------------
   0 C :   -0.127291
   1 C :   -0.168941
   2 C :   -0.165092
   3 C :    0.099864
   4 C :   -0.165025
   5 C :   -0.168925
   6 C :    0.046774
   7 C :    0.148596
   8 C :   -0.362769
   9 C :    0.284214
  10 C :   -0.362804
  11 C :    0.148651
  12 Cl:   -0.096621
  13 Cl:   -0.120257
  14 Cl:   -0.096600
  15 H :    0.147981
  16 H :    0.146819
  17 H :    0.156167
  18 H :    0.156164
  19 H :    0.146819
  20 H :    0.176138
  21 H :    0.176139
Sum of atomic charges:    0.0000000

LOEWDIN ATOMIC CHARGES
----------------------
   0 C :   -0.158169
   1 C :   -0.158664
   2 C :   -0.141255
   3 C :   -0.094000
   4 C :   -0.141252
   5 C :   -0.158660
   6 C :   -0.095400
   7 C :   -0.137367
   8 C :   -0.183629
   9 C :   -0.161042
  10 C :   -0.183633
  11 C :   -0.137356
  12 Cl:    0.180054
  13 Cl:    0.153204
  14 Cl:    0.180077
  15 H :    0.168270
  16 H :    0.169140
  17 H :    0.176051
  18 H :    0.176045
  19 H :    0.169141
  20 H :    0.189221
  21 H :    0.189224

  Mayer bond orders larger than 0.100000
B(  0-C ,  1-C ) :   1.4188 B(  0-C ,  5-C ) :   1.4189 B(  0-C , 15-H ) :   0.9451
B(  1-C ,  2-C ) :   1.4388 B(  1-C , 16-H ) :   0.9485 B(  2-C ,  3-C ) :   1.4110
B(  2-C , 17-H ) :   0.9413 B(  3-C ,  4-C ) :   1.4110 B(  3-C ,  6-C ) :   0.7970
B(  4-C ,  5-C ) :   1.4387 B(  4-C , 18-H ) :   0.9413 B(  5-C , 19-H ) :   0.9485
B(  6-C ,  7-C ) :   1.3413 B(  6-C , 11-C ) :   1.3414 B(  7-C ,  8-C ) :   1.3435
B(  7-C , 14-Cl) :   1.0282 B(  8-C ,  9-C ) :   1.3516 B(  8-C , 20-H ) :   0.9249
B(  9-C , 10-C ) :   1.3516 B(  9-C , 13-Cl) :   0.9216 B( 10-C , 11-C ) :   1.3436
B( 10-C , 21-H ) :   0.9249 B( 11-C , 12-Cl) :   1.0281

Dispersion correction           -0.011935230
FINAL SINGLE POINT ENERGY     -1841.911054623107

DIPOLE MOMENT
-------------

Method             : SCF
Type of density    : Electron Density
Multiplicity       :   1
Irrep              :   0
Energy             : -1841.9073930259371537 Eh
Relativity type    :
Basis              : AO
                                X                 Y                 Z
Electronic contribution:     16.547371804       0.000910884       0.003368101
Nuclear contribution   :    -16.897361256      -0.001042848      -0.003498731
                        -----------------------------------------
Total Dipole Moment    :     -0.349989452      -0.000131964      -0.000130631
                        -----------------------------------------
Magnitude (a.u.)       :      0.349989501
Magnitude (Debye)      :      0.889602613

Rotational constants in cm-1:             0.024755             0.009655             0.007367
Rotational constants in MHz :           742.144856           289.438531           220.860536

                             ****ORCA TERMINATED NORMALLY****
TOTAL RUN TIME: 0 days 0 hours 0 minutes 46 seconds 81 msec
