                         Program Version 6.0.1  -  RELEASE   -
|  1> ! pbe def2-sv(p) def2/J RI DEFGRID1 loosescf d4 GCP(DFT/SV(P)) printgap
|  2> %output
|  3>     printlevel normal
|  4> end
|  5> * xyz 0 1
|  6> C -2.2378204424 -1.174174548 0.1008250433
|  7> C -0.8585272197 -0.5754758329 0.4126848419
|  8> H -0.8287854605 -0.2898908126 1.4734138205
|  9> C -0.5675839026 0.6640922557 -0.4391242096
| 10> H -0.5297016375 0.355157769 -1.4985891062
| 11> C 0.8030679931 1.2680662954 -0.0634849451
| 12> H 0.6544683416 2.0192672575 0.7201112023
| 13> C 1.74422165 0.1889955456 0.5054571032
| 14> H 2.7763328425 0.4518965668 0.2240482145
| 15> C 1.3999228751 -1.1600691422 -0.1418651818
| 16> H 2.0686855838 -1.9544664663 0.2365674394
| 17> O 0.1098685914 -1.5928437388 0.1620642865
| 18> O 1.5903028733 -1.0037208335 -1.5264951401
| 19> O 1.5941242504 0.1547743327 1.8979536176
| 20> O 1.3729203938 1.9344726224 -1.1570469219
| 21> O -1.6042928066 1.6022835265 -0.2613486428
| 22> O -3.2786911349 -0.4377903121 0.6698408078
| 23> H -2.2831916213 -2.178025525 0.5293418844
| 24> H -2.3564214774 -1.2540220639 -0.9909007412
| 25> H 1.2717649878 -1.800920881 -1.967551156
| 26> H 2.1086660989 -0.5739542954 2.2636793313
| 27> H 1.6351853933 1.266890964 -1.8057932321
| 28> H -1.3237415297 2.4333546015 -0.6627895309
| 29> H -3.1439824981 0.4899317438 0.4291034306
| 30> *
| 31>
| 32>                          ****END OF INPUT****

CARTESIAN COORDINATES (ANGSTROEM)
---------------------------------
  C     -2.237820   -1.174175    0.100825
  C     -0.858527   -0.575476    0.412685
  H     -0.828785   -0.289891    1.473414
  C     -0.567584    0.664092   -0.439124
  H     -0.529702    0.355158   -1.498589
  C      0.803068    1.268066   -0.063485
  H      0.654468    2.019267    0.720111
  C      1.744222    0.188996    0.505457
  H      2.776333    0.451897    0.224048
  C      1.399923   -1.160069   -0.141865
  H      2.068686   -1.954466    0.236567
  O      0.109869   -1.592844    0.162064
  O      1.590303   -1.003721   -1.526495
  O      1.594124    0.154774    1.897954
  O      1.372920    1.934473   -1.157047
  O     -1.604293    1.602284   -0.261349
  O     -3.278691   -0.437790    0.669841
  H     -2.283192   -2.178026    0.529342
  H     -2.356421   -1.254022   -0.990901
  H      1.271765   -1.800921   -1.967551
  H      2.108666   -0.573954    2.263679
  H      1.635185    1.266891   -1.805793
  H     -1.323742    2.433355   -0.662790
  H     -3.143982    0.489932    0.429103

 Total Charge           Charge          ....    0
 Multiplicity           Mult            ....    1
 Number of Electrons    NEL             ....   96
 Basis Dimension        Dim             ....  192

ORBITAL ENERGIES
----------------

  NO   OCC          E(Eh)            E(eV)
   0   2.0000     -18.782297      -511.0923
   1   2.0000     -18.779513      -511.0165
   2   2.0000     -18.769062      -510.7321
   3   2.0000     -18.768792      -510.7248
   4   2.0000     -18.752190      -510.2730
   5   2.0000     -18.726625      -509.5774
   6   2.0000      -9.999575      -272.1023
   7   2.0000      -9.953381      -270.8453
   8   2.0000      -9.945882      -270.6412
   9   2.0000      -9.945411      -270.6284
  10   2.0000      -9.939368      -270.4639
  11   2.0000      -9.921434      -269.9760
  12   2.0000      -0.995890       -27.0995
  13   2.0000      -0.951834       -25.9007
  14   2.0000      -0.945877       -25.7386
  15   2.0000      -0.932492       -25.3744
  16   2.0000      -0.923279       -25.1237
  17   2.0000      -0.906574       -24.6691
  18   2.0000      -0.707298       -19.2465
  19   2.0000      -0.696621       -18.9560
  20   2.0000      -0.616163       -16.7667
  21   2.0000      -0.598837       -16.2952
  22   2.0000      -0.566210       -15.4074
  23   2.0000      -0.530906       -14.4467
  24   2.0000      -0.510910       -13.9026
  25   2.0000      -0.491018       -13.3613
  26   2.0000      -0.478439       -13.0190
  27   2.0000      -0.458882       -12.4868
  28   2.0000      -0.455936       -12.4067
  29   2.0000      -0.432133       -11.7589
  30   2.0000      -0.425220       -11.5708
  31   2.0000      -0.401259       -10.9188
  32   2.0000      -0.386580       -10.5194
  33   2.0000      -0.372785       -10.1440
  34   2.0000      -0.363987        -9.9046
  35   2.0000      -0.356275        -9.6947
  36   2.0000      -0.348203        -9.4751
  37   2.0000      -0.323994        -8.8163
  38   2.0000      -0.312694        -8.5088
  39   2.0000      -0.307962        -8.3801
  40   2.0000      -0.284303        -7.7363
  41   2.0000      -0.263904        -7.1812
  42   2.0000      -0.258532        -7.0350
  43   2.0000      -0.246771        -6.7150
  44   2.0000      -0.238078        -6.4784
  45   2.0000      -0.225568        -6.1380
  46   2.0000      -0.216337        -5.8868
  47   2.0000      -0.201983        -5.4962
  48   0.0000       0.007045         0.1917
  49   0.0000       0.016357         0.4451
  50   0.0000       0.025147         0.6843
  51   0.0000       0.055042         1.4978
  52   0.0000       0.067332         1.8322

MULLIKEN ATOMIC CHARGES
-----------------------
   0 C :    0.109098
   1 C :   -0.012079
   2 H :    0.080148
   3 C :    0.081233
   4 H :    0.037314
   5 C :    0.074296
   6 H :    0.078928
   7 C :    0.015362
   8 H :    0.078054
   9 C :    0.142486
  10 H :    0.058964
  11 O :   -0.302938
  12 O :   -0.406164
  13 O :   -0.401760
  14 O :   -0.430386
  15 O :   -0.429550
  16 O :   -0.443604
  17 H :    0.085649
  18 H :    0.049757
  19 H :    0.307411
  20 H :    0.305156
  21 H :    0.305531
  22 H :    0.316349
  23 H :    0.300745
Sum of atomic charges:    0.0000000

LOEWDIN ATOMIC CHARGES
----------------------
   0 C :   -0.120877
   1 C :   -0.069257
   2 H :    0.114972
   3 C :   -0.078575
   4 H :    0.098878
   5 C :   -0.070916
   6 H :    0.125188
   7 C :   -0.087473
   8 H :    0.109482
   9 C :   -0.011361
  10 H :    0.091936
  11 O :   -0.136158
  12 O :   -0.321079
  13 O :   -0.302068
  14 O :   -0.315643
  15 O :   -0.315098
  16 O :   -0.339359
  17 H :    0.113503
  18 H :    0.090048
  19 H :    0.288454
  20 H :    0.289976
  21 H :    0.278503
  22 H :    0.294695
  23 H :    0.272230

  Mayer bond orders larger than 0.100000
B(  0-C ,  1-C ) :   1.0281 B(  0-C , 16-O ) :   1.0938 B(  0-C , 17-H ) :   0.9208
B(  0-C , 18-H ) :   0.9006 B(  1-C ,  2-H ) :   0.8739 B(  1-C ,  3-C ) :   1.0776
B(  1-C , 11-O ) :   0.9533 B(  3-C ,  4-H ) :   0.8361 B(  3-C ,  5-C ) :   1.0338
B(  3-C , 15-O ) :   1.0224 B(  5-C ,  6-H ) :   0.8546 B(  5-C ,  7-C ) :   1.0025
B(  5-C , 14-O ) :   1.0346 B(  7-C ,  8-H ) :   0.8834 B(  7-C ,  9-C ) :   1.0279
B(  7-C , 13-O ) :   1.0393 B(  9-C , 10-H ) :   0.8946 B(  9-C , 11-O ) :   1.1009
B(  9-C , 12-O ) :   1.0905 B( 12-O , 19-H ) :   0.8367 B( 13-O , 20-H ) :   0.8437
B( 14-O , 21-H ) :   0.8340 B( 15-O , 22-H ) :   0.8359 B( 16-O , 23-H ) :   0.8217

Dispersion correction           -0.025010747
FINAL SINGLE POINT ENERGY      -685.694840387711

DIPOLE MOMENT
-------------

Method             : SCF
Type of density    : Electron Density
Multiplicity       :   1
Irrep              :   0
Energy             :  -685.8276949220681900 Eh
Relativity type    :
Basis              : AO
                                X                 Y                 Z
Electronic contribution:      1.162969525       0.512616993       0.350058492
Nuclear contribution   :      0.043035617      -0.961065024      -0.987662324
                        -----------------------------------------
Total Dipole Moment    :      1.206005142      -0.448448031      -0.637603832
                        -----------------------------------------
Magnitude (a.u.)       :      1.435998846
Magnitude (Debye)      :      3.650018994

Rotational constants in cm-1:             0.042901             0.025535             0.021900
Rotational constants in MHz :          1286.149012           765.516456           656.552541

                             ****ORCA TERMINATED NORMALLY****
TOTAL RUN TIME: 0 days 0 hours 0 minutes 8 seconds 673 msec
