                         Program Version 6.0.1  -  RELEASE   -
|  1> ! r2scan-3c def2/J RI DEFGRID2 scfconv6 printgap
|  2> %output
|  3>     printlevel normal
|  4> end
|  5> * xyz 0 1
|  6> C -1.7966054407 -1.503437238 -0.0004654874
|  7> C -0.5324411913 -0.6919243535 0.0008176389
|  8> C 0.6814331211 -1.3701534233 0.0002586617
|  9> C 1.8860206367 -0.6936972855 -0.0002899637
| 10> C 1.8889864699 0.6898976698 -0.0001033245
| 11> C 0.6879948391 1.3740290433 0.0001171139
| 12> C -0.5300708636 0.7042091971 0.0003467156
| 13> C -1.8050588181 1.4972934388 -0.0001650069
| 14> H -2.685487383 -0.8828927564 0.027855593
| 15> H -1.8383756877 -2.1241661973 -0.8953223883
| 16> H -1.8123593068 -2.1680056475 0.8628865668
| 17> H 0.6740489544 -2.4514510358 0.0005380976
| 18> H 2.816419185 -1.2424246255 -0.0007435256
| 19> H 2.8219151159 1.2343080661 -0.0004639076
| 20> H 0.6931015042 2.4552794979 -0.0003081033
| 21> H -1.5876879503 2.5626691313 -0.0034298436
| 22> H -2.4035990251 1.2686041906 -0.8813938157
| 23> H -2.4011502085 1.2739916965 0.8842280856
| 24> *
| 25>
| 26>                          ****END OF INPUT****

CARTESIAN COORDINATES (ANGSTROEM)
---------------------------------
  C     -1.796605   -1.503437   -0.000465
  C     -0.532441   -0.691924    0.000818
  C      0.681433   -1.370153    0.000259
  C      1.886021   -0.693697   -0.000290
  C      1.888986    0.689898   -0.000103
  C      0.687995    1.374029    0.000117
  C     -0.530071    0.704209    0.000347
  C     -1.805059    1.497293   -0.000165
  H     -2.685487   -0.882893    0.027856
  H     -1.838376   -2.124166   -0.895322
  H     -1.812359   -2.168006    0.862887
  H      0.674049   -2.451451    0.000538
  H      2.816419   -1.242425   -0.000744
  H      2.821915    1.234308   -0.000464
  H      0.693102    2.455279   -0.000308
  H     -1.587688    2.562669   -0.003430
  H     -2.403599    1.268604   -0.881394
  H     -2.401150    1.273992    0.884228

 Total Charge           Charge          ....    0
 Multiplicity           Mult            ....    1
 Number of Electrons    NEL             ....   58
 Basis Dimension        Dim             ....  202

ORBITAL ENERGIES
----------------

  NO   OCC          E(Eh)            E(eV)
   0   2.0000     -10.037399      -273.1315
   1   2.0000     -10.036912      -273.1183
   2   2.0000     -10.026394      -272.8320
   3   2.0000     -10.026359      -272.8311
   4   2.0000     -10.025772      -272.8151
   5   2.0000     -10.025583      -272.8100
   6   2.0000     -10.025302      -272.8023
   7   2.0000     -10.025244      -272.8008
   8   2.0000      -0.826903       -22.5012
   9   2.0000      -0.743686       -20.2367
  10   2.0000      -0.730747       -19.8846
  11   2.0000      -0.664290       -18.0763
  12   2.0000      -0.639431       -17.3998
  13   2.0000      -0.563438       -15.3319
  14   2.0000      -0.539123       -14.6703
  15   2.0000      -0.467657       -12.7256
  16   2.0000      -0.440221       -11.9790
  17   2.0000      -0.411931       -11.2092
  18   2.0000      -0.403021       -10.9668
  19   2.0000      -0.377867       -10.2823
  20   2.0000      -0.376713       -10.2509
  21   2.0000      -0.369898       -10.0654
  22   2.0000      -0.355075        -9.6621
  23   2.0000      -0.352251        -9.5852
  24   2.0000      -0.322177        -8.7669
  25   2.0000      -0.301708        -8.2099
  26   2.0000      -0.299162        -8.1406
  27   2.0000      -0.225611        -6.1392
  28   2.0000      -0.216915        -5.9026
  29   0.0000      -0.026851        -0.7307
  30   0.0000      -0.020090        -0.5467
  31   0.0000       0.085616         2.3297
  32   0.0000       0.098552         2.6817
  33   0.0000       0.101848         2.7714

MULLIKEN ATOMIC CHARGES
-----------------------
   0 C :   -0.559188
   1 C :    0.170215
   2 C :   -0.194457
   3 C :   -0.161102
   4 C :   -0.160962
   5 C :   -0.213114
   6 C :    0.156522
   7 C :   -0.584331
   8 H :    0.156537
   9 H :    0.165486
  10 H :    0.163440
  11 H :    0.144756
  12 H :    0.144068
  13 H :    0.144011
  14 H :    0.144119
  15 H :    0.149513
  16 H :    0.167279
  17 H :    0.167206
Sum of atomic charges:   -0.0000000

LOEWDIN ATOMIC CHARGES
----------------------
   0 C :   -0.391112
   1 C :   -0.094992
   2 C :   -0.160687
   3 C :   -0.169999
   4 C :   -0.171277
   5 C :   -0.164788
   6 C :   -0.096659
   7 C :   -0.394149
   8 H :    0.160415
   9 H :    0.166398
  10 H :    0.166023
  11 H :    0.167830
  12 H :    0.165816
  13 H :    0.165920
  14 H :    0.166122
  15 H :    0.159301
  16 H :    0.162956
  17 H :    0.162883

  Mayer bond orders larger than 0.100000
B(  0-C ,  1-C ) :   0.7856 B(  0-C ,  8-H ) :   0.9811 B(  0-C ,  9-H ) :   0.9814
B(  0-C , 10-H ) :   0.9831 B(  1-C ,  2-C ) :   1.3772 B(  1-C ,  6-C ) :   1.4816
B(  2-C ,  3-C ) :   1.4424 B(  2-C , 11-H ) :   0.9417 B(  3-C ,  4-C ) :   1.4235
B(  3-C , 12-H ) :   0.9487 B(  4-C ,  5-C ) :   1.4557 B(  4-C , 13-H ) :   0.9476
B(  5-C ,  6-C ) :   1.4012 B(  5-C , 14-H ) :   0.9289 B(  6-C ,  7-C ) :   0.7736
B(  7-C , 15-H ) :   0.9877 B(  7-C , 16-H ) :   0.9811 B(  7-C , 17-H ) :   0.9818

Dispersion correction           -0.005762534
FINAL SINGLE POINT ENERGY      -310.781889950758

DIPOLE MOMENT
-------------

Method             : SCF
Type of density    : Electron Density
Multiplicity       :   1
Irrep              :   0
Energy             :  -310.7821516285753773 Eh
Relativity type    :
Basis              : AO
                                X                 Y                 Z
Electronic contribution:      5.091886649       0.033917646       0.004005456
Nuclear contribution   :     -5.369297052      -0.069506659      -0.005772771
                        -----------------------------------------
Total Dipole Moment    :     -0.277410403      -0.035589014      -0.001767315
                        -----------------------------------------
Magnitude (a.u.)       :      0.279689530
Magnitude (Debye)      :      0.710914287

Rotational constants in cm-1:             0.104829             0.073362             0.043862
Rotational constants in MHz :          3142.702168          2199.337135          1314.939784

                             ****ORCA TERMINATED NORMALLY****
TOTAL RUN TIME: 0 days 0 hours 0 minutes 17 seconds 964 msec
