                         Program Version 6.0.1  -  RELEASE   -
|  1> ! r2scan-3c def2/J RI DEFGRID2 scfconv6 printgap
|  2> %output
|  3>     printlevel normal
|  4> end
|  5> * xyz 0 1
|  6> C -2.2226628929 -0.7052186596 1.1352288617
|  7> C -1.7853354717 0.0043708646 -0.1205800984
|  8> O -2.5740389409 0.5416010825 -0.8585576711
|  9> C -0.2944875397 0.0391800737 -0.4042021842
| 10> C 0.440254118 -1.2670782628 -0.1022148592
| 11> C 1.9163556578 -1.1285404173 -0.467015461
| 12> C 2.5538244048 0.0150233846 0.3165841408
| 13> C 1.8154002664 1.3228617875 0.047747588
| 14> C 0.3368139096 1.1872103263 0.3991666494
| 15> H -3.2650935742 -0.4762942968 1.3411716944
| 16> H -2.121132534 -1.7790319859 0.9897223579
| 17> H -1.6060846187 -0.4141926777 1.9810907316
| 18> H -0.1813494498 0.2749598326 -1.4684908304
| 19> H 0.3606440283 -1.5065092755 0.9595261782
| 20> H -0.0070322475 -2.0845973633 -0.6720407993
| 21> H 2.4381970274 -2.0633284182 -0.2519357672
| 22> H 2.0102665438 -0.9319745803 -1.5372919625
| 23> H 2.5137162435 -0.2113585453 1.3848381518
| 24> H 3.6040463376 0.1176556175 0.0367592094
| 25> H 2.258616243 2.1290121052 0.6359733331
| 26> H 1.9144510285 1.5851819931 -1.0076980135
| 27> H 0.2364631687 0.9861217914 1.4682877219
| 28> H -0.1878865705 2.1190254896 0.1791594294
| 29> *
| 30>
| 31>                          ****END OF INPUT****

CARTESIAN COORDINATES (ANGSTROEM)
---------------------------------
  C     -2.222663   -0.705219    1.135229
  C     -1.785335    0.004371   -0.120580
  O     -2.574039    0.541601   -0.858558
  C     -0.294488    0.039180   -0.404202
  C      0.440254   -1.267078   -0.102215
  C      1.916356   -1.128540   -0.467015
  C      2.553824    0.015023    0.316584
  C      1.815400    1.322862    0.047748
  C      0.336814    1.187210    0.399167
  H     -3.265094   -0.476294    1.341172
  H     -2.121133   -1.779032    0.989722
  H     -1.606085   -0.414193    1.981091
  H     -0.181349    0.274960   -1.468491
  H      0.360644   -1.506509    0.959526
  H     -0.007032   -2.084597   -0.672041
  H      2.438197   -2.063328   -0.251936
  H      2.010267   -0.931975   -1.537292
  H      2.513716   -0.211359    1.384838
  H      3.604046    0.117656    0.036759
  H      2.258616    2.129012    0.635973
  H      1.914451    1.585182   -1.007698
  H      0.236463    0.986122    1.468288
  H     -0.187887    2.119025    0.179159

 Total Charge           Charge          ....    0
 Multiplicity           Mult            ....    1
 Number of Electrons    NEL             ....   70
 Basis Dimension        Dim             ....  246

ORBITAL ENERGIES
----------------

  NO   OCC          E(Eh)            E(eV)
   0   2.0000     -18.933164      -515.1976
   1   2.0000     -10.113038      -275.1898
   2   2.0000     -10.039649      -273.1927
   3   2.0000     -10.036999      -273.1206
   4   2.0000     -10.035655      -273.0841
   5   2.0000     -10.031724      -272.9771
   6   2.0000     -10.031497      -272.9709
   7   2.0000     -10.031271      -272.9648
   8   2.0000     -10.029796      -272.9246
   9   2.0000      -1.004330       -27.3292
  10   2.0000      -0.814096       -22.1527
  11   2.0000      -0.739175       -20.1140
  12   2.0000      -0.718659       -19.5557
  13   2.0000      -0.696203       -18.9447
  14   2.0000      -0.598793       -16.2940
  15   2.0000      -0.584426       -15.9031
  16   2.0000      -0.534581       -14.5467
  17   2.0000      -0.500898       -13.6301
  18   2.0000      -0.454981       -12.3807
  19   2.0000      -0.431334       -11.7372
  20   2.0000      -0.422599       -11.4995
  21   2.0000      -0.421221       -11.4620
  22   2.0000      -0.411618       -11.2007
  23   2.0000      -0.392166       -10.6714
  24   2.0000      -0.376736       -10.2515
  25   2.0000      -0.358500        -9.7553
  26   2.0000      -0.356505        -9.7010
  27   2.0000      -0.349685        -9.5154
  28   2.0000      -0.328933        -8.9507
  29   2.0000      -0.320124        -8.7110
  30   2.0000      -0.313358        -8.5269
  31   2.0000      -0.299953        -8.1621
  32   2.0000      -0.289655        -7.8819
  33   2.0000      -0.275293        -7.4911
  34   2.0000      -0.205977        -5.6049
  35   0.0000      -0.040235        -1.0949
  36   0.0000       0.071626         1.9490
  37   0.0000       0.092065         2.5052
  38   0.0000       0.105518         2.8713
  39   0.0000       0.109954         2.9920

MULLIKEN ATOMIC CHARGES
-----------------------
   0 C :   -0.528666
   1 C :    0.262205
   2 O :   -0.333815
   3 C :   -0.090809
   4 C :   -0.327642
   5 C :   -0.286803
   6 C :   -0.282756
   7 C :   -0.289445
   8 C :   -0.334947
   9 H :    0.177311
  10 H :    0.171540
  11 H :    0.165949
  12 H :    0.188880
  13 H :    0.153293
  14 H :    0.155335
  15 H :    0.147765
  16 H :    0.150297
  17 H :    0.140595
  18 H :    0.149151
  19 H :    0.148852
  20 H :    0.151570
  21 H :    0.152409
  22 H :    0.159732
Sum of atomic charges:   -0.0000000

LOEWDIN ATOMIC CHARGES
----------------------
   0 C :   -0.388552
   1 C :    0.222376
   2 O :   -0.455613
   3 C :   -0.203294
   4 C :   -0.287941
   5 C :   -0.299284
   6 C :   -0.304049
   7 C :   -0.298279
   8 C :   -0.273794
   9 H :    0.174746
  10 H :    0.177766
  11 H :    0.167410
  12 H :    0.183339
  13 H :    0.160422
  14 H :    0.161210
  15 H :    0.156254
  16 H :    0.157491
  17 H :    0.154310
  18 H :    0.156481
  19 H :    0.157077
  20 H :    0.157594
  21 H :    0.157567
  22 H :    0.166762

  Mayer bond orders larger than 0.100000
B(  0-C ,  1-C ) :   0.8924 B(  0-C ,  9-H ) :   0.9730 B(  0-C , 10-H ) :   0.9372
B(  0-C , 11-H ) :   0.9645 B(  1-C ,  2-O ) :   2.0003 B(  1-C ,  3-C ) :   0.8702
B(  3-C ,  4-C ) :   0.8818 B(  3-C ,  8-C ) :   0.9306 B(  3-C , 12-H ) :   0.9771
B(  4-C ,  5-C ) :   0.9024 B(  4-C , 13-H ) :   0.9808 B(  4-C , 14-H ) :   0.9443
B(  5-C ,  6-C ) :   0.9208 B(  5-C , 15-H ) :   0.9422 B(  5-C , 16-H ) :   0.9928
B(  6-C ,  7-C ) :   0.9190 B(  6-C , 17-H ) :   0.9900 B(  6-C , 18-H ) :   0.9462
B(  7-C ,  8-C ) :   0.8883 B(  7-C , 19-H ) :   0.9414 B(  7-C , 20-H ) :   0.9964
B(  8-C , 21-H ) :   0.9983 B(  8-C , 22-H ) :   0.9325

Dispersion correction           -0.007401197
FINAL SINGLE POINT ENERGY      -388.407377481886

DIPOLE MOMENT
-------------

Method             : SCF
Type of density    : Electron Density
Multiplicity       :   1
Irrep              :   0
Energy             :  -388.4097750953167747 Eh
Relativity type    :
Basis              : AO
                                X                 Y                 Z
Electronic contribution:     -6.496594131       1.639904828      -3.091381964
Nuclear contribution   :      7.436963810      -2.107841739       3.776586231
                        -----------------------------------------
Total Dipole Moment    :      0.940369678      -0.467936911       0.685204266
                        -----------------------------------------
Magnitude (a.u.)       :      1.254099267
Magnitude (Debye)      :      3.187667008

Rotational constants in cm-1:             0.102187             0.035092             0.031307
Rotational constants in MHz :          3063.484631          1052.040042           938.555459

                             ****ORCA TERMINATED NORMALLY****
TOTAL RUN TIME: 0 days 0 hours 0 minutes 30 seconds 217 msec
