                         Program Version 6.0.1  -  RELEASE   -
|  1> ! r2scan-3c def2/J RI DEFGRID2 scfconv6 printgap
|  2> %output
|  3>     printlevel normal
|  4> end
|  5> * xyz 0 1
|  6> C -2.1181480511 -0.923497333 -0.275246371
|  7> C -1.1596801284 -0.3432440376 0.7844586072
|  8> H -1.7009325835 -0.3513811801 1.7387609325
|  9> C -0.7588743149 1.1206155644 0.5310192928
| 10> H -1.6348906063 1.6452992877 0.1189950008
| 11> C 0.4160803319 1.2891321986 -0.4554054689
| 12> H 0.8469045189 2.2904956536 -0.298151169
| 13> C 1.5449887114 0.2971845325 -0.0871139191
| 14> H 2.2668953307 0.2568847164 -0.9079872236
| 15> C 1.0530119548 -1.135171606 0.1878623165
| 16> H 1.8499030176 -1.6447943286 0.7500016368
| 17> O -0.051281598 -1.1968453963 1.0438039635
| 18> O 0.8228811169 -1.8141246985 -1.0270220098
| 19> O 2.2312185567 0.7606282124 1.0469089812
| 20> O 0.0282082422 1.2663296357 -1.7921681937
| 21> O -0.4192407619 1.6532590307 1.7990338353
| 22> O -1.6511655 -0.8822149 -1.598207232
| 23> H -3.0458465291 -0.3470994357 -0.2608319071
| 24> H -2.3436444628 -1.9579644817 0.0175873166
| 25> H 0.7541347508 -2.7601341443 -0.8496181514
| 26> H 1.5866440363 0.8428589652 1.7676181656
| 27> H -0.6160788094 0.5469964062 -1.9391918721
| 28> H -0.2236902055 2.5930196607 1.7047750675
| 29> H -0.8018428777 -1.3683977688 -1.6359263568
| 30> *
| 31>
| 32>                          ****END OF INPUT****

CARTESIAN COORDINATES (ANGSTROEM)
---------------------------------
  C     -2.118148   -0.923497   -0.275246
  C     -1.159680   -0.343244    0.784459
  H     -1.700933   -0.351381    1.738761
  C     -0.758874    1.120616    0.531019
  H     -1.634891    1.645299    0.118995
  C      0.416080    1.289132   -0.455405
  H      0.846905    2.290496   -0.298151
  C      1.544989    0.297185   -0.087114
  H      2.266895    0.256885   -0.907987
  C      1.053012   -1.135172    0.187862
  H      1.849903   -1.644794    0.750002
  O     -0.051282   -1.196845    1.043804
  O      0.822881   -1.814125   -1.027022
  O      2.231219    0.760628    1.046909
  O      0.028208    1.266330   -1.792168
  O     -0.419241    1.653259    1.799034
  O     -1.651165   -0.882215   -1.598207
  H     -3.045847   -0.347099   -0.260832
  H     -2.343644   -1.957964    0.017587
  H      0.754135   -2.760134   -0.849618
  H      1.586644    0.842859    1.767618
  H     -0.616079    0.546996   -1.939192
  H     -0.223690    2.593020    1.704775
  H     -0.801843   -1.368398   -1.635926

 Total Charge           Charge          ....    0
 Multiplicity           Mult            ....    1
 Number of Electrons    NEL             ....   96
 Basis Dimension        Dim             ....  318

ORBITAL ENERGIES
----------------

  NO   OCC          E(Eh)            E(eV)
   0   2.0000     -18.993300      -516.8340
   1   2.0000     -18.979850      -516.4680
   2   2.0000     -18.975694      -516.3549
   3   2.0000     -18.963673      -516.0278
   4   2.0000     -18.951118      -515.6861
   5   2.0000     -18.938727      -515.3490
   6   2.0000     -10.147007      -276.1141
   7   2.0000     -10.102384      -274.8998
   8   2.0000     -10.102013      -274.8898
   9   2.0000     -10.093301      -274.6527
  10   2.0000     -10.089369      -274.5457
  11   2.0000     -10.088563      -274.5238
  12   2.0000      -1.064087       -28.9553
  13   2.0000      -1.019359       -27.7382
  14   2.0000      -1.005621       -27.3644
  15   2.0000      -0.997609       -27.1463
  16   2.0000      -0.993751       -27.0413
  17   2.0000      -0.980215       -26.6730
  18   2.0000      -0.758574       -20.6419
  19   2.0000      -0.732352       -19.9283
  20   2.0000      -0.670065       -18.2334
  21   2.0000      -0.632346       -17.2070
  22   2.0000      -0.618329       -16.8256
  23   2.0000      -0.554173       -15.0798
  24   2.0000      -0.518233       -14.1018
  25   2.0000      -0.515534       -14.0284
  26   2.0000      -0.503848       -13.7104
  27   2.0000      -0.493299       -13.4233
  28   2.0000      -0.475614       -12.9421
  29   2.0000      -0.460937       -12.5427
  30   2.0000      -0.448296       -12.1987
  31   2.0000      -0.426930       -11.6174
  32   2.0000      -0.406973       -11.0743
  33   2.0000      -0.399402       -10.8683
  34   2.0000      -0.388094       -10.5606
  35   2.0000      -0.381184       -10.3726
  36   2.0000      -0.364020        -9.9055
  37   2.0000      -0.352960        -9.6045
  38   2.0000      -0.339467        -9.2374
  39   2.0000      -0.329624        -8.9695
  40   2.0000      -0.304357        -8.2820
  41   2.0000      -0.301332        -8.1997
  42   2.0000      -0.286619        -7.7993
  43   2.0000      -0.275585        -7.4990
  44   2.0000      -0.266112        -7.2413
  45   2.0000      -0.252695        -6.8762
  46   2.0000      -0.242360        -6.5950
  47   2.0000      -0.217285        -5.9126
  48   0.0000       0.023297         0.6340
  49   0.0000       0.038154         1.0382
  50   0.0000       0.059546         1.6203
  51   0.0000       0.072371         1.9693
  52   0.0000       0.083965         2.2848

MULLIKEN ATOMIC CHARGES
-----------------------
   0 C :   -0.250415
   1 C :    0.019799
   2 H :    0.165606
   3 C :   -0.070283
   4 H :    0.161831
   5 C :   -0.137087
   6 H :    0.165198
   7 C :    0.041697
   8 H :    0.160341
   9 C :   -0.074507
  10 H :    0.143810
  11 O :   -0.177362
  12 O :   -0.417002
  13 O :   -0.421476
  14 O :   -0.397809
  15 O :   -0.431444
  16 O :   -0.466177
  17 H :    0.148560
  18 H :    0.148623
  19 H :    0.317888
  20 H :    0.335321
  21 H :    0.359770
  22 H :    0.300754
  23 H :    0.374365
Sum of atomic charges:    0.0000000

LOEWDIN ATOMIC CHARGES
----------------------
   0 C :    0.025676
   1 C :    0.108420
   2 H :    0.213605
   3 C :    0.112422
   4 H :    0.186599
   5 C :    0.105842
   6 H :    0.199107
   7 C :    0.124130
   8 H :    0.206118
   9 C :    0.293691
  10 H :    0.210198
  11 O :   -0.648733
  12 O :   -0.529876
  13 O :   -0.573421
  14 O :   -0.574615
  15 O :   -0.596534
  16 O :   -0.617893
  17 H :    0.185522
  18 H :    0.173053
  19 H :    0.276715
  20 H :    0.282543
  21 H :    0.282089
  22 H :    0.272964
  23 H :    0.282379

  Mayer bond orders larger than 0.100000
B(  0-C ,  1-C ) :   0.8932 B(  0-C , 16-O ) :   0.9927 B(  0-C , 17-H ) :   0.9769
B(  0-C , 18-H ) :   0.9812 B(  1-C ,  2-H ) :   0.9404 B(  1-C ,  3-C ) :   0.8653
B(  1-C , 11-O ) :   0.9234 B(  3-C ,  4-H ) :   0.9684 B(  3-C ,  5-C ) :   0.8143
B(  3-C , 15-O ) :   0.9083 B(  5-C ,  6-H ) :   1.0319 B(  5-C ,  7-C ) :   0.8176
B(  5-C , 14-O ) :   1.0263 B(  7-C ,  8-H ) :   0.9423 B(  7-C ,  9-C ) :   0.9414
B(  7-C , 13-O ) :   0.9799 B(  9-C , 10-H ) :   0.9649 B(  9-C , 11-O ) :   0.9869
B(  9-C , 12-O ) :   0.9117 B( 12-O , 19-H ) :   0.8872 B( 13-O , 20-H ) :   0.8384
B( 14-O , 21-H ) :   0.7885 B( 15-O , 22-H ) :   0.8963 B( 16-O , 23-H ) :   0.7886

Dispersion correction           -0.008864835
FINAL SINGLE POINT ENERGY      -687.075911646899

DIPOLE MOMENT
-------------

Method             : SCF
Type of density    : Electron Density
Multiplicity       :   1
Irrep              :   0
Energy             :  -687.0897199746234492 Eh
Relativity type    :
Basis              : AO
                                X                 Y                 Z
Electronic contribution:      2.329260520      -0.312304321       0.364240499
Nuclear contribution   :     -2.858862745      -0.241653478       0.185475664
                        -----------------------------------------
Total Dipole Moment    :     -0.529602226      -0.553957799       0.549716164
                        -----------------------------------------
Magnitude (a.u.)       :      0.943151961
Magnitude (Debye)      :      2.397301767

Rotational constants in cm-1:             0.039424             0.031462             0.028002
Rotational constants in MHz :          1181.896032           943.210755           839.492061

                             ****ORCA TERMINATED NORMALLY****
TOTAL RUN TIME: 0 days 0 hours 0 minutes 41 seconds 462 msec
