                         Program Version 6.0.1  -  RELEASE   -
|  1> ! r2scan-3c def2/J RI DEFGRID2 scfconv6 printgap
|  2> %output
|  3>     printlevel normal
|  4> end
|  5> * xyz 0 1
|  6> C 1.8190150943 -0.2655503233 0.1495353401
|  7> C 0.5719152768 0.5692158894 -0.1217510433
|  8> C -0.6596155102 -0.2794683936 -0.2402254521
|  9> O -1.7410237926 -0.0036951764 0.1952367205
| 10> H 1.9597971964 -1.010080561 -0.6310207565
| 11> H 1.7333357468 -0.7786055198 1.1044483004
| 12> H 2.6991011425 0.371475744 0.1802283192
| 13> H 0.4213229633 1.3207078815 0.6548919185
| 14> H 0.6838672103 1.0904056945 -1.0779738833
| 15> H -0.4922518477 -1.2236002654 -0.7981298752
| 16> *
| 17>
| 18>                          ****END OF INPUT****

CARTESIAN COORDINATES (ANGSTROEM)
---------------------------------
  C      1.819015   -0.265550    0.149535
  C      0.571915    0.569216   -0.121751
  C     -0.659616   -0.279468   -0.240225
  O     -1.741024   -0.003695    0.195237
  H      1.959797   -1.010081   -0.631021
  H      1.733336   -0.778606    1.104448
  H      2.699101    0.371476    0.180228
  H      0.421323    1.320708    0.654892
  H      0.683867    1.090406   -1.077974
  H     -0.492252   -1.223600   -0.798130

 Total Charge           Charge          ....    0
 Multiplicity           Mult            ....    1
 Number of Electrons    NEL             ....   32
 Basis Dimension        Dim             ....  111

ORBITAL ENERGIES
----------------

  NO   OCC          E(Eh)            E(eV)
   0   2.0000     -18.952029      -515.7109
   1   2.0000     -10.120341      -275.3885
   2   2.0000     -10.046761      -273.3863
   3   2.0000     -10.039464      -273.1877
   4   2.0000      -1.019796       -27.7500
   5   2.0000      -0.763685       -20.7809
   6   2.0000      -0.632355       -17.2073
   7   2.0000      -0.547477       -14.8976
   8   2.0000      -0.451555       -12.2874
   9   2.0000      -0.424662       -11.5557
  10   2.0000      -0.419015       -11.4020
  11   2.0000      -0.377694       -10.2776
  12   2.0000      -0.358504        -9.7554
  13   2.0000      -0.343638        -9.3509
  14   2.0000      -0.327101        -8.9009
  15   2.0000      -0.222615        -6.0577
  16   0.0000      -0.058612        -1.5949
  17   0.0000       0.097564         2.6548
  18   0.0000       0.109405         2.9771
  19   0.0000       0.121283         3.3003
  20   0.0000       0.146415         3.9842

MULLIKEN ATOMIC CHARGES
-----------------------
   0 C :   -0.463340
   1 C :   -0.207764
   2 C :    0.143279
   3 O :   -0.333422
   4 H :    0.145044
   5 H :    0.150178
   6 H :    0.154051
   7 H :    0.164536
   8 H :    0.155751
   9 H :    0.091686
Sum of atomic charges:    0.0000000

LOEWDIN ATOMIC CHARGES
----------------------
   0 C :   -0.415317
   1 C :   -0.306727
   2 C :    0.199123
   3 O :   -0.439790
   4 H :    0.153127
   5 H :    0.155456
   6 H :    0.156704
   7 H :    0.172860
   8 H :    0.177222
   9 H :    0.147341

  Mayer bond orders larger than 0.100000
B(  0-C ,  1-C ) :   0.8932 B(  0-C ,  4-H ) :   0.9733 B(  0-C ,  5-H ) :   0.9761
B(  0-C ,  6-H ) :   0.9670 B(  1-C ,  2-C ) :   0.9204 B(  1-C ,  7-H ) :   0.9592
B(  1-C ,  8-H ) :   0.9346 B(  2-C ,  3-O ) :   1.9162 B(  2-C ,  9-H ) :   0.9591

Dispersion correction           -0.001698108
FINAL SINGLE POINT ENERGY      -193.091904904500

DIPOLE MOMENT
-------------

Method             : SCF
Type of density    : Electron Density
Multiplicity       :   1
Irrep              :   0
Energy             :  -193.0948636401456042 Eh
Relativity type    :
Basis              : AO
                                X                 Y                 Z
Electronic contribution:     -5.445828203       0.160391256       0.213671295
Nuclear contribution   :      6.546203285      -0.215548894      -0.529567115
                        -----------------------------------------
Total Dipole Moment    :      1.100375082      -0.055157638      -0.315895819
                        -----------------------------------------
Magnitude (a.u.)       :      1.146149142
Magnitude (Debye)      :      2.913279596

Rotational constants in cm-1:             0.958886             0.142632             0.135455
Rotational constants in MHz :         28746.683139          4276.014171          4060.845297

                             ****ORCA TERMINATED NORMALLY****
TOTAL RUN TIME: 0 days 0 hours 0 minutes 13 seconds 350 msec
