                         Program Version 6.0.1  -  RELEASE   -
|  1> ! pbe def2-sv(p) def2/J RI DEFGRID1 loosescf d4 GCP(DFT/SV(P)) printgap
|  2> %output
|  3>     printlevel normal
|  4> end
|  5> * xyz 0 1
|  6> C -2.1852760355 -0.9372600188 -0.1453236855
|  7> C -1.1153543593 -0.3466977466 0.790586347
|  8> H -1.5787126815 -0.3059035271 1.7859352179
|  9> C -0.7322565858 1.1050405012 0.4485121031
| 10> H -1.5881274945 1.5751106397 -0.060135111
| 11> C 0.5002196196 1.2479366387 -0.4762059925
| 12> H 0.8625456984 2.2830450439 -0.3879998767
| 13> C 1.6242337452 0.3160470668 0.0180426375
| 14> H 2.4432587141 0.3232212592 -0.7068291556
| 15> C 1.0919692008 -1.122780474 0.1266065556
| 16> H 1.8498451749 -1.7453722621 0.6333197531
| 17> O -0.0162270918 -1.2215544751 0.982596018
| 18> O 0.8440518206 -1.595147602 -1.1624001684
| 19> O 2.1509259487 0.7455640402 1.2426500523
| 20> O 0.1875882471 1.0743727814 -1.8213855891
| 21> O -0.4991216719 1.7386862479 1.6941445703
| 22> O -1.7685846909 -0.9280879037 -1.4911184171
| 23> H -3.1003590394 -0.3453586946 -0.0171883429
| 24> H -2.3836912778 -1.9665386009 0.1865672072
| 25> H 0.3494802826 -2.4209134934 -1.1048870295
| 26> H 1.4256883057 0.7724345244 1.8861243129
| 27> H -0.0720464504 0.1478692206 -1.9576266725
| 28> H -0.2290629484 2.6517361522 1.5388281358
| 29> H -2.5140179263 -1.1397418829 -2.0611315004
| 30> *
| 31>
| 32>                          ****END OF INPUT****

CARTESIAN COORDINATES (ANGSTROEM)
---------------------------------
  C     -2.185276   -0.937260   -0.145324
  C     -1.115354   -0.346698    0.790586
  H     -1.578713   -0.305904    1.785935
  C     -0.732257    1.105041    0.448512
  H     -1.588127    1.575111   -0.060135
  C      0.500220    1.247937   -0.476206
  H      0.862546    2.283045   -0.388000
  C      1.624234    0.316047    0.018043
  H      2.443259    0.323221   -0.706829
  C      1.091969   -1.122780    0.126607
  H      1.849845   -1.745372    0.633320
  O     -0.016227   -1.221554    0.982596
  O      0.844052   -1.595148   -1.162400
  O      2.150926    0.745564    1.242650
  O      0.187588    1.074373   -1.821386
  O     -0.499122    1.738686    1.694145
  O     -1.768585   -0.928088   -1.491118
  H     -3.100359   -0.345359   -0.017188
  H     -2.383691   -1.966539    0.186567
  H      0.349480   -2.420913   -1.104887
  H      1.425688    0.772435    1.886124
  H     -0.072046    0.147869   -1.957627
  H     -0.229063    2.651736    1.538828
  H     -2.514018   -1.139742   -2.061132

 Total Charge           Charge          ....    0
 Multiplicity           Mult            ....    1
 Number of Electrons    NEL             ....   96
 Basis Dimension        Dim             ....  192

ORBITAL ENERGIES
----------------

  NO   OCC          E(Eh)            E(eV)
   0   2.0000     -18.773062      -510.8410
   1   2.0000     -18.771085      -510.7872
   2   2.0000     -18.766325      -510.6577
   3   2.0000     -18.761827      -510.5353
   4   2.0000     -18.736347      -509.8419
   5   2.0000     -18.726084      -509.5626
   6   2.0000      -9.979753      -271.5629
   7   2.0000      -9.954018      -270.8626
   8   2.0000      -9.950396      -270.7640
   9   2.0000      -9.946888      -270.6686
  10   2.0000      -9.933880      -270.3146
  11   2.0000      -9.929010      -270.1821
  12   2.0000      -0.984177       -26.7808
  13   2.0000      -0.947366       -25.7791
  14   2.0000      -0.944300       -25.6957
  15   2.0000      -0.916876       -24.9495
  16   2.0000      -0.915630       -24.9156
  17   2.0000      -0.905394       -24.6370
  18   2.0000      -0.710446       -19.3322
  19   2.0000      -0.677513       -18.4361
  20   2.0000      -0.626883       -17.0584
  21   2.0000      -0.587096       -15.9757
  22   2.0000      -0.577001       -15.7010
  23   2.0000      -0.515409       -14.0250
  24   2.0000      -0.507524       -13.8104
  25   2.0000      -0.483291       -13.1510
  26   2.0000      -0.473997       -12.8981
  27   2.0000      -0.463507       -12.6127
  28   2.0000      -0.438946       -11.9443
  29   2.0000      -0.430095       -11.7035
  30   2.0000      -0.415080       -11.2949
  31   2.0000      -0.407340       -11.0843
  32   2.0000      -0.381490       -10.3809
  33   2.0000      -0.373748       -10.1702
  34   2.0000      -0.361370        -9.8334
  35   2.0000      -0.350661        -9.5420
  36   2.0000      -0.335876        -9.1397
  37   2.0000      -0.321464        -8.7475
  38   2.0000      -0.312012        -8.4903
  39   2.0000      -0.301257        -8.1976
  40   2.0000      -0.267268        -7.2727
  41   2.0000      -0.266022        -7.2388
  42   2.0000      -0.248766        -6.7693
  43   2.0000      -0.241558        -6.5731
  44   2.0000      -0.237422        -6.4606
  45   2.0000      -0.231221        -6.2918
  46   2.0000      -0.216863        -5.9011
  47   2.0000      -0.185579        -5.0499
  48   0.0000       0.003208         0.0873
  49   0.0000       0.019276         0.5245
  50   0.0000       0.042919         1.1679
  51   0.0000       0.056355         1.5335
  52   0.0000       0.059754         1.6260

MULLIKEN ATOMIC CHARGES
-----------------------
   0 C :    0.007558
   1 C :    0.072750
   2 H :    0.089002
   3 C :   -0.002012
   4 H :    0.072264
   5 C :    0.048263
   6 H :    0.058212
   7 C :    0.059795
   8 H :    0.085575
   9 C :    0.166731
  10 H :    0.068407
  11 O :   -0.315693
  12 O :   -0.393849
  13 O :   -0.428187
  14 O :   -0.428538
  15 O :   -0.418593
  16 O :   -0.432174
  17 H :    0.081984
  18 H :    0.081291
  19 H :    0.298173
  20 H :    0.293315
  21 H :    0.320199
  22 H :    0.305342
  23 H :    0.310184
Sum of atomic charges:   -0.0000000

LOEWDIN ATOMIC CHARGES
----------------------
   0 C :   -0.135573
   1 C :   -0.061773
   2 H :    0.130979
   3 C :   -0.075292
   4 H :    0.107410
   5 C :   -0.079962
   6 H :    0.107594
   7 C :   -0.083164
   8 H :    0.124284
   9 C :   -0.011424
  10 H :    0.098334
  11 O :   -0.142900
  12 O :   -0.303209
  13 O :   -0.316662
  14 O :   -0.317545
  15 O :   -0.313244
  16 O :   -0.327748
  17 H :    0.106261
  18 H :    0.101162
  19 H :    0.280384
  20 H :    0.267833
  21 H :    0.266486
  22 H :    0.286070
  23 H :    0.291698

  Mayer bond orders larger than 0.100000
B(  0-C ,  1-C ) :   1.0772 B(  0-C , 16-O ) :   1.0632 B(  0-C , 17-H ) :   0.9105
B(  0-C , 18-H ) :   0.9114 B(  1-C ,  2-H ) :   0.8837 B(  1-C ,  3-C ) :   0.9859
B(  1-C , 11-O ) :   1.0032 B(  3-C ,  4-H ) :   0.8931 B(  3-C ,  5-C ) :   0.9738
B(  3-C , 15-O ) :   1.0145 B(  5-C ,  6-H ) :   0.8990 B(  5-C ,  7-C ) :   0.9628
B(  5-C , 14-O ) :   1.1034 B(  7-C ,  8-H ) :   0.8893 B(  7-C ,  9-C ) :   0.9957
B(  7-C , 13-O ) :   1.0534 B(  9-C , 10-H ) :   0.9022 B(  9-C , 11-O ) :   1.0458
B(  9-C , 12-O ) :   1.0999 B( 12-O , 19-H ) :   0.8312 B( 13-O , 20-H ) :   0.8165
B( 14-O , 21-H ) :   0.7895 B( 15-O , 22-H ) :   0.8391 B( 16-O , 23-H ) :   0.8418

Dispersion correction           -0.026578423
FINAL SINGLE POINT ENERGY      -685.696327330202

DIPOLE MOMENT
-------------

Method             : SCF
Type of density    : Electron Density
Multiplicity       :   1
Irrep              :   0
Energy             :  -685.8302842106348862 Eh
Relativity type    :
Basis              : AO
                                X                 Y                 Z
Electronic contribution:      2.646598170      -0.342148162       0.168580124
Nuclear contribution   :     -4.241476000      -0.162633059      -0.256866367
                        -----------------------------------------
Total Dipole Moment    :     -1.594877829      -0.504781221      -0.088286243
                        -----------------------------------------
Magnitude (a.u.)       :      1.675181731
Magnitude (Debye)      :      4.257973574

Rotational constants in cm-1:             0.040561             0.031374             0.027594
Rotational constants in MHz :          1215.999732           940.565622           827.239812

                             ****ORCA TERMINATED NORMALLY****
TOTAL RUN TIME: 0 days 0 hours 0 minutes 8 seconds 383 msec
