                         Program Version 6.0.1  -  RELEASE   -
|  1> ! pbe def2-sv(p) def2/J RI DEFGRID1 loosescf d4 GCP(DFT/SV(P)) printgap
|  2> %output
|  3>     printlevel normal
|  4> end
|  5> * xyz 0 1
|  6> C -3.3845067404 -0.3529803836 -0.1994745384
|  7> C -2.2167410089 0.3265414224 0.5096570846
|  8> H -2.5995532477 0.8351691084 1.4012116768
|  9> C -1.5550995582 1.3609558958 -0.4114252962
| 10> C -0.0844377936 1.5564111969 -0.0530598692
| 11> C 0.7011034427 0.2862048036 -0.4000540927
| 12> H 0.9413137338 0.2809994544 -1.4688275838
| 13> C -0.1528247327 -0.9360383904 -0.1176709136
| 14> O -0.0223350206 -1.9817570916 -0.7052699104
| 15> C -1.1791495634 -0.7209913915 0.9638950943
| 16> C 2.033776417 0.1693370209 0.3777985673
| 17> C 2.847757123 -1.0256437032 -0.1129782777
| 18> C 2.867234027 1.442366055 0.2330038031
| 19> H -4.0811093981 0.3910444701 -0.5801948133
| 20> H -3.0219138674 -0.9485574961 -1.0345287082
| 21> H -3.9219475597 -1.0083182041 0.4823174504
| 22> H -1.6173752504 1.016027967 -1.446618504
| 23> H -2.0909056533 2.3094455042 -0.3455659837
| 24> H 0.3215214774 2.403569284 -0.6070397108
| 25> H 0.0017934817 1.7816960504 1.0120127693
| 26> H -1.6706566962 -1.6649051073 1.2009429475
| 27> H -0.6592783436 -0.3640267813 1.8545903702
| 28> H 1.7997087498 0.025281867 1.439709637
| 29> H 2.2657360795 -1.9420141029 -0.0775766716
| 30> H 3.7336943521 -1.1562326537 0.5045426217
| 31> H 3.165874735 -0.8657178757 -1.1409597291
| 32> H 2.3773355081 2.2980635877 0.6889224864
| 33> H 3.04416843 1.6615625402 -0.8176641317
| 34> H 3.8305828054 1.3064781294 0.719535938
| 35> *
| 36>
| 37>                          ****END OF INPUT****

CARTESIAN COORDINATES (ANGSTROEM)
---------------------------------
  C     -3.384507   -0.352980   -0.199475
  C     -2.216741    0.326541    0.509657
  H     -2.599553    0.835169    1.401212
  C     -1.555100    1.360956   -0.411425
  C     -0.084438    1.556411   -0.053060
  C      0.701103    0.286205   -0.400054
  H      0.941314    0.280999   -1.468828
  C     -0.152825   -0.936038   -0.117671
  O     -0.022335   -1.981757   -0.705270
  C     -1.179150   -0.720991    0.963895
  C      2.033776    0.169337    0.377799
  C      2.847757   -1.025644   -0.112978
  C      2.867234    1.442366    0.233004
  H     -4.081109    0.391044   -0.580195
  H     -3.021914   -0.948557   -1.034529
  H     -3.921948   -1.008318    0.482317
  H     -1.617375    1.016028   -1.446619
  H     -2.090906    2.309446   -0.345566
  H      0.321521    2.403569   -0.607040
  H      0.001793    1.781696    1.012013
  H     -1.670657   -1.664905    1.200943
  H     -0.659278   -0.364027    1.854590
  H      1.799709    0.025282    1.439710
  H      2.265736   -1.942014   -0.077577
  H      3.733694   -1.156233    0.504543
  H      3.165875   -0.865718   -1.140960
  H      2.377336    2.298064    0.688922
  H      3.044168    1.661563   -0.817664
  H      3.830583    1.306478    0.719536

 Total Charge           Charge          ....    0
 Multiplicity           Mult            ....    1
 Number of Electrons    NEL             ....   86
 Basis Dimension        Dim             ....  190

ORBITAL ENERGIES
----------------

  NO   OCC          E(Eh)            E(eV)
   0   2.0000     -18.738455      -509.8993
   1   2.0000      -9.967297      -271.2239
   2   2.0000      -9.905612      -269.5454
   3   2.0000      -9.905425      -269.5403
   4   2.0000      -9.897478      -269.3241
   5   2.0000      -9.892881      -269.1990
   6   2.0000      -9.890370      -269.1306
   7   2.0000      -9.889639      -269.1108
   8   2.0000      -9.879136      -268.8250
   9   2.0000      -9.878561      -268.8093
  10   2.0000      -9.869363      -268.5590
  11   2.0000      -0.938088       -25.5267
  12   2.0000      -0.770252       -20.9596
  13   2.0000      -0.731809       -19.9135
  14   2.0000      -0.678941       -18.4749
  15   2.0000      -0.652552       -17.7568
  16   2.0000      -0.614420       -16.7192
  17   2.0000      -0.609049       -16.5731
  18   2.0000      -0.550502       -14.9799
  19   2.0000      -0.523585       -14.2475
  20   2.0000      -0.507729       -13.8160
  21   2.0000      -0.468184       -12.7399
  22   2.0000      -0.443287       -12.0625
  23   2.0000      -0.415612       -11.3094
  24   2.0000      -0.410914       -11.1815
  25   2.0000      -0.403138       -10.9699
  26   2.0000      -0.392236       -10.6733
  27   2.0000      -0.368290       -10.0217
  28   2.0000      -0.364913        -9.9298
  29   2.0000      -0.357657        -9.7323
  30   2.0000      -0.352555        -9.5935
  31   2.0000      -0.347058        -9.4439
  32   2.0000      -0.340425        -9.2634
  33   2.0000      -0.335408        -9.1269
  34   2.0000      -0.317085        -8.6283
  35   2.0000      -0.313858        -8.5405
  36   2.0000      -0.300914        -8.1883
  37   2.0000      -0.297946        -8.1075
  38   2.0000      -0.293123        -7.9763
  39   2.0000      -0.280997        -7.6463
  40   2.0000      -0.279194        -7.5973
  41   2.0000      -0.269887        -7.3440
  42   2.0000      -0.187468        -5.1013
  43   0.0000      -0.049923        -1.3585
  44   0.0000       0.027307         0.7431
  45   0.0000       0.043872         1.1938
  46   0.0000       0.047626         1.2960
  47   0.0000       0.064697         1.7605

MULLIKEN ATOMIC CHARGES
-----------------------
   0 C :   -0.240538
   1 C :   -0.202236
   2 H :    0.071321
   3 C :   -0.099684
   4 C :   -0.106140
   5 C :   -0.137778
   6 H :    0.068384
   7 C :   -0.008181
   8 O :   -0.153516
   9 C :   -0.050307
  10 C :   -0.189425
  11 C :   -0.236410
  12 C :   -0.221231
  13 H :    0.102713
  14 H :    0.111698
  15 H :    0.101251
  16 H :    0.079947
  17 H :    0.085020
  18 H :    0.092840
  19 H :    0.073422
  20 H :    0.084121
  21 H :    0.093164
  22 H :    0.068765
  23 H :    0.123722
  24 H :    0.095297
  25 H :    0.092121
  26 H :    0.105805
  27 H :    0.093697
  28 H :    0.102159
Sum of atomic charges:   -0.0000000

LOEWDIN ATOMIC CHARGES
----------------------
   0 C :   -0.328787
   1 C :   -0.142221
   2 H :    0.117252
   3 C :   -0.219664
   4 C :   -0.219385
   5 C :   -0.157144
   6 H :    0.128996
   7 C :    0.050818
   8 O :   -0.122484
   9 C :   -0.237843
  10 C :   -0.138846
  11 C :   -0.333464
  12 C :   -0.327451
  13 H :    0.119213
  14 H :    0.122516
  15 H :    0.118832
  16 H :    0.119477
  17 H :    0.120432
  18 H :    0.122706
  19 H :    0.116368
  20 H :    0.127909
  21 H :    0.133286
  22 H :    0.112955
  23 H :    0.124955
  24 H :    0.116461
  25 H :    0.118394
  26 H :    0.117303
  27 H :    0.118711
  28 H :    0.120704

  Mayer bond orders larger than 0.100000
B(  0-C ,  1-C ) :   1.1157 B(  0-C , 13-H ) :   0.9491 B(  0-C , 14-H ) :   0.9463
B(  0-C , 15-H ) :   0.9468 B(  1-C ,  2-H ) :   0.8894 B(  1-C ,  3-C ) :   1.1031
B(  1-C ,  9-C ) :   1.0707 B(  3-C ,  4-C ) :   1.1866 B(  3-C , 16-H ) :   0.8990
B(  3-C , 17-H ) :   0.9108 B(  4-C ,  5-C ) :   1.0677 B(  4-C , 18-H ) :   0.9018
B(  4-C , 19-H ) :   0.8852 B(  5-C ,  6-H ) :   0.8619 B(  5-C ,  7-C ) :   0.9506
B(  5-C , 10-C ) :   1.0358 B(  7-C ,  8-O ) :   2.1601 B(  7-C ,  9-C ) :   1.0787
B(  9-C , 20-H ) :   0.8947 B(  9-C , 21-H ) :   0.8671 B( 10-C , 11-C ) :   1.1191
B( 10-C , 12-C ) :   1.1160 B( 10-C , 22-H ) :   0.8902 B( 11-C , 23-H ) :   0.9341
B( 11-C , 24-H ) :   0.9460 B( 11-C , 25-H ) :   0.9474 B( 12-C , 26-H ) :   0.9387
B( 12-C , 27-H ) :   0.9461 B( 12-C , 28-H ) :   0.9485

Dispersion correction           -0.030311947
FINAL SINGLE POINT ENERGY      -466.029674704216

DIPOLE MOMENT
-------------

Method             : SCF
Type of density    : Electron Density
Multiplicity       :   1
Irrep              :   0
Energy             :  -466.1261919813298391 Eh
Relativity type    :
Basis              : AO
                                X                 Y                 Z
Electronic contribution:     -1.823670729      -4.995714591      -1.184492889
Nuclear contribution   :      1.706181667       5.936929259       1.663985792
                        -----------------------------------------
Total Dipole Moment    :     -0.117489061       0.941214667       0.479492903
                        -----------------------------------------
Magnitude (a.u.)       :      1.062827443
Magnitude (Debye)      :      2.701492669

Rotational constants in cm-1:             0.065339             0.025343             0.020378
Rotational constants in MHz :          1958.825015           759.763084           610.915219

                             ****ORCA TERMINATED NORMALLY****
TOTAL RUN TIME: 0 days 0 hours 0 minutes 18 seconds 483 msec
