                         Program Version 6.0.1  -  RELEASE   -
|  1> ! pbe def2-sv(p) def2/J RI DEFGRID1 loosescf d4 GCP(DFT/SV(P)) printgap
|  2> %output
|  3>     printlevel normal
|  4> end
|  5> * xyz 0 1
|  6> C 1.3890286628 2.4748111532 1.1971801646
|  7> C 1.6973298506 1.6790028549 -0.0705295109
|  8> C 2.7748560025 0.5952070917 0.1902155317
|  9> C 1.9835857738 -0.6762826253 0.1290921818
| 10> C 2.3472634062 -1.9872375946 0.3397407467
| 11> C 1.3824600682 -2.9764971904 0.2000418476
| 12> C 0.0777324029 -2.6505548567 -0.1258618238
| 13> C -0.292539775 -1.3296886768 -0.3405567871
| 14> C 0.6772102058 -0.3428758578 -0.2245861691
| 15> O 0.491764037 0.9743433324 -0.4415089316
| 16> O -1.6027781673 -1.02088599 -0.6853870634
| 17> C -2.2395749783 -0.1208606143 0.1196136201
| 18> O -1.83552952 0.2550323473 1.1875911288
| 19> N -3.4037215086 0.2453620571 -0.4565106548
| 20> C -4.3296178264 1.1474033372 0.177255525
| 21> C 2.0714740105 2.6037574276 -1.2253966372
| 22> H 1.0613611276 1.7971310518 1.982150259
| 23> H 2.2702042795 3.0181124756 1.5289989674
| 24> H 0.5852971524 3.1799648978 1.002423465
| 25> H 3.5539783021 0.6124239293 -0.5755900505
| 26> H 3.2505936918 0.7335925107 1.161621554
| 27> H 3.3614707505 -2.2398164567 0.6091949179
| 28> H 1.6468603692 -4.0102235062 0.3599043756
| 29> H -0.6760520616 -3.4166855728 -0.2178272569
| 30> H -3.6296107458 -0.143501726 -1.3572363731
| 31> H -5.2895594162 0.6583197006 0.3564928153
| 32> H -4.4887770559 2.0347066002 -0.4387691947
| 33> H -3.8927446701 1.4435729687 1.1293280484
| 34> H 1.2598719565 3.3006569601 -1.417373082
| 35> H 2.2483066209 2.023028438 -2.1280875479
| 36> H 2.9697865092 3.1634810191 -0.9786722154
| 37> *
| 38>
| 39>                          ****END OF INPUT****

CARTESIAN COORDINATES (ANGSTROEM)
---------------------------------
  C      1.389029    2.474811    1.197180
  C      1.697330    1.679003   -0.070530
  C      2.774856    0.595207    0.190216
  C      1.983586   -0.676283    0.129092
  C      2.347263   -1.987238    0.339741
  C      1.382460   -2.976497    0.200042
  C      0.077732   -2.650555   -0.125862
  C     -0.292540   -1.329689   -0.340557
  C      0.677210   -0.342876   -0.224586
  O      0.491764    0.974343   -0.441509
  O     -1.602778   -1.020886   -0.685387
  C     -2.239575   -0.120861    0.119614
  O     -1.835530    0.255032    1.187591
  N     -3.403722    0.245362   -0.456511
  C     -4.329618    1.147403    0.177256
  C      2.071474    2.603757   -1.225397
  H      1.061361    1.797131    1.982150
  H      2.270204    3.018112    1.528999
  H      0.585297    3.179965    1.002423
  H      3.553978    0.612424   -0.575590
  H      3.250594    0.733593    1.161622
  H      3.361471   -2.239816    0.609195
  H      1.646860   -4.010224    0.359904
  H     -0.676052   -3.416686   -0.217827
  H     -3.629611   -0.143502   -1.357236
  H     -5.289559    0.658320    0.356493
  H     -4.488777    2.034707   -0.438769
  H     -3.892745    1.443573    1.129328
  H      1.259872    3.300657   -1.417373
  H      2.248307    2.023028   -2.128088
  H      2.969787    3.163481   -0.978672

 Total Charge           Charge          ....    0
 Multiplicity           Mult            ....    1
 Number of Electrons    NEL             ....  118
 Basis Dimension        Dim             ....  254

ORBITAL ENERGIES
----------------

  NO   OCC          E(Eh)            E(eV)
   0   2.0000     -18.797460      -511.5049
   1   2.0000     -18.779342      -511.0119
   2   2.0000     -18.711269      -509.1595
   3   2.0000     -14.016163      -381.3992
   4   2.0000     -10.016918      -272.5742
   5   2.0000      -9.958646      -270.9885
   6   2.0000      -9.943301      -270.5710
   7   2.0000      -9.938916      -270.4516
   8   2.0000      -9.917739      -269.8754
   9   2.0000      -9.895718      -269.2762
  10   2.0000      -9.892563      -269.1903
  11   2.0000      -9.887059      -269.0406
  12   2.0000      -9.886598      -269.0280
  13   2.0000      -9.883332      -268.9391
  14   2.0000      -9.880501      -268.8621
  15   2.0000      -9.874414      -268.6965
  16   2.0000      -1.005937       -27.3729
  17   2.0000      -0.973630       -26.4938
  18   2.0000      -0.911225       -24.7957
  19   2.0000      -0.839693       -22.8492
  20   2.0000      -0.769755       -20.9461
  21   2.0000      -0.732632       -19.9359
  22   2.0000      -0.690904       -18.8005
  23   2.0000      -0.671016       -18.2593
  24   2.0000      -0.634104       -17.2548
  25   2.0000      -0.622323       -16.9343
  26   2.0000      -0.613198       -16.6860
  27   2.0000      -0.564211       -15.3530
  28   2.0000      -0.547662       -14.9026
  29   2.0000      -0.525032       -14.2869
  30   2.0000      -0.510775       -13.8989
  31   2.0000      -0.499627       -13.5955
  32   2.0000      -0.449835       -12.2406
  33   2.0000      -0.431924       -11.7532
  34   2.0000      -0.427428       -11.6309
  35   2.0000      -0.426071       -11.5940
  36   2.0000      -0.421272       -11.4634
  37   2.0000      -0.409899       -11.1539
  38   2.0000      -0.390045       -10.6137
  39   2.0000      -0.387460       -10.5433
  40   2.0000      -0.370213       -10.0740
  41   2.0000      -0.369442       -10.0530
  42   2.0000      -0.360637        -9.8134
  43   2.0000      -0.356987        -9.7141
  44   2.0000      -0.354779        -9.6540
  45   2.0000      -0.343782        -9.3548
  46   2.0000      -0.335301        -9.1240
  47   2.0000      -0.333324        -9.0702
  48   2.0000      -0.324697        -8.8355
  49   2.0000      -0.313589        -8.5332
  50   2.0000      -0.309582        -8.4241
  51   2.0000      -0.300457        -8.1758
  52   2.0000      -0.283677        -7.7192
  53   2.0000      -0.272440        -7.4135
  54   2.0000      -0.259959        -7.0739
  55   2.0000      -0.220283        -5.9942
  56   2.0000      -0.213491        -5.8094
  57   2.0000      -0.207809        -5.6548
  58   2.0000      -0.179154        -4.8750
  59   0.0000      -0.028630        -0.7790
  60   0.0000      -0.012355        -0.3362
  61   0.0000       0.031305         0.8519
  62   0.0000       0.035147         0.9564
  63   0.0000       0.042149         1.1469

MULLIKEN ATOMIC CHARGES
-----------------------
   0 C :   -0.187302
   1 C :   -0.091068
   2 C :   -0.004616
   3 C :   -0.031461
   4 C :   -0.157796
   5 C :   -0.048374
   6 C :   -0.137738
   7 C :    0.155183
   8 C :    0.171988
   9 O :   -0.246620
  10 O :   -0.251330
  11 C :    0.197964
  12 O :   -0.217791
  13 N :   -0.290064
  14 C :   -0.176746
  15 C :   -0.204364
  16 H :    0.118577
  17 H :    0.096647
  18 H :    0.106130
  19 H :    0.089046
  20 H :    0.090971
  21 H :    0.029567
  22 H :    0.047231
  23 H :    0.035711
  24 H :    0.229942
  25 H :    0.112067
  26 H :    0.112467
  27 H :    0.137629
  28 H :    0.106608
  29 H :    0.104333
  30 H :    0.103207
Sum of atomic charges:    0.0000000

LOEWDIN ATOMIC CHARGES
----------------------
   0 C :   -0.326635
   1 C :    0.016443
   2 C :   -0.198984
   3 C :   -0.066502
   4 C :   -0.129314
   5 C :   -0.140882
   6 C :   -0.132202
   7 C :    0.008727
   8 C :    0.023434
   9 O :   -0.063879
  10 O :   -0.062385
  11 C :    0.029718
  12 O :   -0.187662
  13 N :   -0.176767
  14 C :   -0.258354
  15 C :   -0.327554
  16 H :    0.131637
  17 H :    0.120828
  18 H :    0.125045
  19 H :    0.129352
  20 H :    0.132319
  21 H :    0.122684
  22 H :    0.122723
  23 H :    0.130474
  24 H :    0.236027
  25 H :    0.115372
  26 H :    0.115938
  27 H :    0.137781
  28 H :    0.124768
  29 H :    0.122796
  30 H :    0.125051

  Mayer bond orders larger than 0.100000
B(  0-C ,  1-C ) :   1.0990 B(  0-C , 16-H ) :   0.9344 B(  0-C , 17-H ) :   0.9390
B(  0-C , 18-H ) :   0.9393 B(  1-C ,  2-C ) :   1.0585 B(  1-C ,  9-O ) :   0.9451
B(  1-C , 15-C ) :   1.1036 B(  2-C ,  3-C ) :   1.0651 B(  2-C , 19-H ) :   0.8791
B(  2-C , 20-H ) :   0.8793 B(  3-C ,  4-C ) :   1.3836 B(  3-C ,  8-C ) :   1.3432
B(  4-C ,  5-C ) :   1.3114 B(  4-C , 21-H ) :   0.9842 B(  5-C ,  6-C ) :   1.3327
B(  5-C , 22-H ) :   0.9641 B(  6-C ,  7-C ) :   1.4046 B(  6-C , 23-H ) :   0.9729
B(  7-C ,  8-C ) :   1.3302 B(  7-C , 10-O ) :   1.0017 B(  8-C ,  9-O ) :   1.1346
B( 10-O , 11-C ) :   1.0704 B( 11-C , 12-O ) :   2.0333 B( 11-C , 13-N ) :   1.2204
B( 13-N , 14-C ) :   1.0285 B( 13-N , 24-H ) :   0.8615 B( 14-C , 25-H ) :   0.9583
B( 14-C , 26-H ) :   0.9586 B( 14-C , 27-H ) :   0.9370 B( 15-C , 28-H ) :   0.9411
B( 15-C , 29-H ) :   0.9383 B( 15-C , 30-H ) :   0.9422

Dispersion correction           -0.036533008
FINAL SINGLE POINT ENERGY      -745.177234807698

DIPOLE MOMENT
-------------

Method             : SCF
Type of density    : Electron Density
Multiplicity       :   1
Irrep              :   0
Energy             :  -745.2788634329149318 Eh
Relativity type    :
Basis              : AO
                                X                 Y                 Z
Electronic contribution:     -4.005745065     -10.977432115      -1.534064685
Nuclear contribution   :      3.907054557      11.407669847       0.952098976
                        -----------------------------------------
Total Dipole Moment    :     -0.098690508       0.430237732      -0.581965708
                        -----------------------------------------
Magnitude (a.u.)       :      0.730430290
Magnitude (Debye)      :      1.856606249

Rotational constants in cm-1:             0.024256             0.014973             0.010365
Rotational constants in MHz :           727.177658           448.865796           310.742328

                             ****ORCA TERMINATED NORMALLY****
TOTAL RUN TIME: 0 days 0 hours 0 minutes 27 seconds 673 msec
