                         Program Version 6.0.1  -  RELEASE   -
|  1> ! r2scan-3c def2/J RI DEFGRID2 scfconv6 printgap
|  2> %output
|  3>     printlevel normal
|  4> end
|  5> * xyz 0 1
|  6> C -2.3306488638 -0.8470070853 -0.2338402927
|  7> O -0.9331944187 -0.5869104104 -0.1756488699
|  8> C -0.5543036049 0.6765264818 -0.0625868705
|  9> O -1.2960063488 1.6214109018 -0.0184222539
| 10> C 0.9563388652 0.8371248095 -0.0244056949
| 11> Cl 1.816135374 -0.6933584371 0.2228451689
| 12> H -2.4548087923 -1.7520770773 -0.8240012068
| 13> H -2.8515581663 -0.0059426837 -0.6946394875
| 14> H -2.7156527242 -1.0013534464 0.7756111518
| 15> H 1.2215251024 1.5208312488 0.7829365721
| 16> H 1.2870560804 1.2615461751 -0.9745084553
| 17> *
| 18>
| 19>                          ****END OF INPUT****

CARTESIAN COORDINATES (ANGSTROEM)
---------------------------------
  C     -2.330649   -0.847007   -0.233840
  O     -0.933194   -0.586910   -0.175649
  C     -0.554304    0.676526   -0.062587
  O     -1.296006    1.621411   -0.018422
  C      0.956339    0.837125   -0.024406
  Cl     1.816135   -0.693358    0.222845
  H     -2.454809   -1.752077   -0.824001
  H     -2.851558   -0.005943   -0.694639
  H     -2.715653   -1.001353    0.775611
  H      1.221525    1.520831    0.782937
  H      1.287056    1.261546   -0.974508

 Total Charge           Charge          ....    0
 Multiplicity           Mult            ....    1
 Number of Electrons    NEL             ....   56
 Basis Dimension        Dim             ....  157

ORBITAL ENERGIES
----------------

  NO   OCC          E(Eh)            E(eV)
   0   2.0000    -101.211971     -2754.1177
   1   2.0000     -19.015912      -517.4493
   2   2.0000     -18.950696      -515.6746
   3   2.0000     -10.176184      -276.9081
   4   2.0000     -10.113912      -275.2135
   5   2.0000     -10.096015      -274.7265
   6   2.0000      -9.368083      -254.9185
   7   2.0000      -7.114760      -193.6025
   8   2.0000      -7.103907      -193.3071
   9   2.0000      -7.103809      -193.3045
  10   2.0000      -1.094332       -29.7783
  11   2.0000      -1.002807       -27.2878
  12   2.0000      -0.835767       -22.7424
  13   2.0000      -0.724326       -19.7099
  14   2.0000      -0.667896       -18.1744
  15   2.0000      -0.552590       -15.0368
  16   2.0000      -0.490485       -13.3468
  17   2.0000      -0.479697       -13.0532
  18   2.0000      -0.457228       -12.4418
  19   2.0000      -0.436229       -11.8704
  20   2.0000      -0.403784       -10.9875
  21   2.0000      -0.398741       -10.8503
  22   2.0000      -0.368694       -10.0327
  23   2.0000      -0.335275        -9.1233
  24   2.0000      -0.296610        -8.0712
  25   2.0000      -0.288879        -7.8608
  26   2.0000      -0.274419        -7.4673
  27   2.0000      -0.251437        -6.8419
  28   0.0000      -0.033928        -0.9232
  29   0.0000       0.003465         0.0943
  30   0.0000       0.054730         1.4893
  31   0.0000       0.093148         2.5347
  32   0.0000       0.111504         3.0342

MULLIKEN ATOMIC CHARGES
-----------------------
   0 C :   -0.287632
   1 O :   -0.176026
   2 C :    0.375044
   3 O :   -0.416070
   4 C :   -0.204330
   5 Cl:   -0.150274
   6 H :    0.154559
   7 H :    0.176456
   8 H :    0.155822
   9 H :    0.186184
  10 H :    0.186268
Sum of atomic charges:   -0.0000000

LOEWDIN ATOMIC CHARGES
----------------------
   0 C :   -0.038138
   1 O :   -0.614654
   2 C :    0.334800
   3 O :   -0.411904
   4 C :   -0.259520
   5 Cl:    0.079768
   6 H :    0.178692
   7 H :    0.187767
   8 H :    0.175534
   9 H :    0.183299
  10 H :    0.184356

  Mayer bond orders larger than 0.100000
B(  0-C ,  1-O ) :   0.8425 B(  0-C ,  6-H ) :   0.9681 B(  0-C ,  7-H ) :   0.9656
B(  0-C ,  8-H ) :   0.9574 B(  1-O ,  2-C ) :   1.1073 B(  2-C ,  3-O ) :   1.8185
B(  2-C ,  4-C ) :   1.0041 B(  4-C ,  5-Cl) :   1.0286 B(  4-C ,  9-H ) :   0.9480
B(  4-C , 10-H ) :   0.9256

Dispersion correction           -0.002606871
FINAL SINGLE POINT ENERGY      -727.902376729191

DIPOLE MOMENT
-------------

Method             : SCF
Type of density    : Electron Density
Multiplicity       :   1
Irrep              :   0
Energy             :  -727.9105032727993603 Eh
Relativity type    :
Basis              : AO
                                X                 Y                 Z
Electronic contribution:      7.326712211      -1.195868031       1.010928380
Nuclear contribution   :     -7.643187306       0.967525217      -1.178795144
                        -----------------------------------------
Total Dipole Moment    :     -0.316475095      -0.228342814      -0.167866764
                        -----------------------------------------
Magnitude (a.u.)       :      0.424824878
Magnitude (Debye)      :      1.079819025

Rotational constants in cm-1:             0.179751             0.061516             0.046791
Rotational constants in MHz :          5388.799452          1844.203705          1402.748229

                             ****ORCA TERMINATED NORMALLY****
TOTAL RUN TIME: 0 days 0 hours 0 minutes 13 seconds 940 msec
