                         Program Version 6.0.1  -  RELEASE   -
|  1> ! pbe def2-sv(p) def2/J RI DEFGRID1 loosescf d4 GCP(DFT/SV(P)) printgap
|  2> %output
|  3>     printlevel normal
|  4> end
|  5> * xyz 0 1
|  6> C -2.4023308049 -0.730585236 -0.0096236598
|  7> C -0.979366435 -0.2835354438 0.3423555564
|  8> H -0.9391813925 -0.0226144378 1.4114393794
|  9> C -0.5373061437 0.925503163 -0.496572607
| 10> H -0.5501872544 0.6468543782 -1.5566844376
| 11> C 0.9038061231 1.3466757542 -0.1120751515
| 12> H 0.8443151212 2.1693655472 0.6132068613
| 13> C 1.6755603605 0.1714747581 0.5370993235
| 14> H 2.7406237043 0.2966286239 0.293343001
| 15> C 1.211736641 -1.1419880702 -0.0994828363
| 16> H 1.7618612813 -1.9880936346 0.3424413664
| 17> O -0.1357781177 -1.413717924 0.1196314606
| 18> O 1.4953297771 -1.0390105882 -1.4731276802
| 19> O 1.4825643784 0.0755632757 1.9250181519
| 20> O 1.616560404 1.8611459188 -1.2000634458
| 21> O -1.4487035407 1.9848738609 -0.3908960291
| 22> O -2.8791230667 -1.6948479937 0.8867359318
| 23> H -2.4028891497 -1.1167821209 -1.0390541301
| 24> H -3.0817245961 0.1215542197 0.0490001437
| 25> H 1.1302511681 -1.814624034 -1.9158058575
| 26> H 1.9093896249 0.8265273 2.3527282161
| 27> H 1.7337423516 1.1478144173 -1.8423415882
| 28> H -1.4856798451 2.2847250372 0.5253239361
| 29> H -2.2134616114 -2.3905680004 0.9459446729
| 30> *
| 31>
| 32>                          ****END OF INPUT****

CARTESIAN COORDINATES (ANGSTROEM)
---------------------------------
  C     -2.402331   -0.730585   -0.009624
  C     -0.979366   -0.283535    0.342356
  H     -0.939181   -0.022614    1.411439
  C     -0.537306    0.925503   -0.496573
  H     -0.550187    0.646854   -1.556684
  C      0.903806    1.346676   -0.112075
  H      0.844315    2.169366    0.613207
  C      1.675560    0.171475    0.537099
  H      2.740624    0.296629    0.293343
  C      1.211737   -1.141988   -0.099483
  H      1.761861   -1.988094    0.342441
  O     -0.135778   -1.413718    0.119631
  O      1.495330   -1.039011   -1.473128
  O      1.482564    0.075563    1.925018
  O      1.616560    1.861146   -1.200063
  O     -1.448704    1.984874   -0.390896
  O     -2.879123   -1.694848    0.886736
  H     -2.402889   -1.116782   -1.039054
  H     -3.081725    0.121554    0.049000
  H      1.130251   -1.814624   -1.915806
  H      1.909390    0.826527    2.352728
  H      1.733742    1.147814   -1.842342
  H     -1.485680    2.284725    0.525324
  H     -2.213462   -2.390568    0.945945

 Total Charge           Charge          ....    0
 Multiplicity           Mult            ....    1
 Number of Electrons    NEL             ....   96
 Basis Dimension        Dim             ....  192

ORBITAL ENERGIES
----------------

  NO   OCC          E(Eh)            E(eV)
   0   2.0000     -18.781355      -511.0666
   1   2.0000     -18.780674      -511.0481
   2   2.0000     -18.770078      -510.7598
   3   2.0000     -18.755591      -510.3656
   4   2.0000     -18.742685      -510.0144
   5   2.0000     -18.738845      -509.9099
   6   2.0000      -9.998046      -272.0607
   7   2.0000      -9.951503      -270.7942
   8   2.0000      -9.944932      -270.6154
   9   2.0000      -9.943178      -270.5676
  10   2.0000      -9.940419      -270.4925
  11   2.0000      -9.925245      -270.0796
  12   2.0000      -0.996104       -27.1054
  13   2.0000      -0.948100       -25.7991
  14   2.0000      -0.940083       -25.5809
  15   2.0000      -0.932416       -25.3723
  16   2.0000      -0.920539       -25.0491
  17   2.0000      -0.913299       -24.8521
  18   2.0000      -0.702247       -19.1091
  19   2.0000      -0.697003       -18.9664
  20   2.0000      -0.623029       -16.9535
  21   2.0000      -0.590259       -16.0618
  22   2.0000      -0.571249       -15.5445
  23   2.0000      -0.533297       -14.5118
  24   2.0000      -0.513979       -13.9861
  25   2.0000      -0.498203       -13.5568
  26   2.0000      -0.471725       -12.8363
  27   2.0000      -0.458076       -12.4649
  28   2.0000      -0.443291       -12.0626
  29   2.0000      -0.437153       -11.8955
  30   2.0000      -0.416425       -11.3315
  31   2.0000      -0.399788       -10.8788
  32   2.0000      -0.387240       -10.5373
  33   2.0000      -0.373331       -10.1589
  34   2.0000      -0.362204        -9.8561
  35   2.0000      -0.355913        -9.6849
  36   2.0000      -0.352500        -9.5920
  37   2.0000      -0.323502        -8.8029
  38   2.0000      -0.307513        -8.3679
  39   2.0000      -0.290815        -7.9135
  40   2.0000      -0.285157        -7.7595
  41   2.0000      -0.277549        -7.5525
  42   2.0000      -0.259606        -7.0642
  43   2.0000      -0.252147        -6.8613
  44   2.0000      -0.239341        -6.5128
  45   2.0000      -0.223693        -6.0870
  46   2.0000      -0.213699        -5.8151
  47   2.0000      -0.198211        -5.3936
  48   0.0000       0.006309         0.1717
  49   0.0000       0.019504         0.5307
  50   0.0000       0.026255         0.7144
  51   0.0000       0.048458         1.3186
  52   0.0000       0.055243         1.5032

MULLIKEN ATOMIC CHARGES
-----------------------
   0 C :    0.111559
   1 C :   -0.019898
   2 H :    0.057662
   3 C :    0.068535
   4 H :    0.047781
   5 C :    0.119490
   6 H :    0.031093
   7 C :   -0.013359
   8 H :    0.081239
   9 C :    0.187659
  10 H :    0.071514
  11 O :   -0.320987
  12 O :   -0.409869
  13 O :   -0.407180
  14 O :   -0.423328
  15 O :   -0.406736
  16 O :   -0.431540
  17 H :    0.056149
  18 H :    0.083956
  19 H :    0.306963
  20 H :    0.308982
  21 H :    0.304317
  22 H :    0.297771
  23 H :    0.298227
Sum of atomic charges:   -0.0000000

LOEWDIN ATOMIC CHARGES
----------------------
   0 C :   -0.126379
   1 C :   -0.085601
   2 H :    0.106483
   3 C :   -0.077795
   4 H :    0.116032
   5 C :   -0.074619
   6 H :    0.106961
   7 C :   -0.093283
   8 H :    0.112680
   9 C :    0.004761
  10 H :    0.101079
  11 O :   -0.143767
  12 O :   -0.319102
  13 O :   -0.309885
  14 O :   -0.312578
  15 O :   -0.300801
  16 O :   -0.335220
  17 H :    0.094990
  18 H :    0.115832
  19 H :    0.288416
  20 H :    0.291724
  21 H :    0.276711
  22 H :    0.282207
  23 H :    0.281155

  Mayer bond orders larger than 0.100000
B(  0-C ,  1-C ) :   1.0475 B(  0-C , 16-O ) :   1.0765 B(  0-C , 17-H ) :   0.9030
B(  0-C , 18-H ) :   0.9097 B(  1-C ,  2-H ) :   0.8586 B(  1-C ,  3-C ) :   1.0361
B(  1-C , 11-O ) :   0.9455 B(  3-C ,  4-H ) :   0.8425 B(  3-C ,  5-C ) :   0.9981
B(  3-C , 15-O ) :   1.0274 B(  5-C ,  6-H ) :   0.8625 B(  5-C ,  7-C ) :   0.9705
B(  5-C , 14-O ) :   1.0529 B(  7-C ,  8-H ) :   0.8855 B(  7-C ,  9-C ) :   1.0351
B(  7-C , 13-O ) :   1.0404 B(  9-C , 10-H ) :   0.8933 B(  9-C , 11-O ) :   1.0864
B(  9-C , 12-O ) :   1.0903 B( 12-O , 19-H ) :   0.8390 B( 13-O , 20-H ) :   0.8474
B( 14-O , 21-H ) :   0.8322 B( 15-O , 22-H ) :   0.8479 B( 16-O , 23-H ) :   0.8477

Dispersion correction           -0.024743008
FINAL SINGLE POINT ENERGY      -685.690960385437

DIPOLE MOMENT
-------------

Method             : SCF
Type of density    : Electron Density
Multiplicity       :   1
Irrep              :   0
Energy             :  -685.8222040198689911 Eh
Relativity type    :
Basis              : AO
                                X                 Y                 Z
Electronic contribution:      1.417715979      -0.505466476       0.053782663
Nuclear contribution   :     -0.516813872       0.147497858       0.166474623
                        -----------------------------------------
Total Dipole Moment    :      0.900902107      -0.357968618       0.220257286
                        -----------------------------------------
Magnitude (a.u.)       :      0.994122432
Magnitude (Debye)      :      2.526858409

Rotational constants in cm-1:             0.041002             0.025708             0.021561
Rotational constants in MHz :          1229.200340           770.697253           646.385439

                             ****ORCA TERMINATED NORMALLY****
TOTAL RUN TIME: 0 days 0 hours 0 minutes 10 seconds 420 msec
