                         Program Version 6.0.1  -  RELEASE   -
|  1> ! pbe def2-sv(p) def2/J RI DEFGRID1 loosescf d4 GCP(DFT/SV(P)) printgap
|  2> %output
|  3>     printlevel normal
|  4> end
|  5> * xyz 0 1
|  6> C -2.1368886295 -1.2850172179 0.0074835908
|  7> C -0.8678744604 -0.573130505 0.5021549039
|  8> H -1.0257471001 -0.2981350716 1.5566865717
|  9> C -0.6257817495 0.7277318314 -0.2867494724
| 10> H -0.7773809267 0.5188065625 -1.3601251226
| 11> C 0.8020413937 1.3049014821 -0.1245090722
| 12> H 0.7450762322 2.1396758741 0.5810736572
| 13> C 1.8036332293 0.2557444715 0.4090959021
| 14> H 2.7960589459 0.5162473397 0.028643741
| 15> C 1.3966646615 -1.1227589041 -0.1274911685
| 16> H 2.1148401601 -1.889813788 0.2015333374
| 17> O 0.1794082962 -1.5396695652 0.4291234253
| 18> O 1.3443988231 -1.053969016 -1.525193902
| 19> O 1.9207534178 0.2282171338 1.802633792
| 20> O 1.2663473025 1.8468671528 -1.3285952589
| 21> O -1.5240307926 1.7117252255 0.1498821267
| 22> O -3.258994374 -0.4654521917 0.2492222214
| 23> H -2.2170150043 -2.2383050565 0.544371115
| 24> H -2.0333566068 -1.4969990021 -1.0663690851
| 25> H 1.0826847371 -1.9155756538 -1.8710809082
| 26> H 1.1146885161 -0.1405136043 2.1827661832
| 27> H 1.3880682539 1.1200444597 -1.9544287768
| 28> H -2.4149236623 1.3325542294 0.153014078
| 29> H -4.0588245999 -0.9470231685 0.0144437691
| 30> *
| 31>
| 32>                          ****END OF INPUT****

CARTESIAN COORDINATES (ANGSTROEM)
---------------------------------
  C     -2.136889   -1.285017    0.007484
  C     -0.867874   -0.573131    0.502155
  H     -1.025747   -0.298135    1.556687
  C     -0.625782    0.727732   -0.286749
  H     -0.777381    0.518807   -1.360125
  C      0.802041    1.304901   -0.124509
  H      0.745076    2.139676    0.581074
  C      1.803633    0.255744    0.409096
  H      2.796059    0.516247    0.028644
  C      1.396665   -1.122759   -0.127491
  H      2.114840   -1.889814    0.201533
  O      0.179408   -1.539670    0.429123
  O      1.344399   -1.053969   -1.525194
  O      1.920753    0.228217    1.802634
  O      1.266347    1.846867   -1.328595
  O     -1.524031    1.711725    0.149882
  O     -3.258994   -0.465452    0.249222
  H     -2.217015   -2.238305    0.544371
  H     -2.033357   -1.496999   -1.066369
  H      1.082685   -1.915576   -1.871081
  H      1.114689   -0.140514    2.182766
  H      1.388068    1.120044   -1.954429
  H     -2.414924    1.332554    0.153014
  H     -4.058825   -0.947023    0.014444

 Total Charge           Charge          ....    0
 Multiplicity           Mult            ....    1
 Number of Electrons    NEL             ....   96
 Basis Dimension        Dim             ....  192

ORBITAL ENERGIES
----------------

  NO   OCC          E(Eh)            E(eV)
   0   2.0000     -18.784924      -511.1638
   1   2.0000     -18.782880      -511.1081
   2   2.0000     -18.782119      -511.0874
   3   2.0000     -18.752030      -510.2687
   4   2.0000     -18.733540      -509.7655
   5   2.0000     -18.730890      -509.6934
   6   2.0000      -9.993865      -271.9469
   7   2.0000      -9.953905      -270.8595
   8   2.0000      -9.952453      -270.8200
   9   2.0000      -9.937408      -270.4106
  10   2.0000      -9.936175      -270.3771
  11   2.0000      -9.927277      -270.1349
  12   2.0000      -0.996103       -27.1053
  13   2.0000      -0.957340       -26.0505
  14   2.0000      -0.936008       -25.4701
  15   2.0000      -0.926466       -25.2104
  16   2.0000      -0.921327       -25.0706
  17   2.0000      -0.906185       -24.6586
  18   2.0000      -0.709643       -19.3104
  19   2.0000      -0.685812       -18.6619
  20   2.0000      -0.628803       -17.1106
  21   2.0000      -0.584589       -15.9075
  22   2.0000      -0.570745       -15.5307
  23   2.0000      -0.526047       -14.3145
  24   2.0000      -0.513345       -13.9688
  25   2.0000      -0.495574       -13.4853
  26   2.0000      -0.476468       -12.9654
  27   2.0000      -0.471071       -12.8185
  28   2.0000      -0.448881       -12.2147
  29   2.0000      -0.419312       -11.4101
  30   2.0000      -0.418805       -11.3963
  31   2.0000      -0.412093       -11.2136
  32   2.0000      -0.388893       -10.5823
  33   2.0000      -0.377614       -10.2754
  34   2.0000      -0.361447        -9.8355
  35   2.0000      -0.354990        -9.6598
  36   2.0000      -0.335913        -9.1407
  37   2.0000      -0.328746        -8.9456
  38   2.0000      -0.312037        -8.4909
  39   2.0000      -0.291540        -7.9332
  40   2.0000      -0.278929        -7.5900
  41   2.0000      -0.269920        -7.3449
  42   2.0000      -0.259929        -7.0730
  43   2.0000      -0.248160        -6.7528
  44   2.0000      -0.240120        -6.5340
  45   2.0000      -0.230985        -6.2854
  46   2.0000      -0.207946        -5.6585
  47   2.0000      -0.194493        -5.2924
  48   0.0000      -0.000350        -0.0095
  49   0.0000       0.010835         0.2948
  50   0.0000       0.024177         0.6579
  51   0.0000       0.057429         1.5627
  52   0.0000       0.072004         1.9593

MULLIKEN ATOMIC CHARGES
-----------------------
   0 C :    0.059854
   1 C :   -0.029558
   2 H :    0.069356
   3 C :    0.071611
   4 H :    0.034956
   5 C :    0.120802
   6 H :    0.076667
   7 C :    0.016329
   8 H :    0.085885
   9 C :    0.147931
  10 H :    0.075154
  11 O :   -0.316792
  12 O :   -0.401705
  13 O :   -0.408268
  14 O :   -0.426401
  15 O :   -0.417767
  16 O :   -0.440313
  17 H :    0.089693
  18 H :    0.066223
  19 H :    0.306548
  20 H :    0.304382
  21 H :    0.298815
  22 H :    0.300248
  23 H :    0.316350
Sum of atomic charges:    0.0000000

LOEWDIN ATOMIC CHARGES
----------------------
   0 C :   -0.124872
   1 C :   -0.079685
   2 H :    0.105585
   3 C :   -0.073478
   4 H :    0.098175
   5 C :   -0.065000
   6 H :    0.126172
   7 C :   -0.089003
   8 H :    0.124692
   9 C :   -0.011450
  10 H :    0.101935
  11 O :   -0.146540
  12 O :   -0.312994
  13 O :   -0.302202
  14 O :   -0.310927
  15 O :   -0.319638
  16 O :   -0.332386
  17 H :    0.104894
  18 H :    0.096260
  19 H :    0.288149
  20 H :    0.282077
  21 H :    0.272392
  22 H :    0.270977
  23 H :    0.296867

  Mayer bond orders larger than 0.100000
B(  0-C ,  1-C ) :   1.0621 B(  0-C , 16-O ) :   1.0564 B(  0-C , 17-H ) :   0.9181
B(  0-C , 18-H ) :   0.9071 B(  1-C ,  2-H ) :   0.8728 B(  1-C ,  3-C ) :   1.0244
B(  1-C , 11-O ) :   0.9487 B(  3-C ,  4-H ) :   0.8641 B(  3-C ,  5-C ) :   0.9973
B(  3-C , 15-O ) :   1.0848 B(  5-C ,  6-H ) :   0.8646 B(  5-C ,  7-C ) :   0.9816
B(  5-C , 14-O ) :   1.0371 B(  7-C ,  8-H ) :   0.8848 B(  7-C ,  9-C ) :   1.0297
B(  7-C , 13-O ) :   1.0513 B(  9-C , 10-H ) :   0.8993 B(  9-C , 11-O ) :   1.0598
B(  9-C , 12-O ) :   1.0907 B( 12-O , 19-H ) :   0.8375 B( 13-O , 20-H ) :   0.8426
B( 14-O , 21-H ) :   0.8351 B( 15-O , 22-H ) :   0.8119 B( 16-O , 23-H ) :   0.8414

Dispersion correction           -0.025031323
FINAL SINGLE POINT ENERGY      -685.690955791704

DIPOLE MOMENT
-------------

Method             : SCF
Type of density    : Electron Density
Multiplicity       :   1
Irrep              :   0
Energy             :  -685.8238241832366384 Eh
Relativity type    :
Basis              : AO
                                X                 Y                 Z
Electronic contribution:      1.888125130       1.033469731       0.413796160
Nuclear contribution   :     -3.083736890      -3.084277036      -0.931595097
                        -----------------------------------------
Total Dipole Moment    :     -1.195611760      -2.050807305      -0.517798936
                        -----------------------------------------
Magnitude (a.u.)       :      2.429694182
Magnitude (Debye)      :      6.175791813

Rotational constants in cm-1:             0.043100             0.025519             0.022004
Rotational constants in MHz :          1292.117064           765.052606           659.656520

                             ****ORCA TERMINATED NORMALLY****
TOTAL RUN TIME: 0 days 0 hours 0 minutes 10 seconds 264 msec
