                         Program Version 6.0.0  -   RELEASE  -
|  1> ! r2SCAN-3c DEF2-TZVP FREQ
|  2> * xyzfile 0 1 censo.xyz
|  3>
|  4>                          ****END OF INPUT****

CARTESIAN COORDINATES (ANGSTROEM)
---------------------------------
  C     -3.368885   -0.002408   -0.531626
  C     -2.728596   -1.207762   -0.248758
  C     -1.454388   -1.205945    0.308285
  C     -0.807635    0.002031    0.589519
  C     -1.456681    1.207747    0.303976
  C     -2.730930    1.205145   -0.253023
  C      0.546988    0.004486    1.192057
  Br     1.980536    0.000229   -0.237712
  H     -4.364047   -0.004140   -0.964827
  H     -3.224949   -2.149870   -0.458913
  H     -0.954667   -2.144889    0.529737
  H     -0.958765    2.148426    0.522090
  H     -3.229089    2.145550   -0.466510
  H      0.756800   -0.890806    1.774198
  H      0.755990    0.903719    1.768364

 Total Charge           Charge          ....    0
 Multiplicity           Mult            ....    1
 Number of Electrons    NEL             ....   84
 Basis Dimension        Dim             ....  307

ORBITAL ENERGIES
----------------

  NO   OCC          E(Eh)            E(eV)
   0   2.0000    -482.209988    -13121.6009
   1   2.0000     -62.281423     -1694.7637
   2   2.0000     -56.062638     -1525.5419
   3   2.0000     -56.058784     -1525.4371
   4   2.0000     -56.058544     -1525.4305
   5   2.0000     -10.098090      -274.7830
   6   2.0000     -10.060481      -273.7596
   7   2.0000     -10.049427      -273.4588
   8   2.0000     -10.049407      -273.4583
   9   2.0000     -10.048484      -273.4332
  10   2.0000     -10.048043      -273.4211
  11   2.0000     -10.047840      -273.4156
  12   2.0000      -8.614286      -234.4066
  13   2.0000      -6.420866      -174.7206
  14   2.0000      -6.408517      -174.3846
  15   2.0000      -6.408481      -174.3836
  16   2.0000      -2.518431       -68.5300
  17   2.0000      -2.515664       -68.4547
  18   2.0000      -2.515605       -68.4531
  19   2.0000      -2.506173       -68.1964
  20   2.0000      -2.506155       -68.1960
  21   2.0000      -0.839809       -22.8524
  22   2.0000      -0.775815       -21.1110
  23   2.0000      -0.725848       -19.7513
  24   2.0000      -0.717575       -19.5262
  25   2.0000      -0.642706       -17.4889
  26   2.0000      -0.587495       -15.9865
  27   2.0000      -0.562633       -15.3100
  28   2.0000      -0.492894       -13.4123
  29   2.0000      -0.451407       -12.2834
  30   2.0000      -0.440460       -11.9855
  31   2.0000      -0.402176       -10.9438
  32   2.0000      -0.401043       -10.9129
  33   2.0000      -0.387903       -10.5554
  34   2.0000      -0.382313       -10.4033
  35   2.0000      -0.340313        -9.2604
  36   2.0000      -0.329863        -8.9760
  37   2.0000      -0.322431        -8.7738
  38   2.0000      -0.256749        -6.9865
  39   2.0000      -0.254015        -6.9121
  40   2.0000      -0.245831        -6.6894
  41   2.0000      -0.237624        -6.4661
  42   0.0000      -0.073148        -1.9905
  43   0.0000      -0.045905        -1.2492
  44   0.0000      -0.008378        -0.2280
  45   0.0000       0.046633         1.2689
  46   0.0000       0.070128         1.9083

MULLIKEN ATOMIC CHARGES
-----------------------
   0 C :   -0.119223
   1 C :   -0.091819
   2 C :   -0.188721
   3 C :    0.200160
   4 C :   -0.188686
   5 C :   -0.091854
   6 C :   -0.179959
   7 Br:   -0.177847
   8 H :    0.114753
   9 H :    0.113780
  10 H :    0.109735
  11 H :    0.109690
  12 H :    0.113781
  13 H :    0.138112
  14 H :    0.138100
Sum of atomic charges:   -0.0000000

LOEWDIN ATOMIC CHARGES
----------------------
   0 C :   -0.133014
   1 C :   -0.133650
   2 C :   -0.102289
   3 C :   -0.194805
   4 C :   -0.102303
   5 C :   -0.133659
   6 C :   -0.354349
   7 Br:    0.154898
   8 H :    0.144340
   9 H :    0.144952
  10 H :    0.148929
  11 H :    0.148912
  12 H :    0.144951
  13 H :    0.133549
  14 H :    0.133538

  Mayer bond orders larger than 0.100000
B(  0-C ,  1-C ) :   1.3845 B(  0-C ,  5-C ) :   1.3846 B(  0-C ,  8-H ) :   0.9658
B(  1-C ,  2-C ) :   1.4224 B(  1-C ,  9-H ) :   0.9684 B(  2-C ,  3-C ) :   1.3217
B(  2-C , 10-H ) :   0.9739 B(  3-C ,  4-C ) :   1.3218 B(  3-C ,  6-C ) :   0.9421
B(  4-C ,  5-C ) :   1.4223 B(  4-C , 11-H ) :   0.9739 B(  5-C , 12-H ) :   0.9683
B(  6-C ,  7-Br) :   0.9958 B(  6-C , 13-H ) :   0.9620 B(  6-C , 14-H ) :   0.9621

Dispersion correction           -0.005257299
FINAL SINGLE POINT ENERGY     -2845.046957646629

DIPOLE MOMENT
-------------

Method             : SCF
Type of density    : Electron Density
Multiplicity       :   1
Irrep              :   0
Energy             : -2845.0458890207005425 Eh
Relativity type    :
Basis              : AO
                                X                 Y                 Z
Electronic contribution:     28.036501358      -0.005248070      -4.280041353
Nuclear contribution   :    -28.869894196       0.006416579       4.745277146
                        -----------------------------------------
Total Dipole Moment    :     -0.833392839       0.001168509       0.465235794
                        -----------------------------------------
Magnitude (a.u.)       :      0.954457612
Magnitude (Debye)      :      2.426038449

VIBRATIONAL FREQUENCIES
-----------------------

Scaling factor for frequencies =  1.000000000  (already applied!)

     0:       0.00 cm**-1
     1:       0.00 cm**-1
     2:       0.00 cm**-1
     3:       0.00 cm**-1
     4:       0.00 cm**-1
     5:       0.00 cm**-1
     6:      62.38 cm**-1
     7:      93.62 cm**-1
     8:     229.83 cm**-1
     9:     340.30 cm**-1
    10:     410.40 cm**-1
    11:     447.59 cm**-1
    12:     547.26 cm**-1
    13:     588.43 cm**-1
    14:     637.45 cm**-1
    15:     707.62 cm**-1
    16:     775.75 cm**-1
    17:     827.13 cm**-1
    18:     846.13 cm**-1
    19:     881.92 cm**-1
    20:     920.57 cm**-1
    21:     956.95 cm**-1
    22:     983.42 cm**-1
    23:    1023.14 cm**-1
    24:    1049.23 cm**-1
    25:    1089.78 cm**-1
    26:    1134.41 cm**-1
    27:    1183.30 cm**-1
    28:    1200.36 cm**-1
    29:    1212.73 cm**-1
    30:    1242.06 cm**-1
    31:    1349.38 cm**-1
    32:    1354.26 cm**-1
    33:    1477.47 cm**-1
    34:    1483.30 cm**-1
    35:    1521.61 cm**-1
    36:    1616.50 cm**-1
    37:    1633.42 cm**-1
    38:    3092.58 cm**-1
    39:    3154.25 cm**-1
    40:    3155.84 cm**-1
    41:    3165.34 cm**-1
    42:    3169.86 cm**-1
    43:    3174.22 cm**-1
    44:    3184.02 cm**-1

IR SPECTRUM
-----------

 Mode   freq       eps      Int      T**2         TX        TY        TZ
       cm**-1   L/(mol*cm) km/mol    a.u.
----------------------------------------------------------------------------
  6:     62.38   0.000095    0.48  0.000475  ( 0.000015  0.021797 -0.000069)
  7:     93.62   0.000268    1.36  0.000894  ( 0.029797  0.000053 -0.002438)
  8:    229.83   0.000754    3.81  0.001024  (-0.031559  0.000005 -0.005296)
  9:    340.30   0.000153    0.78  0.000141  ( 0.000091  0.011858 -0.000089)
 10:    410.40   0.000000    0.00  0.000000  (-0.000046  0.000438  0.000005)
 11:    447.59   0.001813    9.16  0.001264  (-0.035548  0.000034  0.000437)
 12:    547.26   0.008072   40.79  0.004603  ( 0.066720 -0.000004 -0.012293)
 13:    588.43   0.008425   42.57  0.004468  (-0.040840  0.000097  0.052915)
 14:    637.45   0.000010    0.05  0.000005  (-0.000049  0.002199  0.000024)
 15:    707.62   0.008332   42.11  0.003675  (-0.020817  0.000070  0.056932)
 16:    775.75   0.003015   15.24  0.001213  (-0.011450  0.000040  0.032892)
 17:    827.13   0.001629    8.23  0.000615  ( 0.024532  0.000007 -0.003567)
 18:    846.13   0.000006    0.03  0.000002  ( 0.000002 -0.001536  0.000003)
 19:    881.92   0.000053    0.27  0.000019  ( 0.000003 -0.004326  0.000015)
 20:    920.57   0.000288    1.45  0.000098  (-0.007086 -0.000007  0.006878)
 21:    956.95   0.000016    0.08  0.000005  ( 0.000001  0.002263  0.000001)
 22:    983.42   0.000000    0.00  0.000000  (-0.000311  0.000006 -0.000128)
 23:   1023.14   0.000066    0.33  0.000020  (-0.004411  0.000004  0.000780)
 24:   1049.23   0.000464    2.35  0.000138  ( 0.011122  0.000014  0.003801)
 25:   1089.78   0.001364    6.89  0.000391  ( 0.000014  0.019763 -0.000028)
 26:   1134.41   0.000069    0.35  0.000019  (-0.000037  0.004363 -0.000019)
 27:   1183.30   0.000002    0.01  0.000000  ( 0.000023 -0.000645 -0.000001)
 28:   1200.36   0.001018    5.15  0.000265  ( 0.015361 -0.000013 -0.005366)
 29:   1212.73   0.006412   32.41  0.001650  ( 0.034663 -0.000062 -0.021178)
 30:   1242.06   0.005104   25.79  0.001282  (-0.035621 -0.000017 -0.003663)
 31:   1349.38   0.000001    0.01  0.000000  (-0.000005 -0.000556  0.000014)
 32:   1354.26   0.000206    1.04  0.000047  ( 0.000007  0.006890 -0.000005)
 33:   1477.47   0.000562    2.84  0.000119  (-0.001675  0.000022 -0.010763)
 34:   1483.30   0.001499    7.57  0.000315  (-0.000013  0.017756  0.000023)
 35:   1521.61   0.000636    3.22  0.000131  ( 0.010424  0.000021  0.004675)
 36:   1616.50   0.000088    0.44  0.000017  ( 0.000003 -0.004118  0.000015)
 37:   1633.42   0.000024    0.12  0.000005  ( 0.001579  0.000002  0.001462)
 38:   3092.58   0.001693    8.55  0.000171  ( 0.002903  0.000042  0.012742)
 39:   3154.25   0.000770    3.89  0.000076  (-0.007993 -0.000009 -0.003512)
 40:   3155.84   0.000245    1.24  0.000024  (-0.000016 -0.004925  0.000000)
 41:   3165.34   0.001134    5.73  0.000112  (-0.009137 -0.000017 -0.005320)
 42:   3169.86   0.000143    0.72  0.000014  ( 0.000010  0.003746  0.000006)
 43:   3174.22   0.004606   23.28  0.000453  ( 0.000013 -0.021279  0.000035)
 44:   3184.02   0.002362   11.94  0.000232  (-0.014504 -0.000008 -0.004600)

--------------------------
THERMOCHEMISTRY AT 298.15K
--------------------------

Temperature         ...   298.15 K
Pressure            ...     1.00 atm
Total Mass          ...   171.03 AMU
Quasi RRHO          ...     True
Cut-Off Frequency   ...     1.00 cm^-1

Throughout the following assumptions are being made:
  (1) The electronic state is orbitally nondegenerate
  (2) There are no thermally accessible electronically excited states
  (3) Hindered rotations indicated by low frequency modes are not
      treated as such but are treated as vibrations and this may
      cause some error
  (4) All equations used are the standard statistical mechanics
      equations for an ideal gas
  (5) All vibrations are strictly harmonic

freq.      62.38  E(vib)   ...       0.51
freq.      93.62  E(vib)   ...       0.47
freq.     229.83  E(vib)   ...       0.32
freq.     340.30  E(vib)   ...       0.23
freq.     410.40  E(vib)   ...       0.19
freq.     447.59  E(vib)   ...       0.17
freq.     547.26  E(vib)   ...       0.12
freq.     588.43  E(vib)   ...       0.10
freq.     637.45  E(vib)   ...       0.09
freq.     707.62  E(vib)   ...       0.07
freq.     775.75  E(vib)   ...       0.05
freq.     827.13  E(vib)   ...       0.04
freq.     846.13  E(vib)   ...       0.04
freq.     881.92  E(vib)   ...       0.04
freq.     920.57  E(vib)   ...       0.03
freq.     956.95  E(vib)   ...       0.03
freq.     983.42  E(vib)   ...       0.02
freq.    1023.14  E(vib)   ...       0.02
freq.    1049.23  E(vib)   ...       0.02
freq.    1089.78  E(vib)   ...       0.02
freq.    1134.41  E(vib)   ...       0.01
freq.    1183.30  E(vib)   ...       0.01
freq.    1200.36  E(vib)   ...       0.01
freq.    1212.73  E(vib)   ...       0.01
freq.    1242.06  E(vib)   ...       0.01
freq.    1349.38  E(vib)   ...       0.01
freq.    1354.26  E(vib)   ...       0.01
freq.    1477.47  E(vib)   ...       0.00
freq.    1483.30  E(vib)   ...       0.00
freq.    1521.61  E(vib)   ...       0.00
freq.    1616.50  E(vib)   ...       0.00
freq.    1633.42  E(vib)   ...       0.00
freq.    3092.58  E(vib)   ...       0.00
freq.    3154.25  E(vib)   ...       0.00
freq.    3155.84  E(vib)   ...       0.00
freq.    3165.34  E(vib)   ...       0.00
freq.    3169.86  E(vib)   ...       0.00
freq.    3174.22  E(vib)   ...       0.00
freq.    3184.02  E(vib)   ...       0.00

------------
INNER ENERGY
------------

The inner energy is: U= E(el) + E(ZPE) + E(vib) + E(rot) + E(trans)
    E(el)   - is the total energy from the electronic structure calculation
              = E(kin-el) + E(nuc-el) + E(el-el) + E(nuc-nuc)
    E(ZPE)  - the the zero temperature vibrational energy from the frequency calculation
    E(vib)  - the the finite temperature correction to E(ZPE) due to population
              of excited vibrational states
    E(rot)  - is the rotational thermal energy
    E(trans)- is the translational thermal energy

Summary of contributions to the inner energy U:
Electronic energy                ...  -2845.04695765 Eh
Zero point energy                ...      0.11829114 Eh      74.23 kcal/mol
Thermal vibrational correction   ...      0.00424607 Eh       2.66 kcal/mol
Thermal rotational correction    ...      0.00141627 Eh       0.89 kcal/mol
Thermal translational correction ...      0.00141627 Eh       0.89 kcal/mol
-----------------------------------------------------------------------
Total thermal energy                  -2844.92158789 Eh

Summary of corrections to the electronic energy:
(perhaps to be used in another calculation)
Total thermal correction                  0.00707861 Eh       4.44 kcal/mol
Non-thermal (ZPE) correction              0.11829114 Eh      74.23 kcal/mol
-----------------------------------------------------------------------
Total correction                          0.12536975 Eh      78.67 kcal/mol

--------
ENTHALPY
--------

The enthalpy is H = U + kB*T
                kB is Boltzmann's constant
Total thermal energy              ...  -2844.92158789 Eh
Thermal Enthalpy correction       ...      0.00094421 Eh       0.59 kcal/mol
-----------------------------------------------------------------------
Total Enthalpy                    ...  -2844.92064369 Eh

Note: Only C1 symmetry has been detected, increase convergence thresholds
      if your molecule has a higher symmetry. Symmetry factor of 1.0 is
      used for the rotational entropy correction.

Note: Rotational entropy computed according to Herzberg
Infrared and Raman Spectra, Chapter V,1, Van Nostrand Reinhold, 1945
Point Group:  C1, Symmetry Number:   1
Rotational constants in cm-1:     0.128359     0.021742     0.020449

Vibrational entropy computed according to the QRRHO of S. Grimme
Chem.Eur.J. 2012 18 9955 using a reference frequency of 100.0 cm-1

-------
ENTROPY
-------

The entropy contributions are T*S = T*(S(el)+S(vib)+S(rot)+S(trans))
     S(el)   - electronic entropy
     S(vib)  - vibrational entropy
     S(rot)  - rotational entropy
     S(trans)- translational entropy
The entropies will be listed as multiplied by the temperature to get
units of energy

Electronic entropy                ...      0.00000000 Eh      0.00 kcal/mol
Vibrational entropy               ...      0.00704300 Eh      4.42 kcal/mol
Rotational entropy                ...      0.01412373 Eh      8.86 kcal/mol
Translational entropy             ...      0.01963134 Eh     12.32 kcal/mol
-----------------------------------------------------------------------
Final entropy term                ...      0.04079806 Eh     25.60 kcal/mol

In case the symmetry of your molecule has not been determined correctly
or in case you have a reason to use a different symmetry number we print
out the resulting rotational entropy values for sn=1,12:

 non-linear molecules -----------------------------------
|  sn= 1 | S(rot)=       0.01412373 Eh      8.86 kcal/mol|
|  sn= 2 | S(rot)=       0.01346927 Eh      8.45 kcal/mol|
|  sn= 3 | S(rot)=       0.01308644 Eh      8.21 kcal/mol|
|  sn= 4 | S(rot)=       0.01281481 Eh      8.04 kcal/mol|
|  sn= 5 | S(rot)=       0.01260412 Eh      7.91 kcal/mol|
|  sn= 6 | S(rot)=       0.01243198 Eh      7.80 kcal/mol|
|  sn= 7 | S(rot)=       0.01228643 Eh      7.71 kcal/mol|
|  sn= 8 | S(rot)=       0.01216036 Eh      7.63 kcal/mol|
|  sn= 9 | S(rot)=       0.01204915 Eh      7.56 kcal/mol|
|  sn=10 | S(rot)=       0.01194967 Eh      7.50 kcal/mol|
|  sn=11 | S(rot)=       0.01185968 Eh      7.44 kcal/mol|
|  sn=12 | S(rot)=       0.01177752 Eh      7.39 kcal/mol|
 linear molecules ---------------------------------------
|  Dinfh | S(rot)=       0.00899848 Eh      5.65 kcal/mol|
|  Cinfv | S(rot)=       0.00965294 Eh      6.06 kcal/mol|
 --------------------------------------------------------

-------------------
GIBBS FREE ENERGY
-------------------

                             ****ORCA TERMINATED NORMALLY****
TOTAL RUN TIME: 0 days 0 hours 11 minutes 44 seconds 350 msec
