                         Program Version 6.0.0  -   RELEASE  -
|  1> ! r2SCAN-3c DEF2-TZVP FREQ
|  2> * xyzfile 0 1 vacuum_censo.xyz
|  3>
|  4>                          ****END OF INPUT****

CARTESIAN COORDINATES (ANGSTROEM)
---------------------------------
  C     -3.360036   -0.002972   -0.527100
  C     -2.719364   -1.206553   -0.245249
  C     -1.445951   -1.203599    0.310189
  C     -0.799113    0.002564    0.592250
  C     -1.448784    1.205899    0.304785
  C     -2.722248    1.203347   -0.250622
  C      0.560078    0.005540    1.189570
  Br     1.985403    0.000349   -0.227521
  H     -4.354708   -0.005136   -0.960556
  H     -3.213684   -2.148685   -0.458179
  H     -0.942404   -2.142375    0.522714
  H     -0.947523    2.146829    0.513139
  H     -3.218811    2.143341   -0.467740
  H      0.765621   -0.886946    1.778189
  H      0.764808    0.902908    1.770993

 Total Charge           Charge          ....    0
 Multiplicity           Mult            ....    1
 Number of Electrons    NEL             ....   84
 Basis Dimension        Dim             ....  307

ORBITAL ENERGIES
----------------

  NO   OCC          E(Eh)            E(eV)
   0   2.0000    -482.210824    -13121.6236
   1   2.0000     -62.282274     -1694.7868
   2   2.0000     -56.063501     -1525.5654
   3   2.0000     -56.059624     -1525.4599
   4   2.0000     -56.059380     -1525.4533
   5   2.0000     -10.097476      -274.7663
   6   2.0000     -10.059904      -273.7439
   7   2.0000     -10.048609      -273.4366
   8   2.0000     -10.048588      -273.4360
   9   2.0000     -10.047622      -273.4097
  10   2.0000     -10.047233      -273.3991
  11   2.0000     -10.046998      -273.3927
  12   2.0000      -8.615204      -234.4316
  13   2.0000      -6.421778      -174.7455
  14   2.0000      -6.409438      -174.4097
  15   2.0000      -6.409405      -174.4088
  16   2.0000      -2.519367       -68.5555
  17   2.0000      -2.516593       -68.4800
  18   2.0000      -2.516537       -68.4785
  19   2.0000      -2.507095       -68.2215
  20   2.0000      -2.507078       -68.2211
  21   2.0000      -0.840088       -22.8599
  22   2.0000      -0.777095       -21.1458
  23   2.0000      -0.725729       -19.7481
  24   2.0000      -0.718565       -19.5531
  25   2.0000      -0.642262       -17.4768
  26   2.0000      -0.587229       -15.9793
  27   2.0000      -0.562530       -15.3072
  28   2.0000      -0.492926       -13.4132
  29   2.0000      -0.451116       -12.2755
  30   2.0000      -0.439827       -11.9683
  31   2.0000      -0.401769       -10.9327
  32   2.0000      -0.401263       -10.9189
  33   2.0000      -0.387733       -10.5507
  34   2.0000      -0.383169       -10.4266
  35   2.0000      -0.341178        -9.2839
  36   2.0000      -0.329743        -8.9728
  37   2.0000      -0.321897        -8.7593
  38   2.0000      -0.257080        -6.9955
  39   2.0000      -0.254185        -6.9167
  40   2.0000      -0.245805        -6.6887
  41   2.0000      -0.237813        -6.4712
  42   0.0000      -0.070993        -1.9318
  43   0.0000      -0.045277        -1.2321
  44   0.0000      -0.006981        -0.1900
  45   0.0000       0.046753         1.2722
  46   0.0000       0.070378         1.9151

MULLIKEN ATOMIC CHARGES
-----------------------
   0 C :   -0.118480
   1 C :   -0.092513
   2 C :   -0.188020
   3 C :    0.198485
   4 C :   -0.187985
   5 C :   -0.092530
   6 C :   -0.183088
   7 Br:   -0.171254
   8 H :    0.114347
   9 H :    0.113403
  10 H :    0.109639
  11 H :    0.109572
  12 H :    0.113399
  13 H :    0.137520
  14 H :    0.137506
Sum of atomic charges:   -0.0000000

LOEWDIN ATOMIC CHARGES
----------------------
   0 C :   -0.133485
   1 C :   -0.133947
   2 C :   -0.103050
   3 C :   -0.194383
   4 C :   -0.103065
   5 C :   -0.133957
   6 C :   -0.364317
   7 Br:    0.166794
   8 H :    0.144350
   9 H :    0.144994
  10 H :    0.148964
  11 H :    0.148945
  12 H :    0.144993
  13 H :    0.133589
  14 H :    0.133575

  Mayer bond orders larger than 0.100000
B(  0-C ,  1-C ) :   1.3851 B(  0-C ,  5-C ) :   1.3854 B(  0-C ,  8-H ) :   0.9659
B(  1-C ,  2-C ) :   1.4226 B(  1-C ,  9-H ) :   0.9686 B(  2-C ,  3-C ) :   1.3232
B(  2-C , 10-H ) :   0.9737 B(  3-C ,  4-C ) :   1.3233 B(  3-C ,  6-C ) :   0.9379
B(  4-C ,  5-C ) :   1.4224 B(  4-C , 11-H ) :   0.9738 B(  5-C , 12-H ) :   0.9686
B(  6-C ,  7-Br) :   1.0030 B(  6-C , 13-H ) :   0.9623 B(  6-C , 14-H ) :   0.9623

Dispersion correction           -0.005261116
FINAL SINGLE POINT ENERGY     -2845.047116322079

DIPOLE MOMENT
-------------

Method             : SCF
Type of density    : Electron Density
Multiplicity       :   1
Irrep              :   0
Energy             : -2845.0460787061510928 Eh
Relativity type    :
Basis              : AO
                                X                 Y                 Z
Electronic contribution:     28.020301993      -0.006071083      -4.209914759
Nuclear contribution   :    -28.827823636       0.007488536       4.660817025
                        -----------------------------------------
Total Dipole Moment    :     -0.807521643       0.001417453       0.450902266
                        -----------------------------------------
Magnitude (a.u.)       :      0.924881650
Magnitude (Debye)      :      2.350862327

VIBRATIONAL FREQUENCIES
-----------------------

Scaling factor for frequencies =  1.000000000  (already applied!)

     0:       0.00 cm**-1
     1:       0.00 cm**-1
     2:       0.00 cm**-1
     3:       0.00 cm**-1
     4:       0.00 cm**-1
     5:       0.00 cm**-1
     6:      51.31 cm**-1
     7:      90.80 cm**-1
     8:     230.52 cm**-1
     9:     338.18 cm**-1
    10:     408.00 cm**-1
    11:     452.01 cm**-1
    12:     551.30 cm**-1
    13:     595.03 cm**-1
    14:     637.74 cm**-1
    15:     706.68 cm**-1
    16:     775.76 cm**-1
    17:     826.87 cm**-1
    18:     845.79 cm**-1
    19:     882.83 cm**-1
    20:     920.43 cm**-1
    21:     956.62 cm**-1
    22:     983.08 cm**-1
    23:    1025.36 cm**-1
    24:    1051.48 cm**-1
    25:    1093.12 cm**-1
    26:    1138.40 cm**-1
    27:    1184.29 cm**-1
    28:    1202.09 cm**-1
    29:    1220.08 cm**-1
    30:    1242.23 cm**-1
    31:    1352.93 cm**-1
    32:    1358.18 cm**-1
    33:    1478.13 cm**-1
    34:    1485.48 cm**-1
    35:    1524.01 cm**-1
    36:    1621.42 cm**-1
    37:    1638.61 cm**-1
    38:    3089.15 cm**-1
    39:    3156.03 cm**-1
    40:    3157.07 cm**-1
    41:    3163.58 cm**-1
    42:    3167.49 cm**-1
    43:    3176.98 cm**-1
    44:    3186.95 cm**-1

IR SPECTRUM
-----------

 Mode   freq       eps      Int      T**2         TX        TY        TZ
       cm**-1   L/(mol*cm) km/mol    a.u.
----------------------------------------------------------------------------
  6:     51.31   0.000097    0.49  0.000591  ( 0.000033  0.024308 -0.000093)
  7:     90.80   0.000254    1.28  0.000873  ( 0.029423  0.000065 -0.002728)
  8:    230.52   0.000634    3.20  0.000858  (-0.028678  0.000003 -0.005991)
  9:    338.18   0.000154    0.78  0.000142  ( 0.000096  0.011919 -0.000102)
 10:    408.00   0.000001    0.00  0.000000  (-0.000052  0.000630  0.000002)
 11:    452.01   0.001159    5.85  0.000800  (-0.028112  0.000035 -0.003098)
 12:    551.30   0.006587   33.29  0.003729  ( 0.060824  0.000010 -0.005406)
 13:    595.03   0.010032   50.70  0.005261  ( 0.048533 -0.000121 -0.053904)
 14:    637.74   0.000010    0.05  0.000005  (-0.000067  0.002208  0.000036)
 15:    706.68   0.008308   41.99  0.003669  (-0.020956  0.000089  0.056829)
 16:    775.76   0.002839   14.35  0.001142  (-0.010591  0.000048  0.032091)
 17:    826.87   0.001595    8.06  0.000602  ( 0.024252  0.000007 -0.003696)
 18:    845.79   0.000016    0.08  0.000006  ( 0.000002 -0.002456  0.000008)
 19:    882.83   0.000055    0.28  0.000019  (-0.000003 -0.004400  0.000021)
 20:    920.43   0.000288    1.46  0.000098  (-0.006807 -0.000010  0.007163)
 21:    956.62   0.000024    0.12  0.000008  (-0.000000  0.002774 -0.000001)
 22:    983.08   0.000001    0.00  0.000000  (-0.000411  0.000007 -0.000355)
 23:   1025.36   0.000067    0.34  0.000020  (-0.004472  0.000005  0.000529)
 24:   1051.48   0.000469    2.37  0.000139  ( 0.011149  0.000017  0.003871)
 25:   1093.12   0.001408    7.12  0.000402  ( 0.000019  0.020048 -0.000040)
 26:   1138.40   0.000048    0.24  0.000013  (-0.000054  0.003613 -0.000016)
 27:   1184.29   0.000001    0.01  0.000000  ( 0.000026 -0.000606 -0.000000)
 28:   1202.09   0.000580    2.93  0.000151  ( 0.011756 -0.000008 -0.003531)
 29:   1220.08   0.005812   29.37  0.001487  ( 0.031829 -0.000077 -0.021759)
 30:   1242.23   0.005738   29.00  0.001441  (-0.037948 -0.000010 -0.001181)
 31:   1352.93   0.000052    0.26  0.000012  (-0.000005  0.003450  0.000010)
 32:   1358.18   0.000143    0.72  0.000033  (-0.000014 -0.005741  0.000014)
 33:   1478.13   0.000578    2.92  0.000122  (-0.002399  0.000010 -0.010788)
 34:   1485.48   0.001478    7.47  0.000311  (-0.000017  0.017623  0.000015)
 35:   1524.01   0.000678    3.42  0.000139  ( 0.010825  0.000029  0.004646)
 36:   1621.42   0.000088    0.44  0.000017  ( 0.000003 -0.004106  0.000019)
 37:   1638.61   0.000012    0.06  0.000002  ( 0.000893 -0.000000  0.001233)
 38:   3089.15   0.001781    9.00  0.000180  ( 0.002594  0.000055  0.013160)
 39:   3156.03   0.000889    4.49  0.000088  (-0.008528 -0.000074 -0.003894)
 40:   3157.07   0.000328    1.66  0.000032  ( 0.000062 -0.005691  0.000037)
 41:   3163.58   0.000258    1.30  0.000025  (-0.000003 -0.005047  0.000006)
 42:   3167.49   0.000987    4.99  0.000097  ( 0.008498  0.000026  0.005002)
 43:   3176.98   0.004540   22.94  0.000446  ( 0.000025 -0.021118  0.000048)
 44:   3186.95   0.002459   12.43  0.000241  (-0.014778 -0.000017 -0.004735)

--------------------------
THERMOCHEMISTRY AT 298.15K
--------------------------

Temperature         ...   298.15 K
Pressure            ...     1.00 atm
Total Mass          ...   171.03 AMU
Quasi RRHO          ...     True
Cut-Off Frequency   ...     1.00 cm^-1

Throughout the following assumptions are being made:
  (1) The electronic state is orbitally nondegenerate
  (2) There are no thermally accessible electronically excited states
  (3) Hindered rotations indicated by low frequency modes are not
      treated as such but are treated as vibrations and this may
      cause some error
  (4) All equations used are the standard statistical mechanics
      equations for an ideal gas
  (5) All vibrations are strictly harmonic

freq.      51.31  E(vib)   ...       0.52
freq.      90.80  E(vib)   ...       0.47
freq.     230.52  E(vib)   ...       0.32
freq.     338.18  E(vib)   ...       0.24
freq.     408.00  E(vib)   ...       0.19
freq.     452.01  E(vib)   ...       0.16
freq.     551.30  E(vib)   ...       0.12
freq.     595.03  E(vib)   ...       0.10
freq.     637.74  E(vib)   ...       0.09
freq.     706.68  E(vib)   ...       0.07
freq.     775.76  E(vib)   ...       0.05
freq.     826.87  E(vib)   ...       0.04
freq.     845.79  E(vib)   ...       0.04
freq.     882.83  E(vib)   ...       0.04
freq.     920.43  E(vib)   ...       0.03
freq.     956.62  E(vib)   ...       0.03
freq.     983.08  E(vib)   ...       0.02
freq.    1025.36  E(vib)   ...       0.02
freq.    1051.48  E(vib)   ...       0.02
freq.    1093.12  E(vib)   ...       0.02
freq.    1138.40  E(vib)   ...       0.01
freq.    1184.29  E(vib)   ...       0.01
freq.    1202.09  E(vib)   ...       0.01
freq.    1220.08  E(vib)   ...       0.01
freq.    1242.23  E(vib)   ...       0.01
freq.    1352.93  E(vib)   ...       0.01
freq.    1358.18  E(vib)   ...       0.01
freq.    1478.13  E(vib)   ...       0.00
freq.    1485.48  E(vib)   ...       0.00
freq.    1524.01  E(vib)   ...       0.00
freq.    1621.42  E(vib)   ...       0.00
freq.    1638.61  E(vib)   ...       0.00
freq.    3089.15  E(vib)   ...       0.00
freq.    3156.03  E(vib)   ...       0.00
freq.    3157.07  E(vib)   ...       0.00
freq.    3163.58  E(vib)   ...       0.00
freq.    3167.49  E(vib)   ...       0.00
freq.    3176.98  E(vib)   ...       0.00
freq.    3186.95  E(vib)   ...       0.00

------------
INNER ENERGY
------------

The inner energy is: U= E(el) + E(ZPE) + E(vib) + E(rot) + E(trans)
    E(el)   - is the total energy from the electronic structure calculation
              = E(kin-el) + E(nuc-el) + E(el-el) + E(nuc-nuc)
    E(ZPE)  - the the zero temperature vibrational energy from the frequency calculation
    E(vib)  - the the finite temperature correction to E(ZPE) due to population
              of excited vibrational states
    E(rot)  - is the rotational thermal energy
    E(trans)- is the translational thermal energy

Summary of contributions to the inner energy U:
Electronic energy                ...  -2845.04711632 Eh
Zero point energy                ...      0.11838730 Eh      74.29 kcal/mol
Thermal vibrational correction   ...      0.00426597 Eh       2.68 kcal/mol
Thermal rotational correction    ...      0.00141627 Eh       0.89 kcal/mol
Thermal translational correction ...      0.00141627 Eh       0.89 kcal/mol
-----------------------------------------------------------------------
Total thermal energy                  -2844.92163050 Eh

Summary of corrections to the electronic energy:
(perhaps to be used in another calculation)
Total thermal correction                  0.00709852 Eh       4.45 kcal/mol
Non-thermal (ZPE) correction              0.11838730 Eh      74.29 kcal/mol
-----------------------------------------------------------------------
Total correction                          0.12548582 Eh      78.74 kcal/mol

--------
ENTHALPY
--------

The enthalpy is H = U + kB*T
                kB is Boltzmann's constant
Total thermal energy              ...  -2844.92163050 Eh
Thermal Enthalpy correction       ...      0.00094421 Eh       0.59 kcal/mol
-----------------------------------------------------------------------
Total Enthalpy                    ...  -2844.92068629 Eh

Note: Only C1 symmetry has been detected, increase convergence thresholds
      if your molecule has a higher symmetry. Symmetry factor of 1.0 is
      used for the rotational entropy correction.

Note: Rotational entropy computed according to Herzberg
Infrared and Raman Spectra, Chapter V,1, Van Nostrand Reinhold, 1945
Point Group:  C1, Symmetry Number:   1
Rotational constants in cm-1:     0.129092     0.021789     0.020485

Vibrational entropy computed according to the QRRHO of S. Grimme
Chem.Eur.J. 2012 18 9955 using a reference frequency of 100.0 cm-1

-------
ENTROPY
-------

The entropy contributions are T*S = T*(S(el)+S(vib)+S(rot)+S(trans))
     S(el)   - electronic entropy
     S(vib)  - vibrational entropy
     S(rot)  - rotational entropy
     S(trans)- translational entropy
The entropies will be listed as multiplied by the temperature to get
units of energy

Electronic entropy                ...      0.00000000 Eh      0.00 kcal/mol
Vibrational entropy               ...      0.00710614 Eh      4.46 kcal/mol
Rotational entropy                ...      0.01411918 Eh      8.86 kcal/mol
Translational entropy             ...      0.01963134 Eh     12.32 kcal/mol
-----------------------------------------------------------------------
Final entropy term                ...      0.04085666 Eh     25.64 kcal/mol

In case the symmetry of your molecule has not been determined correctly
or in case you have a reason to use a different symmetry number we print
out the resulting rotational entropy values for sn=1,12:

 non-linear molecules -----------------------------------
|  sn= 1 | S(rot)=       0.01411918 Eh      8.86 kcal/mol|
|  sn= 2 | S(rot)=       0.01346473 Eh      8.45 kcal/mol|
|  sn= 3 | S(rot)=       0.01308190 Eh      8.21 kcal/mol|
|  sn= 4 | S(rot)=       0.01281027 Eh      8.04 kcal/mol|
|  sn= 5 | S(rot)=       0.01259958 Eh      7.91 kcal/mol|
|  sn= 6 | S(rot)=       0.01242744 Eh      7.80 kcal/mol|
|  sn= 7 | S(rot)=       0.01228189 Eh      7.71 kcal/mol|
|  sn= 8 | S(rot)=       0.01215582 Eh      7.63 kcal/mol|
|  sn= 9 | S(rot)=       0.01204461 Eh      7.56 kcal/mol|
|  sn=10 | S(rot)=       0.01194513 Eh      7.50 kcal/mol|
|  sn=11 | S(rot)=       0.01185514 Eh      7.44 kcal/mol|
|  sn=12 | S(rot)=       0.01177298 Eh      7.39 kcal/mol|
 linear molecules ---------------------------------------
|  Dinfh | S(rot)=       0.00899683 Eh      5.65 kcal/mol|
|  Cinfv | S(rot)=       0.00965129 Eh      6.06 kcal/mol|
 --------------------------------------------------------

-------------------
GIBBS FREE ENERGY
-------------------

                             ****ORCA TERMINATED NORMALLY****
TOTAL RUN TIME: 0 days 0 hours 11 minutes 43 seconds 423 msec
