                         Program Version 6.0.1  -  RELEASE   -
|  1> ! pbe def2-sv(p) def2/J RI DEFGRID1 loosescf d4 GCP(DFT/SV(P)) printgap
|  2> %output
|  3>     printlevel normal
|  4> end
|  5> * xyz 0 1
|  6> C -2.2615183777 -0.9732334078 -0.1722452637
|  7> O -1.0118313506 -0.6383517437 0.4217032847
|  8> C -0.4617244517 0.5215708793 0.0758596523
|  9> O -0.9397222746 1.320680368 -0.6779330146
| 10> C 0.8911998906 0.6882385233 0.7658237883
| 11> C 1.8588336517 -0.1336645319 0.0832166747
| 12> N 2.6159512322 -0.7888867525 -0.4658620734
| 13> H -2.3416769329 -0.5200327887 -1.1615757017
| 14> H -3.0750430993 -0.6110030096 0.4589502529
| 15> H -2.2940770546 -2.0581531081 -0.2404131756
| 16> H 0.8182025226 0.3602097072 1.8046982667
| 17> H 1.1986365275 1.7344082137 0.7104951567
| 18> *
| 19>
| 20>                          ****END OF INPUT****

CARTESIAN COORDINATES (ANGSTROEM)
---------------------------------
  C     -2.261518   -0.973233   -0.172245
  O     -1.011831   -0.638352    0.421703
  C     -0.461724    0.521571    0.075860
  O     -0.939722    1.320680   -0.677933
  C      0.891200    0.688239    0.765824
  C      1.858834   -0.133665    0.083217
  N      2.615951   -0.788887   -0.465862
  H     -2.341677   -0.520033   -1.161576
  H     -3.075043   -0.611003    0.458950
  H     -2.294077   -2.058153   -0.240413
  H      0.818203    0.360210    1.804698
  H      1.198637    1.734408    0.710495

 Total Charge           Charge          ....    0
 Multiplicity           Mult            ....    1
 Number of Electrons    NEL             ....   52
 Basis Dimension        Dim             ....  108

ORBITAL ENERGIES
----------------

  NO   OCC          E(Eh)            E(eV)
   0   2.0000     -18.826991      -512.3085
   1   2.0000     -18.765608      -510.6381
   2   2.0000     -13.989521      -380.6742
   3   2.0000     -10.037696      -273.1396
   4   2.0000      -9.955875      -270.9131
   5   2.0000      -9.953733      -270.8548
   6   2.0000      -9.937215      -270.4054
   7   2.0000      -1.034132       -28.1402
   8   2.0000      -0.945605       -25.7312
   9   2.0000      -0.826089       -22.4790
  10   2.0000      -0.743162       -20.2225
  11   2.0000      -0.671119       -18.2621
  12   2.0000      -0.537498       -14.6261
  13   2.0000      -0.500813       -13.6278
  14   2.0000      -0.478719       -13.0266
  15   2.0000      -0.451950       -12.2982
  16   2.0000      -0.439263       -11.9530
  17   2.0000      -0.412978       -11.2377
  18   2.0000      -0.393387       -10.7046
  19   2.0000      -0.366982        -9.9861
  20   2.0000      -0.328725        -8.9451
  21   2.0000      -0.307073        -8.3559
  22   2.0000      -0.304991        -8.2992
  23   2.0000      -0.301781        -8.2119
  24   2.0000      -0.282305        -7.6819
  25   2.0000      -0.249002        -6.7757
  26   0.0000      -0.051810        -1.4098
  27   0.0000      -0.001943        -0.0529
  28   0.0000       0.007363         0.2004
  29   0.0000       0.035035         0.9534
  30   0.0000       0.051569         1.4033

MULLIKEN ATOMIC CHARGES
-----------------------
   0 C :   -0.127483
   1 O :   -0.238022
   2 C :    0.096995
   3 O :   -0.166482
   4 C :   -0.049806
   5 C :   -0.272746
   6 N :    0.065124
   7 H :    0.135660
   8 H :    0.126820
   9 H :    0.133869
  10 H :    0.149181
  11 H :    0.146890
Sum of atomic charges:    0.0000000

LOEWDIN ATOMIC CHARGES
----------------------
   0 C :   -0.204921
   1 O :   -0.064944
   2 C :    0.041899
   3 O :   -0.131249
   4 C :   -0.250232
   5 C :   -0.052531
   6 N :   -0.052741
   7 H :    0.126289
   8 H :    0.122489
   9 H :    0.127029
  10 H :    0.169711
  11 H :    0.169201

  Mayer bond orders larger than 0.100000
B(  0-C ,  1-O ) :   0.9329 B(  0-C ,  7-H ) :   0.9370 B(  0-C ,  8-H ) :   0.9585
B(  0-C ,  9-H ) :   0.9582 B(  1-O ,  2-C ) :   1.2138 B(  1-O ,  3-O ) :   0.1017
B(  2-C ,  3-O ) :   2.1097 B(  2-C ,  4-C ) :   0.9598 B(  4-C ,  5-C ) :   1.1641
B(  4-C , 10-H ) :   0.8701 B(  4-C , 11-H ) :   0.8707 B(  5-C ,  6-N ) :   3.0633

Dispersion correction           -0.008742113
FINAL SINGLE POINT ENERGY      -359.878242684604

DIPOLE MOMENT
-------------

Method             : SCF
Type of density    : Electron Density
Multiplicity       :   1
Irrep              :   0
Energy             :  -359.9210599094782310 Eh
Relativity type    :
Basis              : AO
                                X                 Y                 Z
Electronic contribution:      4.236763173       1.107003985      -0.575827008
Nuclear contribution   :     -5.356441621      -1.021124124       1.468598036
                        -----------------------------------------
Total Dipole Moment    :     -1.119678448       0.085879861       0.892771027
                        -----------------------------------------
Magnitude (a.u.)       :      1.434606317
Magnitude (Debye)      :      3.646479466

Rotational constants in cm-1:             0.172216             0.058130             0.050195
Rotational constants in MHz :          5162.902586          1742.693477          1504.810942

                             ****ORCA TERMINATED NORMALLY****
TOTAL RUN TIME: 0 days 0 hours 1 minutes 14 seconds 944 msec
