                         Program Version 6.0.1  -  RELEASE   -
|  1> ! pbe def2-sv(p) def2/J RI DEFGRID1 loosescf d4 GCP(DFT/SV(P)) printgap
|  2> %output
|  3>     printlevel normal
|  4> end
|  5> * xyz 0 1
|  6> C -3.3078346396 -0.905574208 -0.0220508973
|  7> O -1.8884378526 -0.9155772806 -0.0333563084
|  8> C -1.2637721337 0.2720497376 0.0114638763
|  9> O -1.8438656371 1.3299163924 0.0504251452
| 10> C 0.2123631569 0.1317636084 0.0019066289
| 11> C 0.9824826389 1.2924985424 0.0241322975
| 12> C 2.3615577698 1.2096457609 0.0209797063
| 13> C 2.9795411183 -0.0307274173 -0.003573929
| 14> C 2.2170423526 -1.188127615 -0.0262729092
| 15> C 0.8366609701 -1.112579243 -0.0237624017
| 16> H -3.6438785808 -1.6680613418 -0.7230078503
| 17> H -3.6775827994 0.0784373743 -0.3170305356
| 18> H -3.6626985058 -1.1414819307 0.9831648805
| 19> H 0.4776844147 2.2465336809 0.0436316503
| 20> H 2.9567967258 2.1104043272 0.0382188979
| 21> H 4.057705062 -0.0963110083 -0.0047052418
| 22> H 2.7024050761 -2.1527819276 -0.045506751
| 23> H 0.2368582178 -2.0088709535 -0.0410123536
| 24> *
| 25>
| 26>                          ****END OF INPUT****

CARTESIAN COORDINATES (ANGSTROEM)
---------------------------------
  C     -3.307835   -0.905574   -0.022051
  O     -1.888438   -0.915577   -0.033356
  C     -1.263772    0.272050    0.011464
  O     -1.843866    1.329916    0.050425
  C      0.212363    0.131764    0.001907
  C      0.982483    1.292499    0.024132
  C      2.361558    1.209646    0.020980
  C      2.979541   -0.030727   -0.003574
  C      2.217042   -1.188128   -0.026273
  C      0.836661   -1.112579   -0.023762
  H     -3.643879   -1.668061   -0.723008
  H     -3.677583    0.078437   -0.317031
  H     -3.662699   -1.141482    0.983165
  H      0.477684    2.246534    0.043632
  H      2.956797    2.110404    0.038219
  H      4.057705   -0.096311   -0.004705
  H      2.702405   -2.152782   -0.045507
  H      0.236858   -2.008871   -0.041012

 Total Charge           Charge          ....    0
 Multiplicity           Mult            ....    1
 Number of Electrons    NEL             ....   72
 Basis Dimension        Dim             ....  156

ORBITAL ENERGIES
----------------

  NO   OCC          E(Eh)            E(eV)
   0   2.0000     -18.801241      -511.6078
   1   2.0000     -18.737633      -509.8769
   2   2.0000     -10.008698      -272.3505
   3   2.0000      -9.938843      -270.4497
   4   2.0000      -9.909602      -269.6540
   5   2.0000      -9.904228      -269.5077
   6   2.0000      -9.902412      -269.4583
   7   2.0000      -9.901201      -269.4254
   8   2.0000      -9.900955      -269.4187
   9   2.0000      -9.900596      -269.4089
  10   2.0000      -1.006709       -27.3939
  11   2.0000      -0.916750       -24.9460
  12   2.0000      -0.786636       -21.4055
  13   2.0000      -0.702244       -19.1090
  14   2.0000      -0.679204       -18.4821
  15   2.0000      -0.653749       -17.7894
  16   2.0000      -0.566220       -15.4076
  17   2.0000      -0.549183       -14.9440
  18   2.0000      -0.510072       -13.8798
  19   2.0000      -0.489117       -13.3096
  20   2.0000      -0.438030       -11.9194
  21   2.0000      -0.434555       -11.8248
  22   2.0000      -0.424038       -11.5386
  23   2.0000      -0.404765       -11.0142
  24   2.0000      -0.390265       -10.6196
  25   2.0000      -0.383089       -10.4244
  26   2.0000      -0.372481       -10.1357
  27   2.0000      -0.368474       -10.0267
  28   2.0000      -0.332407        -9.0453
  29   2.0000      -0.319739        -8.7005
  30   2.0000      -0.311513        -8.4767
  31   2.0000      -0.298250        -8.1158
  32   2.0000      -0.259142        -7.0516
  33   2.0000      -0.239182        -6.5085
  34   2.0000      -0.237834        -6.4718
  35   2.0000      -0.227983        -6.2037
  36   0.0000      -0.075122        -2.0442
  37   0.0000      -0.041997        -1.1428
  38   0.0000       0.021052         0.5729
  39   0.0000       0.041497         1.1292
  40   0.0000       0.058608         1.5948

MULLIKEN ATOMIC CHARGES
-----------------------
   0 C :   -0.128849
   1 O :   -0.250495
   2 C :    0.155630
   3 O :   -0.178207
   4 C :    0.025895
   5 C :   -0.091094
   6 C :   -0.042472
   7 C :   -0.040581
   8 C :   -0.044291
   9 C :   -0.082153
  10 H :    0.121132
  11 H :    0.132338
  12 H :    0.120525
  13 H :    0.065619
  14 H :    0.059496
  15 H :    0.060619
  16 H :    0.057540
  17 H :    0.059347
Sum of atomic charges:   -0.0000000

LOEWDIN ATOMIC CHARGES
----------------------
   0 C :   -0.210632
   1 O :   -0.075199
   2 C :    0.047447
   3 O :   -0.153508
   4 C :   -0.077231
   5 C :   -0.088943
   6 C :   -0.120109
   7 C :   -0.108267
   8 C :   -0.121370
   9 C :   -0.099350
  10 H :    0.119577
  11 H :    0.123793
  12 H :    0.118627
  13 H :    0.135314
  14 H :    0.126950
  15 H :    0.126148
  16 H :    0.125889
  17 H :    0.130865

  Mayer bond orders larger than 0.100000
B(  0-C ,  1-O ) :   0.9450 B(  0-C , 10-H ) :   0.9603 B(  0-C , 11-H ) :   0.9303
B(  0-C , 12-H ) :   0.9586 B(  1-O ,  2-C ) :   1.2203 B(  2-C ,  3-O ) :   2.0870
B(  2-C ,  4-C ) :   0.9358 B(  4-C ,  5-C ) :   1.3897 B(  4-C ,  9-C ) :   1.3667
B(  5-C ,  6-C ) :   1.3591 B(  5-C , 13-H ) :   0.9579 B(  6-C ,  7-C ) :   1.3672
B(  6-C , 14-H ) :   0.9668 B(  7-C ,  8-C ) :   1.3759 B(  7-C , 15-H ) :   0.9642
B(  8-C ,  9-C ) :   1.3607 B(  8-C , 16-H ) :   0.9645 B(  9-C , 17-H ) :   0.9588

Dispersion correction           -0.018290724
FINAL SINGLE POINT ENERGY      -459.162313716008

DIPOLE MOMENT
-------------

Method             : SCF
Type of density    : Electron Density
Multiplicity       :   1
Irrep              :   0
Energy             :  -459.2189148000427963 Eh
Relativity type    :
Basis              : AO
                                X                 Y                 Z
Electronic contribution:      0.787049527       1.796907589       0.040219440
Nuclear contribution   :     -0.573817565      -2.463252436      -0.061898477
                        -----------------------------------------
Total Dipole Moment    :      0.213231963      -0.666344848      -0.021679038
                        -----------------------------------------
Magnitude (a.u.)       :      0.699966647
Magnitude (Debye)      :      1.779173822

Rotational constants in cm-1:             0.117695             0.028403             0.022982
Rotational constants in MHz :          3528.409705           851.512838           688.978815

                             ****ORCA TERMINATED NORMALLY****
TOTAL RUN TIME: 0 days 0 hours 0 minutes 7 seconds 320 msec
