                         Program Version 6.0.1  -  RELEASE   -
|  1> ! r2scan-3c def2/J RI DEFGRID2 scfconv6 printgap
|  2> %output
|  3>     printlevel normal
|  4> end
|  5> * xyz 0 1
|  6> C -2.3330886613 -0.5916853036 -0.0114561056
|  7> O -0.9140149939 -0.6144743573 -0.0017281726
|  8> C -0.2867379267 0.5736724053 0.0053107632
|  9> O -0.8636042627 1.631987468 0.0149099931
| 10> C 1.187927318 0.4326914048 0.0081734048
| 11> C 1.8354664819 -0.719923096 0.7357075562
| 12> C 1.8380108873 -0.6987131313 -0.7500327843
| 13> H -2.6953301102 -0.6062315912 -1.0416008428
| 14> H -2.69764708 0.310274459 0.4837722484
| 15> H -2.6682410562 -1.4833761578 0.5145691598
| 16> H 1.6878192619 1.3922064568 0.0222054887
| 17> H 2.7546160288 -0.5177947142 1.2638110836
| 18> H 1.180585255 -1.418557582 1.2319611887
| 19> H 2.7588158206 -0.4816161208 -1.2692269506
| 20> H 1.1847365629 -1.3828828009 -1.2681959714
| 21> *
| 22>
| 23>                          ****END OF INPUT****

CARTESIAN COORDINATES (ANGSTROEM)
---------------------------------
  C     -2.333089   -0.591685   -0.011456
  O     -0.914015   -0.614474   -0.001728
  C     -0.286738    0.573672    0.005311
  O     -0.863604    1.631987    0.014910
  C      1.187927    0.432691    0.008173
  C      1.835466   -0.719923    0.735708
  C      1.838011   -0.698713   -0.750033
  H     -2.695330   -0.606232   -1.041601
  H     -2.697647    0.310274    0.483772
  H     -2.668241   -1.483376    0.514569
  H      1.687819    1.392206    0.022205
  H      2.754616   -0.517795    1.263811
  H      1.180585   -1.418558    1.231961
  H      2.758816   -0.481616   -1.269227
  H      1.184737   -1.382883   -1.268196

 Total Charge           Charge          ....    0
 Multiplicity           Mult            ....    1
 Number of Electrons    NEL             ....   54
 Basis Dimension        Dim             ....  183

ORBITAL ENERGIES
----------------

  NO   OCC          E(Eh)            E(eV)
   0   2.0000     -18.997465      -516.9473
   1   2.0000     -18.929435      -515.0961
   2   2.0000     -10.154012      -276.3047
   3   2.0000     -10.084078      -274.4017
   4   2.0000     -10.057838      -273.6877
   5   2.0000     -10.048770      -273.4409
   6   2.0000     -10.048529      -273.4344
   7   2.0000      -1.072132       -29.1742
   8   2.0000      -0.980552       -26.6822
   9   2.0000      -0.846925       -23.0460
  10   2.0000      -0.705275       -19.1915
  11   2.0000      -0.616226       -16.7684
  12   2.0000      -0.582622       -15.8540
  13   2.0000      -0.534172       -14.5356
  14   2.0000      -0.490605       -13.3500
  15   2.0000      -0.469374       -12.7723
  16   2.0000      -0.450310       -12.2535
  17   2.0000      -0.429817       -11.6959
  18   2.0000      -0.407669       -11.0932
  19   2.0000      -0.374612       -10.1937
  20   2.0000      -0.359174        -9.7736
  21   2.0000      -0.343681        -9.3520
  22   2.0000      -0.324033        -8.8174
  23   2.0000      -0.298017        -8.1095
  24   2.0000      -0.279878        -7.6159
  25   2.0000      -0.272171        -7.4062
  26   2.0000      -0.236594        -6.4380
  27   0.0000      -0.017509        -0.4765
  28   0.0000       0.063653         1.7321
  29   0.0000       0.088339         2.4038
  30   0.0000       0.099603         2.7103
  31   0.0000       0.101976         2.7749

MULLIKEN ATOMIC CHARGES
-----------------------
   0 C :   -0.298319
   1 O :   -0.209636
   2 C :    0.413124
   3 O :   -0.430539
   4 C :   -0.138253
   5 C :   -0.336441
   6 C :   -0.334976
   7 H :    0.149196
   8 H :    0.179281
   9 H :    0.146466
  10 H :    0.183483
  11 H :    0.165589
  12 H :    0.172832
  13 H :    0.165424
  14 H :    0.172767
Sum of atomic charges:    0.0000000

LOEWDIN ATOMIC CHARGES
----------------------
   0 C :   -0.045667
   1 O :   -0.621889
   2 C :    0.370107
   3 O :   -0.425572
   4 C :   -0.144702
   5 C :   -0.264471
   6 C :   -0.264348
   7 H :    0.170688
   8 H :    0.189375
   9 H :    0.173501
  10 H :    0.184075
  11 H :    0.163928
  12 H :    0.175638
  13 H :    0.163896
  14 H :    0.175439

  Mayer bond orders larger than 0.100000
B(  0-C ,  1-O ) :   0.8470 B(  0-C ,  7-H ) :   0.9603 B(  0-C ,  8-H ) :   0.9670
B(  0-C ,  9-H ) :   0.9716 B(  1-O ,  2-C ) :   1.0890 B(  2-C ,  3-O ) :   1.8637
B(  2-C ,  4-C ) :   1.1139 B(  4-C ,  5-C ) :   0.8696 B(  4-C ,  6-C ) :   0.8719
B(  4-C , 10-H ) :   0.9147 B(  5-C ,  6-C ) :   0.9965 B(  5-C , 11-H ) :   0.9417
B(  5-C , 12-H ) :   0.9523 B(  6-C , 13-H ) :   0.9414 B(  6-C , 14-H ) :   0.9527

Dispersion correction           -0.003583297
FINAL SINGLE POINT ENERGY      -345.698006114355

DIPOLE MOMENT
-------------

Method             : SCF
Type of density    : Electron Density
Multiplicity       :   1
Irrep              :   0
Energy             :  -345.7032924845807429 Eh
Relativity type    :
Basis              : AO
                                X                 Y                 Z
Electronic contribution:     -1.137855551       3.051476013       0.054688142
Nuclear contribution   :      1.385933677      -3.913951784      -0.058632154
                        -----------------------------------------
Total Dipole Moment    :      0.248078126      -0.862475771      -0.003944012
                        -----------------------------------------
Magnitude (a.u.)       :      0.897453490
Magnitude (Debye)      :      2.281145486

Rotational constants in cm-1:             0.171869             0.065555             0.053901
Rotational constants in MHz :          5152.505412          1965.288502          1615.899682

                             ****ORCA TERMINATED NORMALLY****
TOTAL RUN TIME: 0 days 0 hours 0 minutes 16 seconds 377 msec
