                         Program Version 6.0.1  -  RELEASE   -
|  1> ! pbe def2-sv(p) def2/J RI DEFGRID1 loosescf d4 GCP(DFT/SV(P)) printgap
|  2> %output
|  3>     printlevel normal
|  4> end
|  5> * xyz 0 1
|  6> C -1.7103134901 0.7292768974 -0.4829438505
|  7> C -0.8585625582 0.111656814 0.6164193906
|  8> N 0.4900680246 -0.1981547693 0.0948235748
|  9> O 0.8856227431 -1.3306324719 0.2218712017
| 10> O 1.1036805554 0.7054129288 -0.4161409501
| 11> H -1.2021219852 1.5947306302 -0.9015802504
| 12> H -1.8921025502 0.0100178677 -1.278164228
| 13> H -2.6660585402 1.0459929168 -0.075791028
| 14> H -1.2863844399 -0.8173905765 0.9956018526
| 15> H -0.7290292569 0.8238345548 1.4354067527
| 16> *
| 17>
| 18>                          ****END OF INPUT****

CARTESIAN COORDINATES (ANGSTROEM)
---------------------------------
  C     -1.710313    0.729277   -0.482944
  C     -0.858563    0.111657    0.616419
  N      0.490068   -0.198155    0.094824
  O      0.885623   -1.330632    0.221871
  O      1.103681    0.705413   -0.416141
  H     -1.202122    1.594731   -0.901580
  H     -1.892103    0.010018   -1.278164
  H     -2.666059    1.045993   -0.075791
  H     -1.286384   -0.817391    0.995602
  H     -0.729029    0.823835    1.435407

 Total Charge           Charge          ....    0
 Multiplicity           Mult            ....    1
 Number of Electrons    NEL             ....   40
 Basis Dimension        Dim             ....   80

ORBITAL ENERGIES
----------------

  NO   OCC          E(Eh)            E(eV)
   0   2.0000     -18.783308      -511.1198
   1   2.0000     -18.783194      -511.1167
   2   2.0000     -14.208268      -386.6266
   3   2.0000      -9.949231      -270.7324
   4   2.0000      -9.905927      -269.5540
   5   2.0000      -1.139912       -31.0186
   6   2.0000      -0.971930       -26.4476
   7   2.0000      -0.759512       -20.6674
   8   2.0000      -0.637872       -17.3574
   9   2.0000      -0.532801       -14.4983
  10   2.0000      -0.498764       -13.5721
  11   2.0000      -0.478634       -13.0243
  12   2.0000      -0.455814       -12.4033
  13   2.0000      -0.422714       -11.5026
  14   2.0000      -0.378247       -10.2926
  15   2.0000      -0.358448        -9.7539
  16   2.0000      -0.339253        -9.2316
  17   2.0000      -0.277568        -7.5530
  18   2.0000      -0.253708        -6.9037
  19   2.0000      -0.237545        -6.4639
  20   0.0000      -0.093409        -2.5418
  21   0.0000       0.034808         0.9472
  22   0.0000       0.070333         1.9139
  23   0.0000       0.075612         2.0575
  24   0.0000       0.096702         2.6314

MULLIKEN ATOMIC CHARGES
-----------------------
   0 C :   -0.310518
   1 C :   -0.072973
   2 N :    0.175164
   3 O :   -0.213053
   4 O :   -0.212209
   5 H :    0.136652
   6 H :    0.125034
   7 H :    0.123642
   8 H :    0.115542
   9 H :    0.132720
Sum of atomic charges:    0.0000000

LOEWDIN ATOMIC CHARGES
----------------------
   0 C :   -0.348479
   1 C :   -0.189065
   2 N :    0.233790
   3 O :   -0.181054
   4 O :   -0.184665
   5 H :    0.133969
   6 H :    0.130195
   7 H :    0.133592
   8 H :    0.130781
   9 H :    0.140936

  Mayer bond orders larger than 0.100000
B(  0-C ,  1-C ) :   1.1505 B(  0-C ,  5-H ) :   0.9389 B(  0-C ,  6-H ) :   0.9501
B(  0-C ,  7-H ) :   0.9452 B(  1-C ,  2-N ) :   0.8913 B(  1-C ,  8-H ) :   0.9225
B(  1-C ,  9-H ) :   0.9152 B(  2-N ,  3-O ) :   1.5702 B(  2-N ,  4-O ) :   1.5479
B(  3-O ,  4-O ) :   0.3082

Dispersion correction           -0.005808088
FINAL SINGLE POINT ENERGY      -283.756647633972

DIPOLE MOMENT
-------------

Method             : SCF
Type of density    : Electron Density
Multiplicity       :   1
Irrep              :   0
Energy             :  -283.7967727219299832 Eh
Relativity type    :
Basis              : AO
                                X                 Y                 Z
Electronic contribution:      6.067028512      -2.150288200       0.206680213
Nuclear contribution   :     -7.262766505       2.482542211       0.162265983
                        -----------------------------------------
Total Dipole Moment    :     -1.195737993       0.332254011       0.368946195
                        -----------------------------------------
Magnitude (a.u.)       :      1.294721349
Magnitude (Debye)      :      3.290920135

Rotational constants in cm-1:             0.331285             0.142940             0.113275
Rotational constants in MHz :          9931.664431          4285.224139          3395.905443

                             ****ORCA TERMINATED NORMALLY****
TOTAL RUN TIME: 0 days 0 hours 0 minutes 8 seconds 790 msec
