                         Program Version 6.0.1  -  RELEASE   -
|  1> ! pbe def2-sv(p) def2/J RI DEFGRID1 loosescf d4 GCP(DFT/SV(P)) printgap
|  2> %output
|  3>     printlevel normal
|  4> end
|  5> * xyz 0 1
|  6> C -2.3697778043 0.066876412 -0.1222456654
|  7> C -0.921321656 0.4766103215 0.1165080454
|  8> C 0.0029166683 -0.7029507117 0.1518935188
|  9> C 1.320578103 -0.6326745047 0.0353719383
| 10> C 2.0840479375 0.641428327 -0.1516386551
| 11> H -2.4653667566 -0.4539160819 -1.0728148718
| 12> H -3.0168396908 0.9412967933 -0.143534025
| 13> H -2.7154369597 -0.5956512597 0.668726564
| 14> H -0.6024836656 1.1700245174 -0.6665562392
| 15> H -0.8481286169 1.0160577778 1.0672219244
| 16> H -0.4699527031 -1.6647896745 0.2963712125
| 17> H 1.90744009 -1.5393407499 0.0850518695
| 18> H 1.6858802109 1.2108921666 -0.991323696
| 19> H 3.1360481384 0.4422306274 -0.3354055841
| 20> H 2.0012024323 1.2691872342 0.7360777438
| 21> *
| 22>
| 23>                          ****END OF INPUT****

CARTESIAN COORDINATES (ANGSTROEM)
---------------------------------
  C     -2.369778    0.066876   -0.122246
  C     -0.921322    0.476610    0.116508
  C      0.002917   -0.702951    0.151894
  C      1.320578   -0.632675    0.035372
  C      2.084048    0.641428   -0.151639
  H     -2.465367   -0.453916   -1.072815
  H     -3.016840    0.941297   -0.143534
  H     -2.715437   -0.595651    0.668727
  H     -0.602484    1.170025   -0.666556
  H     -0.848129    1.016058    1.067222
  H     -0.469953   -1.664790    0.296371
  H      1.907440   -1.539341    0.085052
  H      1.685880    1.210892   -0.991324
  H      3.136048    0.442231   -0.335406
  H      2.001202    1.269187    0.736078

 Total Charge           Charge          ....    0
 Multiplicity           Mult            ....    1
 Number of Electrons    NEL             ....   40
 Basis Dimension        Dim             ....   90

ORBITAL ENERGIES
----------------

  NO   OCC          E(Eh)            E(eV)
   0   2.0000      -9.885613      -269.0012
   1   2.0000      -9.878843      -268.8170
   2   2.0000      -9.876883      -268.7637
   3   2.0000      -9.876301      -268.7478
   4   2.0000      -9.873677      -268.6764
   5   2.0000      -0.723594       -19.6900
   6   2.0000      -0.672727       -18.3058
   7   2.0000      -0.604330       -16.4447
   8   2.0000      -0.545951       -14.8561
   9   2.0000      -0.468066       -12.7367
  10   2.0000      -0.420447       -11.4410
  11   2.0000      -0.398700       -10.8492
  12   2.0000      -0.381099       -10.3702
  13   2.0000      -0.363396        -9.8885
  14   2.0000      -0.334589        -9.1046
  15   2.0000      -0.325197        -8.8491
  16   2.0000      -0.309736        -8.4283
  17   2.0000      -0.302635        -8.2351
  18   2.0000      -0.280122        -7.6225
  19   2.0000      -0.207760        -5.6534
  20   0.0000      -0.009061        -0.2466
  21   0.0000       0.043663         1.1881
  22   0.0000       0.061238         1.6664
  23   0.0000       0.066498         1.8095
  24   0.0000       0.086587         2.3562

MULLIKEN ATOMIC CHARGES
-----------------------
   0 C :   -0.286970
   1 C :   -0.134266
   2 C :   -0.145554
   3 C :   -0.165064
   4 C :   -0.231074
   5 H :    0.104873
   6 H :    0.100994
   7 H :    0.103505
   8 H :    0.093734
   9 H :    0.101967
  10 H :    0.059344
  11 H :    0.065013
  12 H :    0.115213
  13 H :    0.102936
  14 H :    0.115348
Sum of atomic charges:    0.0000000

LOEWDIN ATOMIC CHARGES
----------------------
   0 C :   -0.338527
   1 C :   -0.233787
   2 C :   -0.152817
   3 C :   -0.156018
   4 C :   -0.340640
   5 H :    0.118980
   6 H :    0.118475
   7 H :    0.117974
   8 H :    0.122161
   9 H :    0.126529
  10 H :    0.117593
  11 H :    0.117870
  12 H :    0.128197
  13 H :    0.123793
  14 H :    0.130217

  Mayer bond orders larger than 0.100000
B(  0-C ,  1-C ) :   1.1446 B(  0-C ,  5-H ) :   0.9598 B(  0-C ,  6-H ) :   0.9528
B(  0-C ,  7-H ) :   0.9550 B(  1-C ,  2-C ) :   1.0774 B(  1-C ,  8-H ) :   0.9080
B(  1-C ,  9-H ) :   0.9066 B(  2-C ,  3-C ) :   1.9871 B(  2-C , 10-H ) :   0.9417
B(  3-C ,  4-C ) :   1.1185 B(  3-C , 11-H ) :   0.9364 B(  4-C , 12-H ) :   0.9334
B(  4-C , 13-H ) :   0.9478 B(  4-C , 14-H ) :   0.9351

Dispersion correction           -0.009751224
FINAL SINGLE POINT ENERGY      -196.028331829296

DIPOLE MOMENT
-------------

Method             : SCF
Type of density    : Electron Density
Multiplicity       :   1
Irrep              :   0
Energy             :  -196.0764986114747614 Eh
Relativity type    :
Basis              : AO
                                X                 Y                 Z
Electronic contribution:      1.309824907      -1.550215618       0.346078040
Nuclear contribution   :     -1.301830235       1.684932705      -0.334159698
                        -----------------------------------------
Total Dipole Moment    :      0.007994672       0.134717087       0.011918343
                        -----------------------------------------
Magnitude (a.u.)       :      0.135479353
Magnitude (Debye)      :      0.344361150

Rotational constants in cm-1:             0.459425             0.083935             0.074437
Rotational constants in MHz :         13773.210316          2516.312874          2231.567371

                             ****ORCA TERMINATED NORMALLY****
TOTAL RUN TIME: 0 days 0 hours 0 minutes 17 seconds 870 msec
