                         Program Version 6.0.1  -  RELEASE   -
|  1> ! pbe def2-sv(p) def2/J RI DEFGRID1 loosescf d4 GCP(DFT/SV(P)) printgap
|  2> %output
|  3>     printlevel normal
|  4> end
|  5> * xyz 0 1
|  6> C 2.2029897539 1.0176530843 -0.3998288762
|  7> C 1.1582101605 -0.077065496 -0.2406337696
|  8> C 1.5808641059 -1.1361692993 0.7717938395
|  9> O -0.054524563 0.5577715637 0.2008278392
| 10> C -1.2106209118 -0.0362382441 -0.09701667
| 11> O -1.3059450694 -1.0579505838 -0.7250680269
| 12> C -2.3731246841 0.7418988946 0.4653615269
| 13> H 3.1320462649 0.5893648923 -0.7643584223
| 14> H 1.8582920901 1.7682810686 -1.106171522
| 15> H 2.3834867165 1.4985189139 0.5581160255
| 16> H 0.9512307827 -0.5576595429 -1.2058268068
| 17> H 0.8112536926 -1.8999897317 0.8532041529
| 18> H 1.7323061386 -0.6798007093 1.7474793828
| 19> H 2.5062775336 -1.6051256475 0.4501617611
| 20> H -2.6439872609 0.3104483178 1.4272310454
| 21> H -3.2256970887 0.65600719 -0.2017995906
| 22> H -2.0960063282 1.7812570375 0.6091823652
| 23> *
| 24>
| 25>                          ****END OF INPUT****

CARTESIAN COORDINATES (ANGSTROEM)
---------------------------------
  C      2.202990    1.017653   -0.399829
  C      1.158210   -0.077065   -0.240634
  C      1.580864   -1.136169    0.771794
  O     -0.054525    0.557772    0.200828
  C     -1.210621   -0.036238   -0.097017
  O     -1.305945   -1.057951   -0.725068
  C     -2.373125    0.741899    0.465362
  H      3.132046    0.589365   -0.764358
  H      1.858292    1.768281   -1.106172
  H      2.383487    1.498519    0.558116
  H      0.951231   -0.557660   -1.205827
  H      0.811254   -1.899990    0.853204
  H      1.732306   -0.679801    1.747479
  H      2.506278   -1.605126    0.450162
  H     -2.643987    0.310448    1.427231
  H     -3.225697    0.656007   -0.201800
  H     -2.096006    1.781257    0.609182

 Total Charge           Charge          ....    0
 Multiplicity           Mult            ....    1
 Number of Electrons    NEL             ....   56
 Basis Dimension        Dim             ....  118

ORBITAL ENERGIES
----------------

  NO   OCC          E(Eh)            E(eV)
   0   2.0000     -18.794232      -511.4170
   1   2.0000     -18.731380      -509.7068
   2   2.0000     -10.007051      -272.3057
   3   2.0000      -9.950699      -270.7723
   4   2.0000      -9.892067      -269.1768
   5   2.0000      -9.884892      -268.9816
   6   2.0000      -9.882374      -268.9131
   7   2.0000      -1.003092       -27.2955
   8   2.0000      -0.912897       -24.8412
   9   2.0000      -0.726059       -19.7571
  10   2.0000      -0.665950       -18.1214
  11   2.0000      -0.625410       -17.0183
  12   2.0000      -0.566916       -15.4266
  13   2.0000      -0.494057       -13.4440
  14   2.0000      -0.436714       -11.8836
  15   2.0000      -0.428931       -11.6718
  16   2.0000      -0.412145       -11.2150
  17   2.0000      -0.395372       -10.7586
  18   2.0000      -0.376563       -10.2468
  19   2.0000      -0.369927       -10.0662
  20   2.0000      -0.352249        -9.5852
  21   2.0000      -0.350922        -9.5491
  22   2.0000      -0.337650        -9.1879
  23   2.0000      -0.319837        -8.7032
  24   2.0000      -0.311632        -8.4799
  25   2.0000      -0.287066        -7.8115
  26   2.0000      -0.254367        -6.9217
  27   2.0000      -0.218151        -5.9362
  28   0.0000      -0.016834        -0.4581
  29   0.0000       0.038577         1.0497
  30   0.0000       0.061078         1.6620
  31   0.0000       0.076528         2.0824
  32   0.0000       0.084742         2.3060

MULLIKEN ATOMIC CHARGES
-----------------------
   0 C :   -0.237514
   1 C :   -0.018233
   2 C :   -0.259812
   3 O :   -0.239939
   4 C :    0.086881
   5 O :   -0.201560
   6 C :   -0.251940
   7 H :    0.105687
   8 H :    0.110481
   9 H :    0.103689
  10 H :    0.094153
  11 H :    0.121839
  12 H :    0.101393
  13 H :    0.106441
  14 H :    0.134079
  15 H :    0.126117
  16 H :    0.118239
Sum of atomic charges:    0.0000000

LOEWDIN ATOMIC CHARGES
----------------------
   0 C :   -0.338142
   1 C :   -0.049880
   2 C :   -0.343806
   3 O :   -0.067295
   4 C :    0.028952
   5 O :   -0.162303
   6 C :   -0.361112
   7 H :    0.127117
   8 H :    0.124574
   9 H :    0.123095
  10 H :    0.116783
  11 H :    0.128483
  12 H :    0.121466
  13 H :    0.127397
  14 H :    0.148347
  15 H :    0.141347
  16 H :    0.134976

  Mayer bond orders larger than 0.100000
B(  0-C ,  1-C ) :   1.1159 B(  0-C ,  7-H ) :   0.9464 B(  0-C ,  8-H ) :   0.9479
B(  0-C ,  9-H ) :   0.9433 B(  1-C ,  2-C ) :   1.1343 B(  1-C ,  3-O ) :   0.8962
B(  1-C , 10-H ) :   0.8978 B(  2-C , 11-H ) :   0.9410 B(  2-C , 12-H ) :   0.9422
B(  2-C , 13-H ) :   0.9465 B(  3-O ,  4-C ) :   1.1948 B(  4-C ,  5-O ) :   2.0520
B(  4-C ,  6-C ) :   1.0802 B(  6-C , 14-H ) :   0.9270 B(  6-C , 15-H ) :   0.9381
B(  6-C , 16-H ) :   0.9377

Dispersion correction           -0.012300104
FINAL SINGLE POINT ENERGY      -346.249396315637

DIPOLE MOMENT
-------------

Method             : SCF
Type of density    : Electron Density
Multiplicity       :   1
Irrep              :   0
Energy             :  -346.3137250248702799 Eh
Relativity type    :
Basis              : AO
                                X                 Y                 Z
Electronic contribution:     -4.678575955      -1.258572493      -1.861796929
Nuclear contribution   :      5.054565874       1.738796558       2.213074186
                        -----------------------------------------
Total Dipole Moment    :      0.375989919       0.480224065       0.351277257
                        -----------------------------------------
Magnitude (a.u.)       :      0.703831857
Magnitude (Debye)      :      1.788998407

Rotational constants in cm-1:             0.159541             0.056077             0.049144
Rotational constants in MHz :          4782.928259          1681.133132          1473.292630

                             ****ORCA TERMINATED NORMALLY****
TOTAL RUN TIME: 0 days 0 hours 0 minutes 5 seconds 258 msec
