                         Program Version 6.0.1  -  RELEASE   -
|  1> ! pbe def2-sv(p) def2/J RI DEFGRID1 loosescf d4 GCP(DFT/SV(P)) printgap
|  2> %output
|  3>     printlevel normal
|  4> end
|  5> * xyz 0 1
|  6> C 2.7215902183 0.1217147173 -0.7127973607
|  7> C 1.9332985798 -0.1243407862 0.5749267295
|  8> C 0.4584064662 -0.0400128062 0.3099899225
|  9> C -0.1904226256 1.1893653383 0.2163713378
| 10> C -1.5444620012 1.2118574574 -0.0649958962
| 11> C -2.209519702 0.0082652005 -0.2445667913
| 12> C -1.4761564497 -1.161536688 -0.1300715655
| 13> N -0.182824651 -1.1880145752 0.1384285035
| 14> H 2.4533004722 -0.6198235572 -1.4612980006
| 15> H 3.789712991 0.0523832584 -0.521234858
| 16> H 2.5040101289 1.1098359316 -1.1131192657
| 17> H 2.2173316541 0.61712112 1.3246385685
| 18> H 2.1610341248 -1.1202790906 0.9550180261
| 19> H 0.3601190845 2.1063187843 0.3660265116
| 20> H -2.0745757154 2.1508311469 -0.1419311475
| 21> H -3.2654248236 -0.0200742231 -0.4646707988
| 22> H -1.9431702534 -2.1301122421 -0.257686851
| 23> *
| 24>
| 25>                          ****END OF INPUT****

CARTESIAN COORDINATES (ANGSTROEM)
---------------------------------
  C      2.721590    0.121715   -0.712797
  C      1.933299   -0.124341    0.574927
  C      0.458406   -0.040013    0.309990
  C     -0.190423    1.189365    0.216371
  C     -1.544462    1.211857   -0.064996
  C     -2.209520    0.008265   -0.244567
  C     -1.476156   -1.161537   -0.130072
  N     -0.182825   -1.188015    0.138429
  H      2.453300   -0.619824   -1.461298
  H      3.789713    0.052383   -0.521235
  H      2.504010    1.109836   -1.113119
  H      2.217332    0.617121    1.324639
  H      2.161034   -1.120279    0.955018
  H      0.360119    2.106319    0.366027
  H     -2.074576    2.150831   -0.141931
  H     -3.265425   -0.020074   -0.464671
  H     -1.943170   -2.130112   -0.257687

 Total Charge           Charge          ....    0
 Multiplicity           Mult            ....    1
 Number of Electrons    NEL             ....   58
 Basis Dimension        Dim             ....  130

ORBITAL ENERGIES
----------------

  NO   OCC          E(Eh)            E(eV)
   0   2.0000     -13.975675      -380.2975
   1   2.0000      -9.929459      -270.1943
   2   2.0000      -9.918527      -269.8968
   3   2.0000      -9.908730      -269.6303
   4   2.0000      -9.899250      -269.3723
   5   2.0000      -9.897883      -269.3351
   6   2.0000      -9.886349      -269.0212
   7   2.0000      -9.879552      -268.8363
   8   2.0000      -0.858128       -23.3509
   9   2.0000      -0.723840       -19.6967
  10   2.0000      -0.717313       -19.5191
  11   2.0000      -0.658961       -17.9312
  12   2.0000      -0.578346       -15.7376
  13   2.0000      -0.565181       -15.3794
  14   2.0000      -0.527629       -14.3575
  15   2.0000      -0.464066       -12.6279
  16   2.0000      -0.442108       -12.0304
  17   2.0000      -0.413133       -11.2419
  18   2.0000      -0.389903       -10.6098
  19   2.0000      -0.386585       -10.5195
  20   2.0000      -0.368049       -10.0151
  21   2.0000      -0.355347        -9.6695
  22   2.0000      -0.340341        -9.2611
  23   2.0000      -0.324208        -8.8222
  24   2.0000      -0.301896        -8.2150
  25   2.0000      -0.300721        -8.1830
  26   2.0000      -0.260235        -7.0814
  27   2.0000      -0.230974        -6.2851
  28   2.0000      -0.200969        -5.4687
  29   0.0000      -0.051730        -1.4076
  30   0.0000      -0.042648        -1.1605
  31   0.0000       0.041040         1.1168
  32   0.0000       0.058345         1.5876
  33   0.0000       0.079240         2.1562

MULLIKEN ATOMIC CHARGES
-----------------------
   0 C :   -0.287570
   1 C :   -0.090058
   2 C :   -0.067113
   3 C :   -0.093497
   4 C :   -0.007924
   5 C :   -0.076727
   6 C :   -0.054744
   7 N :   -0.060099
   8 H :    0.111468
   9 H :    0.108784
  10 H :    0.099197
  11 H :    0.084062
  12 H :    0.090094
  13 H :    0.049757
  14 H :    0.064484
  15 H :    0.062474
  16 H :    0.067413
Sum of atomic charges:    0.0000000

LOEWDIN ATOMIC CHARGES
----------------------
   0 C :   -0.332102
   1 C :   -0.227051
   2 C :   -0.004898
   3 C :   -0.138083
   4 C :   -0.097981
   5 C :   -0.149206
   6 C :   -0.078989
   7 N :   -0.075173
   8 H :    0.123763
   9 H :    0.120250
  10 H :    0.116210
  11 H :    0.121501
  12 H :    0.128017
  13 H :    0.125634
  14 H :    0.127000
  15 H :    0.127525
  16 H :    0.113584

  Mayer bond orders larger than 0.100000
B(  0-C ,  1-C ) :   1.1470 B(  0-C ,  8-H ) :   0.9505 B(  0-C ,  9-H ) :   0.9508
B(  0-C , 10-H ) :   0.9561 B(  1-C ,  2-C ) :   1.0639 B(  1-C , 11-H ) :   0.9103
B(  1-C , 12-H ) :   0.9022 B(  2-C ,  3-C ) :   1.3669 B(  2-C ,  7-N ) :   1.5498
B(  3-C ,  4-C ) :   1.4179 B(  3-C , 13-H ) :   0.9456 B(  4-C ,  5-C ) :   1.4088
B(  4-C , 14-H ) :   0.9566 B(  5-C ,  6-C ) :   1.3800 B(  5-C , 15-H ) :   0.9488
B(  6-C ,  7-N ) :   1.5366 B(  6-C , 16-H ) :   0.9519

Dispersion correction           -0.016229537
FINAL SINGLE POINT ENERGY      -326.179881747089

DIPOLE MOMENT
-------------

Method             : SCF
Type of density    : Electron Density
Multiplicity       :   1
Irrep              :   0
Energy             :  -326.2290598778153594 Eh
Relativity type    :
Basis              : AO
                                X                 Y                 Z
Electronic contribution:     -6.017735004      -1.366938360       1.173725500
Nuclear contribution   :      5.817835590       2.006984478      -1.232236321
                        -----------------------------------------
Total Dipole Moment    :     -0.199899414       0.640046118      -0.058510821
                        -----------------------------------------
Magnitude (a.u.)       :      0.673084189
Magnitude (Debye)      :      1.710844045

Rotational constants in cm-1:             0.156363             0.051690             0.042756
Rotational constants in MHz :          4687.655766          1549.621506          1281.793764

                             ****ORCA TERMINATED NORMALLY****
TOTAL RUN TIME: 0 days 0 hours 0 minutes 5 seconds 321 msec
