                         Program Version 6.0.0  -   RELEASE  -
|  1> ! r2SCAN-3c DEF2-TZVP FREQ
|  2> * xyzfile 0 1 censo.xyz
|  3>
|  4>                          ****END OF INPUT****

CARTESIAN COORDINATES (ANGSTROEM)
---------------------------------
  C     -0.443384   -0.605471    0.000011
  C      0.443136    0.605214   -0.000018
  Br     2.332454   -0.031063   -0.000030
  Br    -2.332687    0.030856    0.000017
  H     -0.335498   -1.212692    0.897142
  H     -0.335514   -1.212725   -0.897101
  H      0.335263    1.212440   -0.897146
  H      0.335277    1.212474    0.897089

 Total Charge           Charge          ....    0
 Multiplicity           Mult            ....    1
 Number of Electrons    NEL             ....   86
 Basis Dimension        Dim             ....  182

ORBITAL ENERGIES
----------------

  NO   OCC          E(Eh)            E(eV)
   0   2.0000    -482.229998    -13122.1454
   1   2.0000    -482.229996    -13122.1453
   2   2.0000     -62.301558     -1695.3116
   3   2.0000     -62.301554     -1695.3115
   4   2.0000     -56.082891     -1526.0930
   5   2.0000     -56.082888     -1526.0930
   6   2.0000     -56.078812     -1525.9820
   7   2.0000     -56.078810     -1525.9820
   8   2.0000     -56.078728     -1525.9798
   9   2.0000     -56.078726     -1525.9797
  10   2.0000     -10.113840      -275.2116
  11   2.0000     -10.113681      -275.2072
  12   2.0000      -8.634199      -234.9485
  13   2.0000      -8.634193      -234.9483
  14   2.0000      -6.440767      -175.2622
  15   2.0000      -6.440766      -175.2621
  16   2.0000      -6.428581      -174.9306
  17   2.0000      -6.428580      -174.9306
  18   2.0000      -6.428229      -174.9210
  19   2.0000      -6.428228      -174.9210
  20   2.0000      -2.538391       -69.0731
  21   2.0000      -2.538389       -69.0731
  22   2.0000      -2.535642       -68.9983
  23   2.0000      -2.535639       -68.9982
  24   2.0000      -2.535426       -68.9925
  25   2.0000      -2.535424       -68.9924
  26   2.0000      -2.526057       -68.7375
  27   2.0000      -2.526055       -68.7375
  28   2.0000      -2.526038       -68.7370
  29   2.0000      -2.526036       -68.7369
  30   2.0000      -0.817877       -22.2556
  31   2.0000      -0.756676       -20.5902
  32   2.0000      -0.681637       -18.5483
  33   2.0000      -0.601674       -16.3724
  34   2.0000      -0.477113       -12.9829
  35   2.0000      -0.417739       -11.3672
  36   2.0000      -0.414544       -11.2803
  37   2.0000      -0.382545       -10.4096
  38   2.0000      -0.342808        -9.3283
  39   2.0000      -0.274281        -7.4636
  40   2.0000      -0.270765        -7.3679
  41   2.0000      -0.267898        -7.2899
  42   2.0000      -0.265599        -7.2273
  43   0.0000      -0.067060        -1.8248
  44   0.0000      -0.026862        -0.7309
  45   0.0000       0.049322         1.3421
  46   0.0000       0.073609         2.0030
  47   0.0000       0.078955         2.1485

MULLIKEN ATOMIC CHARGES
-----------------------
   0 C :   -0.139051
   1 C :   -0.139057
   2 Br:   -0.151012
   3 Br:   -0.151007
   4 H :    0.145031
   5 H :    0.145031
   6 H :    0.145032
   7 H :    0.145033
Sum of atomic charges:   -0.0000000

LOEWDIN ATOMIC CHARGES
----------------------
   0 C :   -0.456444
   1 C :   -0.456450
   2 Br:    0.195920
   3 Br:    0.195926
   4 H :    0.130263
   5 H :    0.130263
   6 H :    0.130262
   7 H :    0.130262

  Mayer bond orders larger than 0.100000
B(  0-C ,  1-C ) :   1.0172 B(  0-C ,  3-Br) :   0.9835 B(  0-C ,  4-H ) :   0.9551
B(  0-C ,  5-H ) :   0.9551 B(  1-C ,  2-Br) :   0.9835 B(  1-C ,  6-H ) :   0.9551
B(  1-C ,  7-H ) :   0.9551

Dispersion correction           -0.001983064
FINAL SINGLE POINT ENERGY     -5226.885246596011

DIPOLE MOMENT
-------------

Method             : SCF
Type of density    : Electron Density
Multiplicity       :   1
Irrep              :   0
Energy             : -5226.8875125992035464 Eh
Relativity type    :
Basis              : AO
                                X                 Y                 Z
Electronic contribution:      0.000000094       0.000127850      -0.000016669
Nuclear contribution   :     -0.000021989      -0.000138161       0.000018065
                        -----------------------------------------
Total Dipole Moment    :     -0.000021895      -0.000010311       0.000001397
                        -----------------------------------------
Magnitude (a.u.)       :      0.000024242
Magnitude (Debye)      :      0.000061618

VIBRATIONAL FREQUENCIES
-----------------------

Scaling factor for frequencies =  1.000000000  (already applied!)

     0:       0.00 cm**-1
     1:       0.00 cm**-1
     2:       0.00 cm**-1
     3:       0.00 cm**-1
     4:       0.00 cm**-1
     5:       0.00 cm**-1
     6:     119.78 cm**-1
     7:     183.90 cm**-1
     8:     184.95 cm**-1
     9:     554.78 cm**-1
    10:     624.92 cm**-1
    11:     769.90 cm**-1
    12:     942.59 cm**-1
    13:    1069.11 cm**-1
    14:    1092.35 cm**-1
    15:    1195.87 cm**-1
    16:    1261.11 cm**-1
    17:    1281.66 cm**-1
    18:    1475.96 cm**-1
    19:    1482.93 cm**-1
    20:    3090.12 cm**-1
    21:    3099.05 cm**-1
    22:    3159.40 cm**-1
    23:    3184.85 cm**-1

IR SPECTRUM
-----------

 Mode   freq       eps      Int      T**2         TX        TY        TZ
       cm**-1   L/(mol*cm) km/mol    a.u.
----------------------------------------------------------------------------
  6:    119.78   0.000941    4.76  0.002452  ( 0.000002  0.000000  0.049522)
  7:    183.90   0.000000    0.00  0.000000  (-0.000005 -0.000005  0.000000)
  8:    184.95   0.001677    8.48  0.002830  (-0.038761 -0.036438  0.000001)
  9:    554.78   0.018422   93.10  0.010362  ( 0.101480 -0.008004 -0.000001)
 10:    624.92   0.000000    0.00  0.000000  ( 0.000006  0.000000 -0.000000)
 11:    769.90   0.000665    3.36  0.000270  (-0.000000  0.000000  0.016424)
 12:    942.59   0.000000    0.00  0.000000  ( 0.000000 -0.000000  0.000001)
 13:   1069.11   0.000000    0.00  0.000000  ( 0.000001 -0.000000  0.000000)
 14:   1092.35   0.000528    2.67  0.000151  ( 0.000000 -0.000000 -0.012286)
 15:   1195.87   0.009915   50.11  0.002587  ( 0.046672 -0.020226 -0.000000)
 16:   1261.11   0.000000    0.00  0.000000  ( 0.000001  0.000002 -0.000000)
 17:   1281.66   0.000000    0.00  0.000000  (-0.000000  0.000000 -0.000000)
 18:   1475.96   0.001472    7.44  0.000311  (-0.005294 -0.016827  0.000000)
 19:   1482.93   0.000000    0.00  0.000000  ( 0.000001 -0.000001  0.000000)
 20:   3090.12   0.000000    0.00  0.000000  (-0.000004  0.000007 -0.000000)
 21:   3099.05   0.000834    4.22  0.000084  ( 0.005032 -0.007660  0.000000)
 22:   3159.40   0.000000    0.00  0.000000  ( 0.000000 -0.000000 -0.000000)
 23:   3184.85   0.000006    0.03  0.000001  (-0.000000  0.000000 -0.000759)

--------------------------
THERMOCHEMISTRY AT 298.15K
--------------------------

Temperature         ...   298.15 K
Pressure            ...     1.00 atm
Total Mass          ...   187.85 AMU
Quasi RRHO          ...     True
Cut-Off Frequency   ...     1.00 cm^-1

Throughout the following assumptions are being made:
  (1) The electronic state is orbitally nondegenerate
  (2) There are no thermally accessible electronically excited states
  (3) Hindered rotations indicated by low frequency modes are not
      treated as such but are treated as vibrations and this may
      cause some error
  (4) All equations used are the standard statistical mechanics
      equations for an ideal gas
  (5) All vibrations are strictly harmonic

freq.     119.78  E(vib)   ...       0.44
freq.     183.90  E(vib)   ...       0.37
freq.     184.95  E(vib)   ...       0.37
freq.     554.78  E(vib)   ...       0.12
freq.     624.92  E(vib)   ...       0.09
freq.     769.90  E(vib)   ...       0.05
freq.     942.59  E(vib)   ...       0.03
freq.    1069.11  E(vib)   ...       0.02
freq.    1092.35  E(vib)   ...       0.02
freq.    1195.87  E(vib)   ...       0.01
freq.    1261.11  E(vib)   ...       0.01
freq.    1281.66  E(vib)   ...       0.01
freq.    1475.96  E(vib)   ...       0.00
freq.    1482.93  E(vib)   ...       0.00
freq.    3090.12  E(vib)   ...       0.00
freq.    3099.05  E(vib)   ...       0.00
freq.    3159.40  E(vib)   ...       0.00
freq.    3184.85  E(vib)   ...       0.00

------------
INNER ENERGY
------------

The inner energy is: U= E(el) + E(ZPE) + E(vib) + E(rot) + E(trans)
    E(el)   - is the total energy from the electronic structure calculation
              = E(kin-el) + E(nuc-el) + E(el-el) + E(nuc-nuc)
    E(ZPE)  - the the zero temperature vibrational energy from the frequency calculation
    E(vib)  - the the finite temperature correction to E(ZPE) due to population
              of excited vibrational states
    E(rot)  - is the rotational thermal energy
    E(trans)- is the translational thermal energy

Summary of contributions to the inner energy U:
Electronic energy                ...  -5226.88524660 Eh
Zero point energy                ...      0.05643760 Eh      35.42 kcal/mol
Thermal vibrational correction   ...      0.00244229 Eh       1.53 kcal/mol
Thermal rotational correction    ...      0.00141627 Eh       0.89 kcal/mol
Thermal translational correction ...      0.00141627 Eh       0.89 kcal/mol
-----------------------------------------------------------------------
Total thermal energy                  -5226.82353416 Eh

Summary of corrections to the electronic energy:
(perhaps to be used in another calculation)
Total thermal correction                  0.00527483 Eh       3.31 kcal/mol
Non-thermal (ZPE) correction              0.05643760 Eh      35.42 kcal/mol
-----------------------------------------------------------------------
Total correction                          0.06171243 Eh      38.73 kcal/mol

--------
ENTHALPY
--------

The enthalpy is H = U + kB*T
                kB is Boltzmann's constant
Total thermal energy              ...  -5226.82353416 Eh
Thermal Enthalpy correction       ...      0.00094421 Eh       0.59 kcal/mol
-----------------------------------------------------------------------
Total Enthalpy                    ...  -5226.82258995 Eh

Note: Rotational entropy computed according to Herzberg
Infrared and Raman Spectra, Chapter V,1, Van Nostrand Reinhold, 1945
Point Group:  C2h, Symmetry Number:   2
Rotational constants in cm-1:     0.930569     0.019203     0.018952

Vibrational entropy computed according to the QRRHO of S. Grimme
Chem.Eur.J. 2012 18 9955 using a reference frequency of 100.0 cm-1

-------
ENTROPY
-------

The entropy contributions are T*S = T*(S(el)+S(vib)+S(rot)+S(trans))
     S(el)   - electronic entropy
     S(vib)  - vibrational entropy
     S(rot)  - rotational entropy
     S(trans)- translational entropy
The entropies will be listed as multiplied by the temperature to get
units of energy

Electronic entropy                ...      0.00000000 Eh      0.00 kcal/mol
Vibrational entropy               ...      0.00431635 Eh      2.71 kcal/mol
Rotational entropy                ...      0.01262861 Eh      7.92 kcal/mol
Translational entropy             ...      0.01976419 Eh     12.40 kcal/mol
-----------------------------------------------------------------------
Final entropy term                ...      0.03670916 Eh     23.04 kcal/mol

In case the symmetry of your molecule has not been determined correctly
or in case you have a reason to use a different symmetry number we print
out the resulting rotational entropy values for sn=1,12:

 non-linear molecules -----------------------------------
|  sn= 1 | S(rot)=       0.01328307 Eh      8.34 kcal/mol|
|  sn= 2 | S(rot)=       0.01262861 Eh      7.92 kcal/mol|
|  sn= 3 | S(rot)=       0.01224578 Eh      7.68 kcal/mol|
|  sn= 4 | S(rot)=       0.01197416 Eh      7.51 kcal/mol|
|  sn= 5 | S(rot)=       0.01176347 Eh      7.38 kcal/mol|
|  sn= 6 | S(rot)=       0.01159132 Eh      7.27 kcal/mol|
|  sn= 7 | S(rot)=       0.01144578 Eh      7.18 kcal/mol|
|  sn= 8 | S(rot)=       0.01131970 Eh      7.10 kcal/mol|
|  sn= 9 | S(rot)=       0.01120849 Eh      7.03 kcal/mol|
|  sn=10 | S(rot)=       0.01110901 Eh      6.97 kcal/mol|
|  sn=11 | S(rot)=       0.01101902 Eh      6.91 kcal/mol|
|  sn=12 | S(rot)=       0.01093687 Eh      6.86 kcal/mol|
 linear molecules ---------------------------------------
|  Dinfh | S(rot)=       0.00907030 Eh      5.69 kcal/mol|
|  Cinfv | S(rot)=       0.00972476 Eh      6.10 kcal/mol|
 --------------------------------------------------------

-------------------
GIBBS FREE ENERGY
-------------------

The Gibbs free energy is G = H - T*S

Total enthalpy                    ...  -5226.82258995 Eh
Total entropy correction          ...     -0.03670916 Eh    -23.04 kcal/mol
-----------------------------------------------------------------------
Final Gibbs free energy         ...  -5226.85929911 Eh

For completeness - the Gibbs free energy minus the electronic energy
G-E(el)                           ...      0.02594749 Eh     16.28 kcal/mol

                             ****ORCA TERMINATED NORMALLY****
TOTAL RUN TIME: 0 days 0 hours 2 minutes 28 seconds 966 msec
