                         Program Version 6.0.0  -   RELEASE  -
|  1> ! r2SCAN-3c DEF2-TZVP FREQ
|  2> * xyzfile 0 1 vacuum_censo.xyz
|  3>
|  4>                          ****END OF INPUT****

CARTESIAN COORDINATES (ANGSTROEM)
---------------------------------
  C     -0.448496    0.602793    0.000122
  C      0.448440   -0.602711    0.000122
  Br     2.328006    0.029755    0.000073
  Br    -2.328059   -0.029679    0.000084
  H     -0.331019    1.211110   -0.895045
  H     -0.331045    1.211089    0.895304
  H      0.330990   -1.211007    0.895306
  H      0.330958   -1.211031   -0.895040

 Total Charge           Charge          ....    0
 Multiplicity           Mult            ....    1
 Number of Electrons    NEL             ....   86
 Basis Dimension        Dim             ....  182

ORBITAL ENERGIES
----------------

  NO   OCC          E(Eh)            E(eV)
   0   2.0000    -482.230373    -13122.1556
   1   2.0000    -482.230371    -13122.1555
   2   2.0000     -62.301938     -1695.3219
   3   2.0000     -62.301935     -1695.3218
   4   2.0000     -56.083273     -1526.1034
   5   2.0000     -56.083270     -1526.1034
   6   2.0000     -56.079189     -1525.9923
   7   2.0000     -56.079187     -1525.9923
   8   2.0000     -56.079100     -1525.9899
   9   2.0000     -56.079099     -1525.9899
  10   2.0000     -10.112619      -275.1784
  11   2.0000     -10.112463      -275.1741
  12   2.0000      -8.634626      -234.9601
  13   2.0000      -8.634619      -234.9599
  14   2.0000      -6.441185      -175.2736
  15   2.0000      -6.441185      -175.2736
  16   2.0000      -6.429007      -174.9422
  17   2.0000      -6.429007      -174.9422
  18   2.0000      -6.428664      -174.9328
  19   2.0000      -6.428664      -174.9328
  20   2.0000      -2.538828       -69.0850
  21   2.0000      -2.538828       -69.0850
  22   2.0000      -2.536071       -69.0100
  23   2.0000      -2.536069       -69.0099
  24   2.0000      -2.535861       -69.0043
  25   2.0000      -2.535859       -69.0042
  26   2.0000      -2.526488       -68.7492
  27   2.0000      -2.526487       -68.7492
  28   2.0000      -2.526469       -68.7487
  29   2.0000      -2.526468       -68.7487
  30   2.0000      -0.818692       -22.2777
  31   2.0000      -0.758231       -20.6325
  32   2.0000      -0.681307       -18.5393
  33   2.0000      -0.600942       -16.3525
  34   2.0000      -0.476365       -12.9626
  35   2.0000      -0.416173       -11.3246
  36   2.0000      -0.415851       -11.3159
  37   2.0000      -0.381648       -10.3852
  38   2.0000      -0.344669        -9.3789
  39   2.0000      -0.274673        -7.4742
  40   2.0000      -0.270797        -7.3688
  41   2.0000      -0.267818        -7.2877
  42   2.0000      -0.265658        -7.2289
  43   0.0000      -0.064004        -1.7416
  44   0.0000      -0.025145        -0.6842
  45   0.0000       0.049985         1.3601
  46   0.0000       0.074561         2.0289
  47   0.0000       0.079521         2.1639

MULLIKEN ATOMIC CHARGES
-----------------------
   0 C :   -0.140758
   1 C :   -0.140758
   2 Br:   -0.145995
   3 Br:   -0.145995
   4 H :    0.143377
   5 H :    0.143376
   6 H :    0.143376
   7 H :    0.143377
Sum of atomic charges:    0.0000000

LOEWDIN ATOMIC CHARGES
----------------------
   0 C :   -0.464096
   1 C :   -0.464096
   2 Br:    0.204272
   3 Br:    0.204273
   4 H :    0.129912
   5 H :    0.129912
   6 H :    0.129912
   7 H :    0.129912

  Mayer bond orders larger than 0.100000
B(  0-C ,  1-C ) :   1.0147 B(  0-C ,  3-Br) :   0.9895 B(  0-C ,  4-H ) :   0.9554
B(  0-C ,  5-H ) :   0.9554 B(  1-C ,  2-Br) :   0.9895 B(  1-C ,  6-H ) :   0.9554
B(  1-C ,  7-H ) :   0.9554

Dispersion correction           -0.001985048
FINAL SINGLE POINT ENERGY     -5226.885418492579

DIPOLE MOMENT
-------------

Method             : SCF
Type of density    : Electron Density
Multiplicity       :   1
Irrep              :   0
Energy             : -5226.8877193203097704 Eh
Relativity type    :
Basis              : AO
                                X                 Y                 Z
Electronic contribution:      0.000010413      -0.000014567      -0.000267589
Nuclear contribution   :     -0.000014587       0.000016278       0.000296837
                        -----------------------------------------
Total Dipole Moment    :     -0.000004174       0.000001711       0.000029248
                        -----------------------------------------
Magnitude (a.u.)       :      0.000029594
Magnitude (Debye)      :      0.000075221

VIBRATIONAL FREQUENCIES
-----------------------

Scaling factor for frequencies =  1.000000000  (already applied!)

     0:       0.00 cm**-1
     1:       0.00 cm**-1
     2:       0.00 cm**-1
     3:       0.00 cm**-1
     4:       0.00 cm**-1
     5:       0.00 cm**-1
     6:     116.18 cm**-1
     7:     183.72 cm**-1
     8:     185.82 cm**-1
     9:     568.14 cm**-1
    10:     638.38 cm**-1
    11:     767.31 cm**-1
    12:     943.90 cm**-1
    13:    1066.41 cm**-1
    14:    1096.06 cm**-1
    15:    1200.65 cm**-1
    16:    1268.92 cm**-1
    17:    1284.42 cm**-1
    18:    1476.73 cm**-1
    19:    1481.70 cm**-1
    20:    3089.38 cm**-1
    21:    3098.57 cm**-1
    22:    3156.91 cm**-1
    23:    3182.45 cm**-1

IR SPECTRUM
-----------

 Mode   freq       eps      Int      T**2         TX        TY        TZ
       cm**-1   L/(mol*cm) km/mol    a.u.
----------------------------------------------------------------------------
  6:    116.18   0.000920    4.65  0.002472  (-0.000000 -0.000000 -0.049721)
  7:    183.72   0.001600    8.09  0.002718  ( 0.037760 -0.035953  0.000000)
  8:    185.82   0.000000    0.00  0.000000  ( 0.000000 -0.000001  0.000002)
  9:    568.14   0.017492   88.40  0.009608  (-0.097729 -0.007569  0.000000)
 10:    638.38   0.000000    0.00  0.000000  ( 0.000001  0.000000  0.000000)
 11:    767.31   0.000678    3.43  0.000276  (-0.000000 -0.000000  0.016609)
 12:    943.90   0.000000    0.00  0.000000  (-0.000000  0.000000  0.000000)
 13:   1066.41   0.000000    0.00  0.000000  (-0.000000 -0.000000 -0.000001)
 14:   1096.06   0.000574    2.90  0.000163  ( 0.000001  0.000000  0.012781)
 15:   1200.65   0.010113   51.11  0.002628  ( 0.046821  0.020885 -0.000000)
 16:   1268.92   0.000000    0.00  0.000000  ( 0.000000 -0.000000 -0.000001)
 17:   1284.42   0.000000    0.00  0.000000  (-0.000001  0.000000 -0.000000)
 18:   1476.73   0.001494    7.55  0.000316  ( 0.006069 -0.016700 -0.000000)
 19:   1481.70   0.000000    0.00  0.000000  ( 0.000000 -0.000001 -0.000000)
 20:   3089.38   0.000000    0.00  0.000000  (-0.000000 -0.000001 -0.000000)
 21:   3098.57   0.000996    5.03  0.000100  ( 0.005460  0.008395 -0.000000)
 22:   3156.91   0.000000    0.00  0.000000  ( 0.000000 -0.000000  0.000000)
 23:   3182.45   0.000023    0.12  0.000002  (-0.000000 -0.000001 -0.001508)

--------------------------
THERMOCHEMISTRY AT 298.15K
--------------------------

Temperature         ...   298.15 K
Pressure            ...     1.00 atm
Total Mass          ...   187.85 AMU
Quasi RRHO          ...     True
Cut-Off Frequency   ...     1.00 cm^-1

Throughout the following assumptions are being made:
  (1) The electronic state is orbitally nondegenerate
  (2) There are no thermally accessible electronically excited states
  (3) Hindered rotations indicated by low frequency modes are not
      treated as such but are treated as vibrations and this may
      cause some error
  (4) All equations used are the standard statistical mechanics
      equations for an ideal gas
  (5) All vibrations are strictly harmonic

freq.     116.18  E(vib)   ...       0.44
freq.     183.72  E(vib)   ...       0.37
freq.     185.82  E(vib)   ...       0.37
freq.     568.14  E(vib)   ...       0.11
freq.     638.38  E(vib)   ...       0.09
freq.     767.31  E(vib)   ...       0.06
freq.     943.90  E(vib)   ...       0.03
freq.    1066.41  E(vib)   ...       0.02
freq.    1096.06  E(vib)   ...       0.02
freq.    1200.65  E(vib)   ...       0.01
freq.    1268.92  E(vib)   ...       0.01
freq.    1284.42  E(vib)   ...       0.01
freq.    1476.73  E(vib)   ...       0.00
freq.    1481.70  E(vib)   ...       0.00
freq.    3089.38  E(vib)   ...       0.00
freq.    3098.57  E(vib)   ...       0.00
freq.    3156.91  E(vib)   ...       0.00
freq.    3182.45  E(vib)   ...       0.00

------------
INNER ENERGY
------------

The inner energy is: U= E(el) + E(ZPE) + E(vib) + E(rot) + E(trans)
    E(el)   - is the total energy from the electronic structure calculation
              = E(kin-el) + E(nuc-el) + E(el-el) + E(nuc-nuc)
    E(ZPE)  - the the zero temperature vibrational energy from the frequency calculation
    E(vib)  - the the finite temperature correction to E(ZPE) due to population
              of excited vibrational states
    E(rot)  - is the rotational thermal energy
    E(trans)- is the translational thermal energy

Summary of contributions to the inner energy U:
Electronic energy                ...  -5226.88541849 Eh
Zero point energy                ...      0.05651138 Eh      35.46 kcal/mol
Thermal vibrational correction   ...      0.00243254 Eh       1.53 kcal/mol
Thermal rotational correction    ...      0.00141627 Eh       0.89 kcal/mol
Thermal translational correction ...      0.00141627 Eh       0.89 kcal/mol
-----------------------------------------------------------------------
Total thermal energy                  -5226.82364202 Eh

Summary of corrections to the electronic energy:
(perhaps to be used in another calculation)
Total thermal correction                  0.00526509 Eh       3.30 kcal/mol
Non-thermal (ZPE) correction              0.05651138 Eh      35.46 kcal/mol
-----------------------------------------------------------------------
Total correction                          0.06177647 Eh      38.77 kcal/mol

--------
ENTHALPY
--------

The enthalpy is H = U + kB*T
                kB is Boltzmann's constant
Total thermal energy              ...  -5226.82364202 Eh
Thermal Enthalpy correction       ...      0.00094421 Eh       0.59 kcal/mol
-----------------------------------------------------------------------
Total Enthalpy                    ...  -5226.82269782 Eh

Note: Rotational entropy computed according to Herzberg
Infrared and Raman Spectra, Chapter V,1, Van Nostrand Reinhold, 1945
Point Group:  C2h, Symmetry Number:   2
Rotational constants in cm-1:     0.936379     0.019275     0.019024

Vibrational entropy computed according to the QRRHO of S. Grimme
Chem.Eur.J. 2012 18 9955 using a reference frequency of 100.0 cm-1

-------
ENTROPY
-------

The entropy contributions are T*S = T*(S(el)+S(vib)+S(rot)+S(trans))
     S(el)   - electronic entropy
     S(vib)  - vibrational entropy
     S(rot)  - rotational entropy
     S(trans)- translational entropy
The entropies will be listed as multiplied by the temperature to get
units of energy

Electronic entropy                ...      0.00000000 Eh      0.00 kcal/mol
Vibrational entropy               ...      0.00430817 Eh      2.70 kcal/mol
Rotational entropy                ...      0.01262210 Eh      7.92 kcal/mol
Translational entropy             ...      0.01976419 Eh     12.40 kcal/mol
-----------------------------------------------------------------------
Final entropy term                ...      0.03669446 Eh     23.03 kcal/mol

In case the symmetry of your molecule has not been determined correctly
or in case you have a reason to use a different symmetry number we print
out the resulting rotational entropy values for sn=1,12:

 non-linear molecules -----------------------------------
|  sn= 1 | S(rot)=       0.01327655 Eh      8.33 kcal/mol|
|  sn= 2 | S(rot)=       0.01262210 Eh      7.92 kcal/mol|
|  sn= 3 | S(rot)=       0.01223927 Eh      7.68 kcal/mol|
|  sn= 4 | S(rot)=       0.01196764 Eh      7.51 kcal/mol|
|  sn= 5 | S(rot)=       0.01175695 Eh      7.38 kcal/mol|
|  sn= 6 | S(rot)=       0.01158481 Eh      7.27 kcal/mol|
|  sn= 7 | S(rot)=       0.01143926 Eh      7.18 kcal/mol|
|  sn= 8 | S(rot)=       0.01131319 Eh      7.10 kcal/mol|
|  sn= 9 | S(rot)=       0.01120198 Eh      7.03 kcal/mol|
|  sn=10 | S(rot)=       0.01110250 Eh      6.97 kcal/mol|
|  sn=11 | S(rot)=       0.01101251 Eh      6.91 kcal/mol|
|  sn=12 | S(rot)=       0.01093035 Eh      6.86 kcal/mol|
 linear molecules ---------------------------------------
|  Dinfh | S(rot)=       0.00906671 Eh      5.69 kcal/mol|
|  Cinfv | S(rot)=       0.00972116 Eh      6.10 kcal/mol|
 --------------------------------------------------------

-------------------
GIBBS FREE ENERGY
-------------------

The Gibbs free energy is G = H - T*S

Total enthalpy                    ...  -5226.82269782 Eh
Total entropy correction          ...     -0.03669446 Eh    -23.03 kcal/mol
-----------------------------------------------------------------------
Final Gibbs free energy         ...  -5226.85939228 Eh

For completeness - the Gibbs free energy minus the electronic energy
G-E(el)                           ...      0.02602622 Eh     16.33 kcal/mol

                             ****ORCA TERMINATED NORMALLY****
TOTAL RUN TIME: 0 days 0 hours 2 minutes 29 seconds 244 msec
