                         Program Version 6.0.1  -  RELEASE   -
|  1> ! pbe def2-sv(p) def2/J RI DEFGRID1 loosescf d4 GCP(DFT/SV(P)) printgap
|  2> %output
|  3>     printlevel normal
|  4> end
|  5> * xyz 0 1
|  6> C 0.0022258299 1.2485896705 0.1126634127
|  7> C 1.2257120128 0.3370158245 -0.0882968321
|  8> C 0.6585224476 -1.0454156195 0.0372324492
|  9> C -0.6622615336 -1.0430700451 0.0371819144
| 10> C -1.2244975278 0.3413524191 -0.088274661
| 11> H 0.0037239033 2.0925425882 -0.5748582801
| 12> H 0.00298959 1.6439443838 1.1288821262
| 13> H 1.6676482491 0.4686977215 -1.0803203643
| 14> H 2.0089805548 0.5278271273 0.646893468
| 15> H 1.2960023936 -1.9111132873 0.0937515186
| 16> H -1.3027071242 -1.9065705232 0.093781945
| 17> H -1.6660181689 0.4746360043 -1.0802760433
| 18> H -2.0070589855 0.5349390625 0.6469437579
| 19> *
| 20>
| 21>                          ****END OF INPUT****

CARTESIAN COORDINATES (ANGSTROEM)
---------------------------------
  C      0.002226    1.248590    0.112663
  C      1.225712    0.337016   -0.088297
  C      0.658522   -1.045416    0.037232
  C     -0.662262   -1.043070    0.037182
  C     -1.224498    0.341352   -0.088275
  H      0.003724    2.092543   -0.574858
  H      0.002990    1.643944    1.128882
  H      1.667648    0.468698   -1.080320
  H      2.008981    0.527827    0.646893
  H      1.296002   -1.911113    0.093752
  H     -1.302707   -1.906571    0.093782
  H     -1.666018    0.474636   -1.080276
  H     -2.007059    0.534939    0.646944

 Total Charge           Charge          ....    0
 Multiplicity           Mult            ....    1
 Number of Electrons    NEL             ....   38
 Basis Dimension        Dim             ....   86

ORBITAL ENERGIES
----------------

  NO   OCC          E(Eh)            E(eV)
   0   2.0000      -9.882184      -268.9079
   1   2.0000      -9.882178      -268.9077
   2   2.0000      -9.880719      -268.8680
   3   2.0000      -9.878906      -268.8187
   4   2.0000      -9.878287      -268.8019
   5   2.0000      -0.759767       -20.6743
   6   2.0000      -0.630150       -17.1473
   7   2.0000      -0.630027       -17.1439
   8   2.0000      -0.506089       -13.7714
   9   2.0000      -0.467753       -12.7282
  10   2.0000      -0.446016       -12.1367
  11   2.0000      -0.419863       -11.4251
  12   2.0000      -0.353206        -9.6112
  13   2.0000      -0.332438        -9.0461
  14   2.0000      -0.305444        -8.3115
  15   2.0000      -0.300282        -8.1711
  16   2.0000      -0.299252        -8.1431
  17   2.0000      -0.298762        -8.1297
  18   2.0000      -0.207594        -5.6489
  19   0.0000      -0.004845        -0.1318
  20   0.0000       0.041117         1.1189
  21   0.0000       0.068857         1.8737
  22   0.0000       0.087207         2.3730
  23   0.0000       0.087324         2.3762

MULLIKEN ATOMIC CHARGES
-----------------------
   0 C :   -0.174152
   1 C :   -0.120700
   2 C :   -0.131480
   3 C :   -0.131463
   4 C :   -0.120666
   5 H :    0.086341
   6 H :    0.091557
   7 H :    0.095913
   8 H :    0.093078
   9 H :    0.061289
  10 H :    0.061291
  11 H :    0.095912
  12 H :    0.093080
Sum of atomic charges:   -0.0000000

LOEWDIN ATOMIC CHARGES
----------------------
   0 C :   -0.220835
   1 C :   -0.223819
   2 C :   -0.144424
   3 C :   -0.144427
   4 C :   -0.223812
   5 H :    0.117346
   6 H :    0.120758
   7 H :    0.122468
   8 H :    0.119940
   9 H :    0.117193
  10 H :    0.117198
  11 H :    0.122469
  12 H :    0.119943

  Mayer bond orders larger than 0.100000
B(  0-C ,  1-C ) :   1.1392 B(  0-C ,  4-C ) :   1.1392 B(  0-C ,  5-H ) :   0.9305
B(  0-C ,  6-H ) :   0.9298 B(  1-C ,  2-C ) :   1.0630 B(  1-C ,  7-H ) :   0.9043
B(  1-C ,  8-H ) :   0.9219 B(  2-C ,  3-C ) :   1.8960 B(  2-C ,  9-H ) :   0.9680
B(  3-C ,  4-C ) :   1.0630 B(  3-C , 10-H ) :   0.9680 B(  4-C , 11-H ) :   0.9043
B(  4-C , 12-H ) :   0.9219

Dispersion correction           -0.009553460
FINAL SINGLE POINT ENERGY      -194.849405813377

DIPOLE MOMENT
-------------

Method             : SCF
Type of density    : Electron Density
Multiplicity       :   1
Irrep              :   0
Energy             :  -194.8905752489459928 Eh
Relativity type    :
Basis              : AO
                                X                 Y                 Z
Electronic contribution:     -0.003229873      -1.743209563       0.094354190
Nuclear contribution   :      0.003340256       1.805877462      -0.117460064
                        -----------------------------------------
Total Dipole Moment    :      0.000110382       0.062667899      -0.023105874
                        -----------------------------------------
Magnitude (a.u.)       :      0.066791910
Magnitude (Debye)      :      0.169771542

Rotational constants in cm-1:             0.246495             0.244778             0.132895
Rotational constants in MHz :          7389.725894          7338.252101          3984.101750

                             ****ORCA TERMINATED NORMALLY****
TOTAL RUN TIME: 0 days 0 hours 0 minutes 6 seconds 339 msec
