                         Program Version 6.0.1  -  RELEASE   -
|  1> ! pbe def2-sv(p) def2/J RI DEFGRID1 loosescf d4 GCP(DFT/SV(P)) printgap
|  2> %output
|  3>     printlevel normal
|  4> end
|  5> * xyz 0 1
|  6> C 1.3065443051 -0.949832661 -0.3750665581
|  7> C 0.5270875605 0.0696542997 0.4603918303
|  8> C 0.728840686 1.4873472615 -0.0821963108
|  9> O -0.8405738197 -0.2738264476 0.620434888
| 10> C -1.6263171242 -0.3200876469 -0.5454171427
| 11> H 2.3722986833 -0.7712605181 -0.2627637662
| 12> H 1.0823533388 -1.9583540917 -0.0357801603
| 13> H 1.054620102 -0.8670384094 -1.4300241524
| 14> H 0.8965864711 0.0331976071 1.4927277159
| 15> H 0.4845694543 1.5406564808 -1.1408298291
| 16> H 1.7675887434 1.779409521 0.0443131562
| 17> H 0.0991502399 2.1872659038 0.4619078546
| 18> H -1.2679354021 -1.0736147481 -1.2544585225
| 19> H -1.6759229008 0.6514779576 -1.0478924784
| 20> H -2.6260739512 -0.5961261184 -0.2136097798
| 21> *
| 22>
| 23>                          ****END OF INPUT****

CARTESIAN COORDINATES (ANGSTROEM)
---------------------------------
  C      1.306544   -0.949833   -0.375067
  C      0.527088    0.069654    0.460392
  C      0.728841    1.487347   -0.082196
  O     -0.840574   -0.273826    0.620435
  C     -1.626317   -0.320088   -0.545417
  H      2.372299   -0.771261   -0.262764
  H      1.082353   -1.958354   -0.035780
  H      1.054620   -0.867038   -1.430024
  H      0.896586    0.033198    1.492728
  H      0.484569    1.540656   -1.140830
  H      1.767589    1.779410    0.044313
  H      0.099150    2.187266    0.461908
  H     -1.267935   -1.073615   -1.254459
  H     -1.675923    0.651478   -1.047892
  H     -2.626074   -0.596126   -0.213610

 Total Charge           Charge          ....    0
 Multiplicity           Mult            ....    1
 Number of Electrons    NEL             ....   42
 Basis Dimension        Dim             ....   90

ORBITAL ENERGIES
----------------

  NO   OCC          E(Eh)            E(eV)
   0   2.0000     -18.742697      -510.0147
   1   2.0000      -9.936013      -270.3727
   2   2.0000      -9.918737      -269.9026
   3   2.0000      -9.874593      -268.7013
   4   2.0000      -9.874576      -268.7009
   5   2.0000      -0.925099       -25.1732
   6   2.0000      -0.699596       -19.0370
   7   2.0000      -0.615716       -16.7545
   8   2.0000      -0.613975       -16.7071
   9   2.0000      -0.504385       -13.7250
  10   2.0000      -0.441352       -12.0098
  11   2.0000      -0.415317       -11.3013
  12   2.0000      -0.402090       -10.9414
  13   2.0000      -0.362772        -9.8715
  14   2.0000      -0.361656        -9.8412
  15   2.0000      -0.352768        -9.5993
  16   2.0000      -0.337690        -9.1890
  17   2.0000      -0.305397        -8.3103
  18   2.0000      -0.305093        -8.3020
  19   2.0000      -0.247443        -6.7333
  20   2.0000      -0.198875        -5.4117
  21   0.0000       0.034564         0.9405
  22   0.0000       0.064598         1.7578
  23   0.0000       0.079427         2.1613
  24   0.0000       0.093893         2.5550
  25   0.0000       0.097056         2.6410

MULLIKEN ATOMIC CHARGES
-----------------------
   0 C :   -0.275135
   1 C :    0.008205
   2 C :   -0.275356
   3 O :   -0.331558
   4 C :   -0.108472
   5 H :    0.101577
   6 H :    0.110701
   7 H :    0.100949
   8 H :    0.072668
   9 H :    0.100924
  10 H :    0.101643
  11 H :    0.110775
  12 H :    0.085682
  13 H :    0.085803
  14 H :    0.111593
Sum of atomic charges:   -0.0000000

LOEWDIN ATOMIC CHARGES
----------------------
   0 C :   -0.352515
   1 C :   -0.056751
   2 C :   -0.352540
   3 O :   -0.174764
   4 C :   -0.211324
   5 H :    0.125448
   6 H :    0.123662
   7 H :    0.116700
   8 H :    0.111455
   9 H :    0.116686
  10 H :    0.125442
  11 H :    0.123689
  12 H :    0.094817
  13 H :    0.094856
  14 H :    0.115138

  Mayer bond orders larger than 0.100000
B(  0-C ,  1-C ) :   1.1043 B(  0-C ,  5-H ) :   0.9440 B(  0-C ,  6-H ) :   0.9443
B(  0-C ,  7-H ) :   0.9426 B(  1-C ,  2-C ) :   1.1036 B(  1-C ,  3-O ) :   1.0419
B(  1-C ,  8-H ) :   0.9155 B(  2-C ,  9-H ) :   0.9427 B(  2-C , 10-H ) :   0.9440
B(  2-C , 11-H ) :   0.9443 B(  3-O ,  4-C ) :   1.0272 B(  4-C , 12-H ) :   0.9374
B(  4-C , 13-H ) :   0.9374 B(  4-C , 14-H ) :   0.9649

Dispersion correction           -0.009837364
FINAL SINGLE POINT ENERGY      -233.085722367782

DIPOLE MOMENT
-------------

Method             : SCF
Type of density    : Electron Density
Multiplicity       :   1
Irrep              :   0
Energy             :  -233.1440470468407113 Eh
Relativity type    :
Basis              : AO
                                X                 Y                 Z
Electronic contribution:     -1.831580929      -0.766717874       2.767206117
Nuclear contribution   :      2.039510238       0.864313516      -3.167799776
                        -----------------------------------------
Total Dipole Moment    :      0.207929310       0.097595642      -0.400593659
                        -----------------------------------------
Magnitude (a.u.)       :      0.461773523
Magnitude (Debye)      :      1.173735018

Rotational constants in cm-1:             0.216440             0.138932             0.108851
Rotational constants in MHz :          6488.720121          4165.075024          3263.270804

                             ****ORCA TERMINATED NORMALLY****
TOTAL RUN TIME: 0 days 0 hours 0 minutes 12 seconds 273 msec
