                         Program Version 6.0.0  -   RELEASE  -
|  1> ! r2SCAN-3c DEF2-TZVP FREQ
|  2> * xyzfile 0 1 censo.xyz
|  3>
|  4>                          ****END OF INPUT****

CARTESIAN COORDINATES (ANGSTROEM)
---------------------------------
  C      0.198961    1.518596   -0.000071
  C      1.096766    0.515055   -0.000110
  C      0.699284   -0.868820   -0.000062
  O      1.465288   -1.832962   -0.000077
  N     -0.684986   -1.031975   -0.000030
  C     -1.648815   -0.041281    0.000012
  O     -2.853405   -0.283530    0.000095
  N     -1.139414    1.236579   -0.000036
  F      2.417500    0.767446   -0.000144
  H      0.484477    2.564006   -0.000073
  H     -1.031139   -1.986225    0.000008
  H     -1.809040    1.995643    0.000050

 Total Charge           Charge          ....    0
 Multiplicity           Mult            ....    1
 Number of Electrons    NEL             ....   66
 Basis Dimension        Dim             ....  297

ORBITAL ENERGIES
----------------

  NO   OCC          E(Eh)            E(eV)
   0   2.0000     -24.522077      -667.2796
   1   2.0000     -18.944226      -515.4986
   2   2.0000     -18.943737      -515.4853
   3   2.0000     -14.255152      -387.9024
   4   2.0000     -14.238020      -387.4362
   5   2.0000     -10.197050      -277.4758
   6   2.0000     -10.167035      -276.6591
   7   2.0000     -10.147088      -276.1163
   8   2.0000     -10.129537      -275.6387
   9   2.0000      -1.209461       -32.9111
  10   2.0000      -1.055754       -28.7285
  11   2.0000      -1.016934       -27.6722
  12   2.0000      -0.964719       -26.2513
  13   2.0000      -0.915969       -24.9248
  14   2.0000      -0.784335       -21.3428
  15   2.0000      -0.685451       -18.6521
  16   2.0000      -0.656873       -17.8744
  17   2.0000      -0.590215       -16.0606
  18   2.0000      -0.566812       -15.4237
  19   2.0000      -0.515450       -14.0261
  20   2.0000      -0.495790       -13.4911
  21   2.0000      -0.480411       -13.0726
  22   2.0000      -0.467484       -12.7209
  23   2.0000      -0.439614       -11.9625
  24   2.0000      -0.419600       -11.4179
  25   2.0000      -0.410615       -11.1734
  26   2.0000      -0.390293       -10.6204
  27   2.0000      -0.372694       -10.1415
  28   2.0000      -0.350358        -9.5337
  29   2.0000      -0.278386        -7.5753
  30   2.0000      -0.275411        -7.4943
  31   2.0000      -0.248994        -6.7755
  32   2.0000      -0.237681        -6.4676
  33   0.0000      -0.091397        -2.4870
  34   0.0000      -0.032905        -0.8954
  35   0.0000       0.003719         0.1012
  36   0.0000       0.045406         1.2356
  37   0.0000       0.055702         1.5157

MULLIKEN ATOMIC CHARGES
-----------------------
   0 C :   -0.017848
   1 C :    0.142685
   2 C :    0.221541
   3 O :   -0.347762
   4 N :   -0.219327
   5 C :    0.320360
   6 O :   -0.379783
   7 N :   -0.223438
   8 F :   -0.180600
   9 H :    0.162205
  10 H :    0.262079
  11 H :    0.259889
Sum of atomic charges:   -0.0000000

LOEWDIN ATOMIC CHARGES
----------------------
   0 C :   -0.154310
   1 C :   -0.274011
   2 C :   -0.408253
   3 O :    0.087119
   4 N :    0.214085
   5 C :   -0.498724
   6 O :    0.050203
   7 N :    0.190349
   8 F :    0.210946
   9 H :    0.155647
  10 H :    0.215194
  11 H :    0.211756

  Mayer bond orders larger than 0.100000
B(  0-C ,  1-C ) :   1.6707 B(  0-C ,  7-N ) :   1.0943 B(  0-C ,  9-H ) :   0.9255
B(  1-C ,  2-C ) :   1.0704 B(  1-C ,  8-F ) :   1.0631 B(  2-C ,  3-O ) :   2.0321
B(  2-C ,  4-N ) :   1.0795 B(  4-N ,  5-C ) :   1.1350 B(  4-N , 10-H ) :   0.8790
B(  5-C ,  6-O ) :   2.0298 B(  5-C ,  7-N ) :   1.1136 B(  7-N , 11-H ) :   0.8964

Dispersion correction           -0.003771804
FINAL SINGLE POINT ENERGY      -514.013650753320

DIPOLE MOMENT
-------------

Method             : SCF
Type of density    : Electron Density
Multiplicity       :   1
Irrep              :   0
Energy             :  -514.0222144173721972 Eh
Relativity type    :
Basis              : AO
                                X                 Y                 Z
Electronic contribution:      4.028749512      -0.044232842      -0.000192082
Nuclear contribution   :     -4.479769595       1.677932877       0.000211062
                        -----------------------------------------
Total Dipole Moment    :     -0.451020083       1.633700035       0.000018979
                        -----------------------------------------
Magnitude (a.u.)       :      1.694814125
Magnitude (Debye)      :      4.307875154

VIBRATIONAL FREQUENCIES
-----------------------

Scaling factor for frequencies =  1.000000000  (already applied!)

     0:       0.00 cm**-1
     1:       0.00 cm**-1
     2:       0.00 cm**-1
     3:       0.00 cm**-1
     4:       0.00 cm**-1
     5:       0.00 cm**-1
     6:     128.93 cm**-1
     7:     174.13 cm**-1
     8:     321.42 cm**-1
     9:     352.35 cm**-1
    10:     390.97 cm**-1
    11:     403.67 cm**-1
    12:     463.61 cm**-1
    13:     545.86 cm**-1
    14:     605.30 cm**-1
    15:     634.82 cm**-1
    16:     701.74 cm**-1
    17:     758.36 cm**-1
    18:     760.10 cm**-1
    19:     772.74 cm**-1
    20:     818.75 cm**-1
    21:     881.26 cm**-1
    22:     981.78 cm**-1
    23:    1180.91 cm**-1
    24:    1207.64 cm**-1
    25:    1263.96 cm**-1
    26:    1356.93 cm**-1
    27:    1390.80 cm**-1
    28:    1438.48 cm**-1
    29:    1514.10 cm**-1
    30:    1681.86 cm**-1
    31:    1700.75 cm**-1
    32:    1736.22 cm**-1
    33:    3207.22 cm**-1
    34:    3549.76 cm**-1
    35:    3581.06 cm**-1

IR SPECTRUM
-----------

 Mode   freq       eps      Int      T**2         TX        TY        TZ
       cm**-1   L/(mol*cm) km/mol    a.u.
----------------------------------------------------------------------------
  6:    128.93   0.000361    1.83  0.000874  ( 0.000010  0.000004  0.029566)
  7:    174.13   0.000464    2.35  0.000832  ( 0.000006 -0.000008  0.028844)
  8:    321.42   0.000127    0.64  0.000124  ( 0.008895  0.006671 -0.000001)
  9:    352.35   0.000776    3.92  0.000687  (-0.000004  0.000005  0.026216)
 10:    390.97   0.001360    6.87  0.001086  ( 0.000014 -0.000006 -0.032951)
 11:    403.67   0.003327   16.81  0.002572  ( 0.011578  0.049378  0.000003)
 12:    463.61   0.001509    7.62  0.001015  (-0.023657  0.021349  0.000004)
 13:    545.86   0.001485    7.50  0.000849  ( 0.010304 -0.027249 -0.000009)
 14:    605.30   0.011507   58.15  0.005932  (-0.000004  0.000008  0.077022)
 15:    634.82   0.000331    1.67  0.000163  (-0.001948 -0.012607  0.000016)
 16:    701.74   0.011324   57.23  0.005036  (-0.000002 -0.000009 -0.070962)
 17:    758.36   0.008680   43.87  0.003572  (-0.000059 -0.000043  0.059766)
 18:    760.10   0.002693   13.61  0.001106  (-0.028687 -0.016816 -0.000128)
 19:    772.74   0.003276   16.56  0.001323  (-0.000012  0.000009 -0.036373)
 20:    818.75   0.007869   39.77  0.002999  ( 0.051958  0.017313  0.000001)
 21:    881.26   0.005626   28.43  0.001992  ( 0.000004 -0.000004 -0.044636)
 22:    981.78   0.002626   13.27  0.000835  (-0.024254 -0.015702 -0.000002)
 23:   1180.91   0.004438   22.43  0.001173  ( 0.011098  0.032399 -0.000001)
 24:   1207.64   0.018046   91.20  0.004663  (-0.064593  0.022157  0.000003)
 25:   1263.96   0.041688  210.68  0.010293  (-0.101453 -0.000053  0.000004)
 26:   1356.93   0.003226   16.30  0.000742  (-0.008386  0.025916  0.000001)
 27:   1390.80   0.000988    4.99  0.000222  ( 0.007612 -0.012798 -0.000001)
 28:   1438.48   0.006639   33.55  0.001440  (-0.006771 -0.037340  0.000001)
 29:   1514.10   0.002781   14.05  0.000573  ( 0.016050  0.017763 -0.000000)
 30:   1681.86   0.043499  219.83  0.008071  ( 0.079597 -0.041659 -0.000002)
 31:   1700.75   0.070152  354.52  0.012872  ( 0.060850 -0.095755 -0.000000)
 32:   1736.22   0.131940  666.77  0.023714  (-0.151704 -0.026461  0.000008)
 33:   3207.22   0.000531    2.69  0.000052  (-0.006477  0.003124  0.000000)
 34:   3549.76   0.015912   80.41  0.001399  ( 0.011571  0.035567 -0.000001)
 35:   3581.06   0.022656  114.49  0.001974  (-0.025608  0.036312  0.000002)

--------------------------
THERMOCHEMISTRY AT 298.15K
--------------------------

Temperature         ...   298.15 K
Pressure            ...     1.00 atm
Total Mass          ...   130.08 AMU
Quasi RRHO          ...     True
Cut-Off Frequency   ...     1.00 cm^-1

Throughout the following assumptions are being made:
  (1) The electronic state is orbitally nondegenerate
  (2) There are no thermally accessible electronically excited states
  (3) Hindered rotations indicated by low frequency modes are not
      treated as such but are treated as vibrations and this may
      cause some error
  (4) All equations used are the standard statistical mechanics
      equations for an ideal gas
  (5) All vibrations are strictly harmonic

freq.     128.93  E(vib)   ...       0.43
freq.     174.13  E(vib)   ...       0.38
freq.     321.42  E(vib)   ...       0.25
freq.     352.35  E(vib)   ...       0.23
freq.     390.97  E(vib)   ...       0.20
freq.     403.67  E(vib)   ...       0.19
freq.     463.61  E(vib)   ...       0.16
freq.     545.86  E(vib)   ...       0.12
freq.     605.30  E(vib)   ...       0.10
freq.     634.82  E(vib)   ...       0.09
freq.     701.74  E(vib)   ...       0.07
freq.     758.36  E(vib)   ...       0.06
freq.     760.10  E(vib)   ...       0.06
freq.     772.74  E(vib)   ...       0.05
freq.     818.75  E(vib)   ...       0.05
freq.     881.26  E(vib)   ...       0.04
freq.     981.78  E(vib)   ...       0.02
freq.    1180.91  E(vib)   ...       0.01
freq.    1207.64  E(vib)   ...       0.01
freq.    1263.96  E(vib)   ...       0.01
freq.    1356.93  E(vib)   ...       0.01
freq.    1390.80  E(vib)   ...       0.00
freq.    1438.48  E(vib)   ...       0.00
freq.    1514.10  E(vib)   ...       0.00
freq.    1681.86  E(vib)   ...       0.00
freq.    1700.75  E(vib)   ...       0.00
freq.    1736.22  E(vib)   ...       0.00
freq.    3207.22  E(vib)   ...       0.00
freq.    3549.76  E(vib)   ...       0.00
freq.    3581.06  E(vib)   ...       0.00

------------
INNER ENERGY
------------

The inner energy is: U= E(el) + E(ZPE) + E(vib) + E(rot) + E(trans)
    E(el)   - is the total energy from the electronic structure calculation
              = E(kin-el) + E(nuc-el) + E(el-el) + E(nuc-nuc)
    E(ZPE)  - the the zero temperature vibrational energy from the frequency calculation
    E(vib)  - the the finite temperature correction to E(ZPE) due to population
              of excited vibrational states
    E(rot)  - is the rotational thermal energy
    E(trans)- is the translational thermal energy

Summary of contributions to the inner energy U:
Electronic energy                ...   -514.01365075 Eh
Zero point energy                ...      0.07860927 Eh      49.33 kcal/mol
Thermal vibrational correction   ...      0.00403614 Eh       2.53 kcal/mol
Thermal rotational correction    ...      0.00141627 Eh       0.89 kcal/mol
Thermal translational correction ...      0.00141627 Eh       0.89 kcal/mol
-----------------------------------------------------------------------
Total thermal energy                   -513.92817280 Eh

Summary of corrections to the electronic energy:
(perhaps to be used in another calculation)
Total thermal correction                  0.00686868 Eh       4.31 kcal/mol
Non-thermal (ZPE) correction              0.07860927 Eh      49.33 kcal/mol
-----------------------------------------------------------------------
Total correction                          0.08547795 Eh      53.64 kcal/mol

--------
ENTHALPY
--------

The enthalpy is H = U + kB*T
                kB is Boltzmann's constant
Total thermal energy              ...   -513.92817280 Eh
Thermal Enthalpy correction       ...      0.00094421 Eh       0.59 kcal/mol
-----------------------------------------------------------------------
Total Enthalpy                    ...   -513.92722859 Eh

Note: Rotational entropy computed according to Herzberg
Infrared and Raman Spectra, Chapter V,1, Van Nostrand Reinhold, 1945
Point Group:  Cs, Symmetry Number:   1
Rotational constants in cm-1:     0.107272     0.047028     0.032695

Vibrational entropy computed according to the QRRHO of S. Grimme
Chem.Eur.J. 2012 18 9955 using a reference frequency of 100.0 cm-1

-------
ENTROPY
-------

The entropy contributions are T*S = T*(S(el)+S(vib)+S(rot)+S(trans))
     S(el)   - electronic entropy
     S(vib)  - vibrational entropy
     S(rot)  - rotational entropy
     S(trans)- translational entropy
The entropies will be listed as multiplied by the temperature to get
units of energy

Electronic entropy                ...      0.00000000 Eh      0.00 kcal/mol
Vibrational entropy               ...      0.00640129 Eh      4.02 kcal/mol
Rotational entropy                ...      0.01362269 Eh      8.55 kcal/mol
Translational entropy             ...      0.01924367 Eh     12.08 kcal/mol
-----------------------------------------------------------------------
Final entropy term                ...      0.03926765 Eh     24.64 kcal/mol

In case the symmetry of your molecule has not been determined correctly
or in case you have a reason to use a different symmetry number we print
out the resulting rotational entropy values for sn=1,12:

 non-linear molecules -----------------------------------
|  sn= 1 | S(rot)=       0.01362269 Eh      8.55 kcal/mol|
|  sn= 2 | S(rot)=       0.01296824 Eh      8.14 kcal/mol|
|  sn= 3 | S(rot)=       0.01258541 Eh      7.90 kcal/mol|
|  sn= 4 | S(rot)=       0.01231378 Eh      7.73 kcal/mol|
|  sn= 5 | S(rot)=       0.01210309 Eh      7.59 kcal/mol|
|  sn= 6 | S(rot)=       0.01193095 Eh      7.49 kcal/mol|
|  sn= 7 | S(rot)=       0.01178540 Eh      7.40 kcal/mol|
|  sn= 8 | S(rot)=       0.01165933 Eh      7.32 kcal/mol|
|  sn= 9 | S(rot)=       0.01154812 Eh      7.25 kcal/mol|
|  sn=10 | S(rot)=       0.01144864 Eh      7.18 kcal/mol|
|  sn=11 | S(rot)=       0.01135865 Eh      7.13 kcal/mol|
|  sn=12 | S(rot)=       0.01127649 Eh      7.08 kcal/mol|
 linear molecules ---------------------------------------
|  Dinfh | S(rot)=       0.00855542 Eh      5.37 kcal/mol|
|  Cinfv | S(rot)=       0.00920988 Eh      5.78 kcal/mol|
 --------------------------------------------------------

-------------------
GIBBS FREE ENERGY
-------------------

The Gibbs free energy is G = H - T*S

Total enthalpy                    ...   -513.92722859 Eh
Total entropy correction          ...     -0.03926765 Eh    -24.64 kcal/mol
-----------------------------------------------------------------------
Final Gibbs free energy         ...   -513.96649625 Eh

For completeness - the Gibbs free energy minus the electronic energy
G-E(el)                           ...      0.04715450 Eh     29.59 kcal/mol

                             ****ORCA TERMINATED NORMALLY****
TOTAL RUN TIME: 0 days 0 hours 7 minutes 26 seconds 788 msec
