                         Program Version 6.0.0  -   RELEASE  -
|  1> ! r2SCAN-3c DEF2-TZVP FREQ
|  2> * xyzfile 0 1 vacuum_censo.xyz
|  3>
|  4>                          ****END OF INPUT****

CARTESIAN COORDINATES (ANGSTROEM)
---------------------------------
  C      0.210421    1.516836   -0.000260
  C      1.110440    0.516878   -0.000111
  C      0.710558   -0.883570    0.000075
  O      1.457745   -1.840485    0.000201
  N     -0.690099   -1.029585    0.000141
  C     -1.666943   -0.042966   -0.000069
  O     -2.860444   -0.267564   -0.000080
  N     -1.137122    1.242228   -0.000244
  F      2.422368    0.775064   -0.000136
  H      0.507718    2.559109   -0.000406
  H     -1.035315   -1.980595    0.000233
  H     -1.814270    1.988224   -0.000323

 Total Charge           Charge          ....    0
 Multiplicity           Mult            ....    1
 Number of Electrons    NEL             ....   66
 Basis Dimension        Dim             ....  297

ORBITAL ENERGIES
----------------

  NO   OCC          E(Eh)            E(eV)
   0   2.0000     -24.522754      -667.2981
   1   2.0000     -18.946782      -515.5681
   2   2.0000     -18.946681      -515.5654
   3   2.0000     -14.250640      -387.7796
   4   2.0000     -14.234720      -387.3464
   5   2.0000     -10.196245      -277.4539
   6   2.0000     -10.168169      -276.6900
   7   2.0000     -10.145827      -276.0820
   8   2.0000     -10.127093      -275.5722
   9   2.0000      -1.212660       -32.9982
  10   2.0000      -1.056795       -28.7569
  11   2.0000      -1.026184       -27.9239
  12   2.0000      -0.962683       -26.1959
  13   2.0000      -0.912180       -24.8217
  14   2.0000      -0.781203       -21.2576
  15   2.0000      -0.679087       -18.4789
  16   2.0000      -0.653027       -17.7698
  17   2.0000      -0.588644       -16.0178
  18   2.0000      -0.562746       -15.3131
  19   2.0000      -0.510645       -13.8953
  20   2.0000      -0.494783       -13.4637
  21   2.0000      -0.477760       -13.0005
  22   2.0000      -0.465004       -12.6534
  23   2.0000      -0.440126       -11.9764
  24   2.0000      -0.422731       -11.5031
  25   2.0000      -0.415050       -11.2941
  26   2.0000      -0.391501       -10.6533
  27   2.0000      -0.373549       -10.1648
  28   2.0000      -0.350244        -9.5306
  29   2.0000      -0.280561        -7.6345
  30   2.0000      -0.279760        -7.6127
  31   2.0000      -0.252561        -6.8725
  32   2.0000      -0.236176        -6.4267
  33   0.0000      -0.087951        -2.3933
  34   0.0000      -0.030339        -0.8256
  35   0.0000       0.008235         0.2241
  36   0.0000       0.047362         1.2888
  37   0.0000       0.058230         1.5845

MULLIKEN ATOMIC CHARGES
-----------------------
   0 C :   -0.023094
   1 C :    0.144506
   2 C :    0.217513
   3 O :   -0.326735
   4 N :   -0.231054
   5 C :    0.317268
   6 O :   -0.360579
   7 N :   -0.232144
   8 F :   -0.180349
   9 H :    0.160541
  10 H :    0.257563
  11 H :    0.256563
Sum of atomic charges:    0.0000000

LOEWDIN ATOMIC CHARGES
----------------------
   0 C :   -0.156943
   1 C :   -0.281865
   2 C :   -0.412557
   3 O :    0.110097
   4 N :    0.203710
   5 C :   -0.505183
   6 O :    0.071370
   7 N :    0.181657
   8 F :    0.218071
   9 H :    0.155211
  10 H :    0.210095
  11 H :    0.206336

  Mayer bond orders larger than 0.100000
B(  0-C ,  1-C ) :   1.6772 B(  0-C ,  7-N ) :   1.0935 B(  0-C ,  9-H ) :   0.9266
B(  1-C ,  2-C ) :   1.0581 B(  1-C ,  8-F ) :   1.0586 B(  2-C ,  3-O ) :   2.0510
B(  2-C ,  4-N ) :   1.0645 B(  4-N ,  5-C ) :   1.1304 B(  4-N , 10-H ) :   0.8824
B(  5-C ,  6-O ) :   2.0454 B(  5-C ,  7-N ) :   1.1015 B(  7-N , 11-H ) :   0.8985

Dispersion correction           -0.003764645
FINAL SINGLE POINT ENERGY      -514.014962447627

DIPOLE MOMENT
-------------

Method             : SCF
Type of density    : Electron Density
Multiplicity       :   1
Irrep              :   0
Energy             :  -514.0234368973262917 Eh
Relativity type    :
Basis              : AO
                                X                 Y                 Z
Electronic contribution:      4.049398807      -0.110006731       0.000046091
Nuclear contribution   :     -4.472320970       1.661970223      -0.000235234
                        -----------------------------------------
Total Dipole Moment    :     -0.422922163       1.551963492      -0.000189143
                        -----------------------------------------
Magnitude (a.u.)       :      1.608556456
Magnitude (Debye)      :      4.088625582

VIBRATIONAL FREQUENCIES
-----------------------

Scaling factor for frequencies =  1.000000000  (already applied!)

     0:       0.00 cm**-1
     1:       0.00 cm**-1
     2:       0.00 cm**-1
     3:       0.00 cm**-1
     4:       0.00 cm**-1
     5:       0.00 cm**-1
     6:     121.08 cm**-1
     7:     157.74 cm**-1
     8:     309.63 cm**-1
     9:     346.80 cm**-1
    10:     377.41 cm**-1
    11:     390.48 cm**-1
    12:     458.91 cm**-1
    13:     536.05 cm**-1
    14:     550.20 cm**-1
    15:     631.94 cm**-1
    16:     674.72 cm**-1
    17:     742.56 cm**-1
    18:     747.69 cm**-1
    19:     764.49 cm**-1
    20:     818.29 cm**-1
    21:     878.41 cm**-1
    22:     966.82 cm**-1
    23:    1148.85 cm**-1
    24:    1174.22 cm**-1
    25:    1257.96 cm**-1
    26:    1339.94 cm**-1
    27:    1393.59 cm**-1
    28:    1418.20 cm**-1
    29:    1493.74 cm**-1
    30:    1694.37 cm**-1
    31:    1759.31 cm**-1
    32:    1788.32 cm**-1
    33:    3205.50 cm**-1
    34:    3586.68 cm**-1
    35:    3635.62 cm**-1

IR SPECTRUM
-----------

 Mode   freq       eps      Int      T**2         TX        TY        TZ
       cm**-1   L/(mol*cm) km/mol    a.u.
----------------------------------------------------------------------------
  6:    121.08   0.000356    1.80  0.000917  (-0.000013  0.000017 -0.030286)
  7:    157.74   0.000193    0.98  0.000382  ( 0.000008 -0.000009 -0.019538)
  8:    309.63   0.000200    1.01  0.000202  ( 0.011947  0.007669 -0.000008)
  9:    346.80   0.001110    5.61  0.000999  (-0.000030  0.000043 -0.031605)
 10:    377.41   0.002548   12.88  0.002107  ( 0.000014 -0.000058 -0.045901)
 11:    390.48   0.003273   16.54  0.002616  (-0.009885 -0.050178  0.000038)
 12:    458.91   0.001490    7.53  0.001014  (-0.025209  0.019443  0.000008)
 13:    536.05   0.001433    7.24  0.000834  ( 0.008386 -0.027636 -0.000055)
 14:    550.20   0.010826   54.71  0.006141  ( 0.000027 -0.000057  0.078362)
 15:    631.94   0.000415    2.10  0.000205  ( 0.005898  0.013049  0.000014)
 16:    674.72   0.012597   63.66  0.005826  ( 0.000008 -0.000007 -0.076330)
 17:    742.56   0.002124   10.73  0.000892  ( 0.022756  0.019354 -0.000041)
 18:    747.69   0.008554   43.23  0.003570  (-0.000019 -0.000014 -0.059751)
 19:    764.49   0.001769    8.94  0.000722  (-0.000014  0.000006  0.026876)
 20:    818.29   0.006390   32.29  0.002437  (-0.047192 -0.014483  0.000004)
 21:    878.41   0.005737   28.99  0.002038  ( 0.000032 -0.000030  0.045146)
 22:    966.82   0.004197   21.21  0.001355  ( 0.032459  0.017353 -0.000002)
 23:   1148.85   0.004991   25.22  0.001356  (-0.035293 -0.010489  0.000001)
 24:   1174.22   0.013784   69.66  0.003663  ( 0.044111 -0.041443  0.000007)
 25:   1257.96   0.052419  264.90  0.013004  ( 0.113705  0.008648 -0.000000)
 26:   1339.94   0.003623   18.31  0.000844  (-0.016120  0.024164 -0.000004)
 27:   1393.59   0.002687   13.58  0.000602  (-0.004261 -0.024156  0.000005)
 28:   1418.20   0.008214   41.51  0.001807  (-0.007870  0.041779 -0.000006)
 29:   1493.74   0.004769   24.10  0.000996  (-0.022577 -0.022057  0.000004)
 30:   1694.37   0.007922   40.04  0.001459  (-0.013567 -0.035707  0.000005)
 31:   1759.31   0.130968  661.86  0.023231  ( 0.121659 -0.091814  0.000012)
 32:   1788.32   0.108129  546.44  0.018869  ( 0.131712  0.038995  0.000000)
 33:   3205.50   0.000529    2.67  0.000051  (-0.006607  0.002796 -0.000001)
 34:   3586.68   0.014113   71.32  0.001228  (-0.010976 -0.033278  0.000004)
 35:   3635.62   0.021674  109.53  0.001860  (-0.025568  0.034738 -0.000004)

--------------------------
THERMOCHEMISTRY AT 298.15K
--------------------------

Temperature         ...   298.15 K
Pressure            ...     1.00 atm
Total Mass          ...   130.08 AMU
Quasi RRHO          ...     True
Cut-Off Frequency   ...     1.00 cm^-1

Throughout the following assumptions are being made:
  (1) The electronic state is orbitally nondegenerate
  (2) There are no thermally accessible electronically excited states
  (3) Hindered rotations indicated by low frequency modes are not
      treated as such but are treated as vibrations and this may
      cause some error
  (4) All equations used are the standard statistical mechanics
      equations for an ideal gas
  (5) All vibrations are strictly harmonic

freq.     121.08  E(vib)   ...       0.44
freq.     157.74  E(vib)   ...       0.40
freq.     309.63  E(vib)   ...       0.26
freq.     346.80  E(vib)   ...       0.23
freq.     377.41  E(vib)   ...       0.21
freq.     390.48  E(vib)   ...       0.20
freq.     458.91  E(vib)   ...       0.16
freq.     536.05  E(vib)   ...       0.12
freq.     550.20  E(vib)   ...       0.12
freq.     631.94  E(vib)   ...       0.09
freq.     674.72  E(vib)   ...       0.08
freq.     742.56  E(vib)   ...       0.06
freq.     747.69  E(vib)   ...       0.06
freq.     764.49  E(vib)   ...       0.06
freq.     818.29  E(vib)   ...       0.05
freq.     878.41  E(vib)   ...       0.04
freq.     966.82  E(vib)   ...       0.03
freq.    1148.85  E(vib)   ...       0.01
freq.    1174.22  E(vib)   ...       0.01
freq.    1257.96  E(vib)   ...       0.01
freq.    1339.94  E(vib)   ...       0.01
freq.    1393.59  E(vib)   ...       0.00
freq.    1418.20  E(vib)   ...       0.00
freq.    1493.74  E(vib)   ...       0.00
freq.    1694.37  E(vib)   ...       0.00
freq.    1759.31  E(vib)   ...       0.00
freq.    1788.32  E(vib)   ...       0.00
freq.    3205.50  E(vib)   ...       0.00
freq.    3586.68  E(vib)   ...       0.00
freq.    3635.62  E(vib)   ...       0.00

------------
INNER ENERGY
------------

The inner energy is: U= E(el) + E(ZPE) + E(vib) + E(rot) + E(trans)
    E(el)   - is the total energy from the electronic structure calculation
              = E(kin-el) + E(nuc-el) + E(el-el) + E(nuc-nuc)
    E(ZPE)  - the the zero temperature vibrational energy from the frequency calculation
    E(vib)  - the the finite temperature correction to E(ZPE) due to population
              of excited vibrational states
    E(rot)  - is the rotational thermal energy
    E(trans)- is the translational thermal energy

Summary of contributions to the inner energy U:
Electronic energy                ...   -514.01496245 Eh
Zero point energy                ...      0.07829951 Eh      49.13 kcal/mol
Thermal vibrational correction   ...      0.00420157 Eh       2.64 kcal/mol
Thermal rotational correction    ...      0.00141627 Eh       0.89 kcal/mol
Thermal translational correction ...      0.00141627 Eh       0.89 kcal/mol
-----------------------------------------------------------------------
Total thermal energy                   -513.92962883 Eh

Summary of corrections to the electronic energy:
(perhaps to be used in another calculation)
Total thermal correction                  0.00703411 Eh       4.41 kcal/mol
Non-thermal (ZPE) correction              0.07829951 Eh      49.13 kcal/mol
-----------------------------------------------------------------------
Total correction                          0.08533362 Eh      53.55 kcal/mol

--------
ENTHALPY
--------

The enthalpy is H = U + kB*T
                kB is Boltzmann's constant
Total thermal energy              ...   -513.92962883 Eh
Thermal Enthalpy correction       ...      0.00094421 Eh       0.59 kcal/mol
-----------------------------------------------------------------------
Total Enthalpy                    ...   -513.92868462 Eh

Note: Only C1 symmetry has been detected, increase convergence thresholds
      if your molecule has a higher symmetry. Symmetry factor of 1.0 is
      used for the rotational entropy correction.

Note: Rotational entropy computed according to Herzberg
Infrared and Raman Spectra, Chapter V,1, Van Nostrand Reinhold, 1945
Point Group:  C1, Symmetry Number:   1
Rotational constants in cm-1:     0.106699     0.046748     0.032506

Vibrational entropy computed according to the QRRHO of S. Grimme
Chem.Eur.J. 2012 18 9955 using a reference frequency of 100.0 cm-1

-------
ENTROPY
-------

The entropy contributions are T*S = T*(S(el)+S(vib)+S(rot)+S(trans))
     S(el)   - electronic entropy
     S(vib)  - vibrational entropy
     S(rot)  - rotational entropy
     S(trans)- translational entropy
The entropies will be listed as multiplied by the temperature to get
units of energy

Electronic entropy                ...      0.00000000 Eh      0.00 kcal/mol
Vibrational entropy               ...      0.00672327 Eh      4.22 kcal/mol
Rotational entropy                ...      0.01363078 Eh      8.55 kcal/mol
Translational entropy             ...      0.01924367 Eh     12.08 kcal/mol
-----------------------------------------------------------------------
Final entropy term                ...      0.03959772 Eh     24.85 kcal/mol

In case the symmetry of your molecule has not been determined correctly
or in case you have a reason to use a different symmetry number we print
out the resulting rotational entropy values for sn=1,12:

 non-linear molecules -----------------------------------
|  sn= 1 | S(rot)=       0.01363078 Eh      8.55 kcal/mol|
|  sn= 2 | S(rot)=       0.01297632 Eh      8.14 kcal/mol|
|  sn= 3 | S(rot)=       0.01259349 Eh      7.90 kcal/mol|
|  sn= 4 | S(rot)=       0.01232186 Eh      7.73 kcal/mol|
|  sn= 5 | S(rot)=       0.01211118 Eh      7.60 kcal/mol|
|  sn= 6 | S(rot)=       0.01193903 Eh      7.49 kcal/mol|
|  sn= 7 | S(rot)=       0.01179349 Eh      7.40 kcal/mol|
|  sn= 8 | S(rot)=       0.01166741 Eh      7.32 kcal/mol|
|  sn= 9 | S(rot)=       0.01155620 Eh      7.25 kcal/mol|
|  sn=10 | S(rot)=       0.01145672 Eh      7.19 kcal/mol|
|  sn=11 | S(rot)=       0.01136673 Eh      7.13 kcal/mol|
|  sn=12 | S(rot)=       0.01128458 Eh      7.08 kcal/mol|
 linear molecules ---------------------------------------
|  Dinfh | S(rot)=       0.00856088 Eh      5.37 kcal/mol|
|  Cinfv | S(rot)=       0.00921534 Eh      5.78 kcal/mol|
 --------------------------------------------------------

-------------------
GIBBS FREE ENERGY
-------------------

The Gibbs free energy is G = H - T*S

Total enthalpy                    ...   -513.92868462 Eh
Total entropy correction          ...     -0.03959772 Eh    -24.85 kcal/mol
-----------------------------------------------------------------------
Final Gibbs free energy         ...   -513.96828233 Eh

For completeness - the Gibbs free energy minus the electronic energy

                             ****ORCA TERMINATED NORMALLY****
TOTAL RUN TIME: 0 days 0 hours 7 minutes 43 seconds 501 msec
