                         Program Version 6.0.1  -  RELEASE   -
|  1> ! r2scan-3c def2/J RI DEFGRID2 scfconv6 printgap
|  2> %output
|  3>     printlevel normal
|  4> end
|  5> * xyz 0 1
|  6> C -3.8918282797 -0.0610638409 -1.4234885942
|  7> N -2.6188970235 0.0276780315 -0.7519150444
|  8> C -2.4870873752 -0.256901137 0.5654928342
|  9> O -3.3922639218 -0.5802293986 1.2857071889
| 10> O -1.2198005477 -0.1994906867 1.0565059472
| 11> C -0.1984796596 0.4733481248 0.41464359
| 12> C -0.323605586 1.7876648754 0.0363759624
| 13> C 0.7564034958 2.4560672595 -0.5569712449
| 14> C 1.944220945 1.8130542104 -0.7633199723
| 15> C 2.1088372151 0.4663102728 -0.3772136246
| 16> C 1.0236447054 -0.2234600264 0.2240010183
| 17> C 1.1864248164 -1.569324842 0.6105744859
| 18> C 2.3778400132 -2.2080696858 0.4089540172
| 19> C 3.4542389337 -1.5307521894 -0.1846884041
| 20> C 3.3233375977 -0.2255217076 -0.5685643022
| 21> H -3.8835812716 -0.8566344727 -2.1711797579
| 22> H -4.1320519892 0.8862480462 -1.9092503388
| 23> H -4.6441440731 -0.2843553191 -0.6693528845
| 24> H -1.7982315786 0.2065869596 -1.3096839175
| 25> H -1.2546406096 2.3083461339 0.2069566978
| 26> H 0.6350283474 3.4896414845 -0.8440846379
| 27> H 2.7762668287 2.3283489023 -1.2199262965
| 28> H 0.3528221207 -2.0756255224 1.0728254157
| 29> H 2.4990503459 -3.2388180654 0.7069229168
| 30> H 4.3890544215 -2.0506858522 -0.3344368321
| 31> H 4.1506089594 0.2999698469 -1.0235312524
| 32> *
| 33>
| 34>                          ****END OF INPUT****

CARTESIAN COORDINATES (ANGSTROEM)
---------------------------------
  C     -3.891828   -0.061064   -1.423489
  N     -2.618897    0.027678   -0.751915
  C     -2.487087   -0.256901    0.565493
  O     -3.392264   -0.580229    1.285707
  O     -1.219801   -0.199491    1.056506
  C     -0.198480    0.473348    0.414644
  C     -0.323606    1.787665    0.036376
  C      0.756403    2.456067   -0.556971
  C      1.944221    1.813054   -0.763320
  C      2.108837    0.466310   -0.377214
  C      1.023645   -0.223460    0.224001
  C      1.186425   -1.569325    0.610574
  C      2.377840   -2.208070    0.408954
  C      3.454239   -1.530752   -0.184688
  C      3.323338   -0.225522   -0.568564
  H     -3.883581   -0.856634   -2.171180
  H     -4.132052    0.886248   -1.909250
  H     -4.644144   -0.284355   -0.669353
  H     -1.798232    0.206587   -1.309684
  H     -1.254641    2.308346    0.206957
  H      0.635028    3.489641   -0.844085
  H      2.776267    2.328349   -1.219926
  H      0.352822   -2.075626    1.072825
  H      2.499050   -3.238818    0.706923
  H      4.389054   -2.050686   -0.334437
  H      4.150609    0.299970   -1.023531

 Total Charge           Charge          ....    0
 Multiplicity           Mult            ....    1
 Number of Electrons    NEL             ....  106
 Basis Dimension        Dim             ....  355

ORBITAL ENERGIES
----------------

  NO   OCC          E(Eh)            E(eV)
   0   2.0000     -19.008377      -517.2442
   1   2.0000     -18.917165      -514.7622
   2   2.0000     -14.195034      -386.2665
   3   2.0000     -10.177767      -276.9511
   4   2.0000     -10.114170      -275.2205
   5   2.0000     -10.068854      -273.9875
   6   2.0000     -10.059640      -273.7367
   7   2.0000     -10.059281      -273.7269
   8   2.0000     -10.051828      -273.5241
   9   2.0000     -10.051122      -273.5049
  10   2.0000     -10.047319      -273.4014
  11   2.0000     -10.046953      -273.3915
  12   2.0000     -10.046369      -273.3756
  13   2.0000     -10.045518      -273.3525
  14   2.0000     -10.044978      -273.3377
  15   2.0000      -1.085269       -29.5317
  16   2.0000      -0.993431       -27.0326
  17   2.0000      -0.900382       -24.5006
  18   2.0000      -0.858617       -23.3641
  19   2.0000      -0.806441       -21.9444
  20   2.0000      -0.757263       -20.6062
  21   2.0000      -0.728216       -19.8158
  22   2.0000      -0.705798       -19.2057
  23   2.0000      -0.685082       -18.6420
  24   2.0000      -0.625939       -17.0327
  25   2.0000      -0.601979       -16.3807
  26   2.0000      -0.597520       -16.2593
  27   2.0000      -0.562243       -15.2994
  28   2.0000      -0.539772       -14.6879
  29   2.0000      -0.503266       -13.6946
  30   2.0000      -0.485577       -13.2132
  31   2.0000      -0.475698       -12.9444
  32   2.0000      -0.459354       -12.4997
  33   2.0000      -0.447165       -12.1680
  34   2.0000      -0.424943       -11.5633
  35   2.0000      -0.410401       -11.1676
  36   2.0000      -0.407782       -11.0963
  37   2.0000      -0.406407       -11.0589
  38   2.0000      -0.393863       -10.7176
  39   2.0000      -0.388942       -10.5836
  40   2.0000      -0.380129       -10.3438
  41   2.0000      -0.371626       -10.1125
  42   2.0000      -0.364430        -9.9166
  43   2.0000      -0.353955        -9.6316
  44   2.0000      -0.327977        -8.9247
  45   2.0000      -0.322500        -8.7757
  46   2.0000      -0.316069        -8.6007
  47   2.0000      -0.294936        -8.0256
  48   2.0000      -0.265838        -7.2338
  49   2.0000      -0.248476        -6.7614
  50   2.0000      -0.247610        -6.7378
  51   2.0000      -0.235989        -6.4216
  52   2.0000      -0.209088        -5.6896
  53   0.0000      -0.079151        -2.1538
  54   0.0000      -0.049920        -1.3584
  55   0.0000      -0.012742        -0.3467
  56   0.0000       0.022408         0.6097
  57   0.0000       0.050066         1.3624

MULLIKEN ATOMIC CHARGES
-----------------------
   0 C :   -0.400117
   1 N :   -0.180609
   2 C :    0.312123
   3 O :   -0.433572
   4 O :   -0.125825
   5 C :    0.181140
   6 C :   -0.195295
   7 C :   -0.139228
   8 C :   -0.261909
   9 C :    0.178338
  10 C :    0.012833
  11 C :   -0.253547
  12 C :   -0.140072
  13 C :   -0.135749
  14 C :   -0.219121
  15 H :    0.144980
  16 H :    0.143431
  17 H :    0.197647
  18 H :    0.250764
  19 H :    0.159118
  20 H :    0.148858
  21 H :    0.146207
  22 H :    0.169910
  23 H :    0.147748
  24 H :    0.147051
  25 H :    0.144895
Sum of atomic charges:    0.0000000

LOEWDIN ATOMIC CHARGES
----------------------
   0 C :   -0.110973
   1 N :   -0.630918
   2 C :    0.452878
   3 O :   -0.375732
   4 O :   -0.489832
   5 C :    0.204152
   6 C :   -0.139160
   7 C :   -0.156615
   8 C :   -0.149875
   9 C :   -0.053819
  10 C :   -0.023784
  11 C :   -0.122281
  12 C :   -0.157101
  13 C :   -0.156633
  14 C :   -0.142153
  15 H :    0.169325
  16 H :    0.168462
  17 H :    0.207797
  18 H :    0.278276
  19 H :    0.185110
  20 H :    0.171263
  21 H :    0.172312
  22 H :    0.188024
  23 H :    0.170029
  24 H :    0.169181
  25 H :    0.172066

  Mayer bond orders larger than 0.100000
B(  0-C ,  1-N ) :   0.9000 B(  0-C , 15-H ) :   0.9585 B(  0-C , 16-H ) :   0.9645
B(  0-C , 17-H ) :   0.9547 B(  1-N ,  2-C ) :   1.1421 B(  1-N , 18-H ) :   0.9146
B(  2-C ,  3-O ) :   1.9581 B(  2-C ,  4-O ) :   1.0309 B(  4-O ,  5-C ) :   0.8497
B(  5-C ,  6-C ) :   1.4856 B(  5-C , 10-C ) :   1.2936 B(  5-C , 11-C ) :  -0.1051
B(  6-C ,  7-C ) :   1.2230 B(  6-C , 19-H ) :   0.9361 B(  7-C ,  8-C ) :   1.4933
B(  7-C , 20-H ) :   0.9579 B(  8-C ,  9-C ) :   1.1705 B(  8-C , 21-H ) :   0.9469
B(  9-C , 10-C ) :   1.4135 B(  9-C , 14-C ) :   1.1856 B( 10-C , 11-C ) :   1.2873
B( 11-C , 12-C ) :   1.4731 B( 11-C , 22-H ) :   0.9600 B( 12-C , 13-C ) :   1.2599
B( 12-C , 23-H ) :   0.9538 B( 13-C , 14-C ) :   1.5120 B( 13-C , 24-H ) :   0.9483
B( 14-C , 25-H ) :   0.9510

Dispersion correction           -0.010895244
FINAL SINGLE POINT ENERGY      -668.973924607593

DIPOLE MOMENT
-------------

Method             : SCF
Type of density    : Electron Density
Multiplicity       :   1
Irrep              :   0
Energy             :  -668.9778119930599587 Eh
Relativity type    :
Basis              : AO
                                X                 Y                 Z
Electronic contribution:      1.793532246      -0.473510518       5.454204428
Nuclear contribution   :     -0.936250634       0.938992693      -7.000791607
                        -----------------------------------------
Total Dipole Moment    :      0.857281612       0.465482175      -1.546587179
                        -----------------------------------------
Magnitude (a.u.)       :      1.828534199
Magnitude (Debye)      :      4.647764571

Rotational constants in cm-1:             0.038239             0.013483             0.011211
Rotational constants in MHz :          1146.386379           404.214545           336.106585

                             ****ORCA TERMINATED NORMALLY****
TOTAL RUN TIME: 0 days 0 hours 0 minutes 53 seconds 383 msec
