                         Program Version 6.0.1  -  RELEASE   -
|  1> ! pbe def2-sv(p) def2/J RI DEFGRID1 loosescf d4 GCP(DFT/SV(P)) printgap
|  2> %output
|  3>     printlevel normal
|  4> end
|  5> * xyz 0 1
|  6> C -2.3375001764 -1.0473814873 0.3891180023
|  7> C -1.0731655506 -0.2700310091 0.8157732868
|  8> H -1.3032098263 0.1926848419 1.7867471511
|  9> C -0.6904662932 0.8504037477 -0.1691410033
| 10> H -0.6917593535 0.4749415402 -1.2004392638
| 11> C 0.735444014 1.2995016817 0.1879842111
| 12> H 0.7931372246 1.5001206744 1.2660474085
| 13> C 1.7084115132 0.152555831 -0.1448189426
| 14> H 1.9647841415 0.2019907534 -1.2164081281
| 15> C 1.0112619356 -1.2049547077 0.0834452247
| 16> H 1.751200036 -1.9086889927 0.4946252542
| 17> O 0.016386 -1.1503147662 1.0630968443
| 18> O 0.5287745228 -1.6388545726 -1.1520642527
| 19> O 2.866860463 0.2064217332 0.6413809935
| 20> O 1.0983304666 2.5067598329 -0.4312926149
| 21> O -1.6177838232 1.9024715671 -0.1511223199
| 22> O -2.2218926965 -1.7241277395 -0.8369608627
| 23> H -3.178746276 -0.3441919564 0.3737063845
| 24> H -2.5261498912 -1.8212565403 1.136066184
| 25> H -0.2321517409 -2.2253278661 -0.9982698348
| 26> H 3.2316806306 1.0981675863 0.579292603
| 27> H 0.9082347207 2.4487549989 -1.3754023755
| 28> H -1.4521377534 2.4589976667 0.6191782486
| 29> H -2.2127097399 -1.0804046082 -1.5546764218
| 30> *
| 31>
| 32>                          ****END OF INPUT****

CARTESIAN COORDINATES (ANGSTROEM)
---------------------------------
  C     -2.337500   -1.047381    0.389118
  C     -1.073166   -0.270031    0.815773
  H     -1.303210    0.192685    1.786747
  C     -0.690466    0.850404   -0.169141
  H     -0.691759    0.474942   -1.200439
  C      0.735444    1.299502    0.187984
  H      0.793137    1.500121    1.266047
  C      1.708412    0.152556   -0.144819
  H      1.964784    0.201991   -1.216408
  C      1.011262   -1.204955    0.083445
  H      1.751200   -1.908689    0.494625
  O      0.016386   -1.150315    1.063097
  O      0.528775   -1.638855   -1.152064
  O      2.866860    0.206422    0.641381
  O      1.098330    2.506760   -0.431293
  O     -1.617784    1.902472   -0.151122
  O     -2.221893   -1.724128   -0.836961
  H     -3.178746   -0.344192    0.373706
  H     -2.526150   -1.821257    1.136066
  H     -0.232152   -2.225328   -0.998270
  H      3.231681    1.098168    0.579293
  H      0.908235    2.448755   -1.375402
  H     -1.452138    2.458998    0.619178
  H     -2.212710   -1.080405   -1.554676

 Total Charge           Charge          ....    0
 Multiplicity           Mult            ....    1
 Number of Electrons    NEL             ....   96
 Basis Dimension        Dim             ....  192

ORBITAL ENERGIES
----------------

  NO   OCC          E(Eh)            E(eV)
   0   2.0000     -18.773386      -510.8498
   1   2.0000     -18.770298      -510.7658
   2   2.0000     -18.764915      -510.6193
   3   2.0000     -18.763144      -510.5711
   4   2.0000     -18.751104      -510.2435
   5   2.0000     -18.750288      -510.2213
   6   2.0000      -9.981032      -271.5977
   7   2.0000      -9.952996      -270.8348
   8   2.0000      -9.950916      -270.7782
   9   2.0000      -9.948933      -270.7242
  10   2.0000      -9.941220      -270.5143
  11   2.0000      -9.939197      -270.4593
  12   2.0000      -0.984097       -26.7786
  13   2.0000      -0.954987       -25.9865
  14   2.0000      -0.945442       -25.7268
  15   2.0000      -0.936182       -25.4748
  16   2.0000      -0.923401       -25.1270
  17   2.0000      -0.905236       -24.6327
  18   2.0000      -0.710093       -19.3226
  19   2.0000      -0.694063       -18.8864
  20   2.0000      -0.630220       -17.1492
  21   2.0000      -0.593711       -16.1557
  22   2.0000      -0.572950       -15.5908
  23   2.0000      -0.528317       -14.3762
  24   2.0000      -0.507524       -13.8104
  25   2.0000      -0.495590       -13.4857
  26   2.0000      -0.483086       -13.1455
  27   2.0000      -0.455994       -12.4082
  28   2.0000      -0.443508       -12.0685
  29   2.0000      -0.433018       -11.7830
  30   2.0000      -0.417112       -11.3502
  31   2.0000      -0.404462       -11.0060
  32   2.0000      -0.396535       -10.7903
  33   2.0000      -0.381642       -10.3850
  34   2.0000      -0.369957       -10.0670
  35   2.0000      -0.353465        -9.6183
  36   2.0000      -0.338027        -9.1982
  37   2.0000      -0.322813        -8.7842
  38   2.0000      -0.311000        -8.4628
  39   2.0000      -0.301762        -8.2114
  40   2.0000      -0.287230        -7.8159
  41   2.0000      -0.278075        -7.5668
  42   2.0000      -0.262105        -7.1322
  43   2.0000      -0.246393        -6.7047
  44   2.0000      -0.236129        -6.4254
  45   2.0000      -0.234939        -6.3930
  46   2.0000      -0.212997        -5.7959
  47   2.0000      -0.204062        -5.5528
  48   0.0000       0.012103         0.3293
  49   0.0000       0.021939         0.5970
  50   0.0000       0.023137         0.6296
  51   0.0000       0.047928         1.3042
  52   0.0000       0.055447         1.5088

MULLIKEN ATOMIC CHARGES
-----------------------
   0 C :    0.073861
   1 C :    0.047697
   2 H :    0.055180
   3 C :   -0.016306
   4 H :    0.048985
   5 C :    0.003992
   6 H :    0.058005
   7 C :    0.105758
   8 H :    0.057544
   9 C :    0.170114
  10 H :    0.073378
  11 O :   -0.306100
  12 O :   -0.425891
  13 O :   -0.408635
  14 O :   -0.409961
  15 O :   -0.400898
  16 O :   -0.433042
  17 H :    0.085852
  18 H :    0.098299
  19 H :    0.299228
  20 H :    0.304439
  21 H :    0.302895
  22 H :    0.303235
  23 H :    0.312371
Sum of atomic charges:   -0.0000000

LOEWDIN ATOMIC CHARGES
----------------------
   0 C :   -0.132202
   1 C :   -0.079144
   2 H :    0.113947
   3 C :   -0.097035
   4 H :    0.103943
   5 C :   -0.087718
   6 H :    0.115004
   7 C :   -0.083366
   8 H :    0.103924
   9 C :    0.005806
  10 H :    0.104009
  11 O :   -0.138022
  12 O :   -0.328415
  13 O :   -0.314979
  14 O :   -0.313566
  15 O :   -0.309367
  16 O :   -0.313757
  17 H :    0.109412
  18 H :    0.120790
  19 H :    0.269900
  20 H :    0.287625
  21 H :    0.287095
  22 H :    0.287689
  23 H :    0.288426

  Mayer bond orders larger than 0.100000
B(  0-C ,  1-C ) :   1.0317 B(  0-C , 16-O ) :   1.0606 B(  0-C , 17-H ) :   0.9136
B(  0-C , 18-H ) :   0.9185 B(  1-C ,  2-H ) :   0.8704 B(  1-C ,  3-C ) :   0.9551
B(  1-C , 11-O ) :   0.9727 B(  3-C ,  4-H ) :   0.8542 B(  3-C ,  5-C ) :   1.0428
B(  3-C , 15-O ) :   1.0623 B(  5-C ,  6-H ) :   0.8446 B(  5-C ,  7-C ) :   1.0206
B(  5-C , 14-O ) :   1.0600 B(  7-C ,  8-H ) :   0.8784 B(  7-C ,  9-C ) :   0.9721
B(  7-C , 13-O ) :   1.0920 B(  9-C , 10-H ) :   0.8905 B(  9-C , 11-O ) :   1.0759
B(  9-C , 12-O ) :   1.0758 B( 12-O , 19-H ) :   0.7903 B( 13-O , 20-H ) :   0.8447
B( 14-O , 21-H ) :   0.8486 B( 15-O , 22-H ) :   0.8468 B( 16-O , 19-H ) :   0.1080
B( 16-O , 23-H ) :   0.8369

Dispersion correction           -0.025163906
FINAL SINGLE POINT ENERGY      -685.693051163525

DIPOLE MOMENT
-------------

Method             : SCF
Type of density    : Electron Density
Multiplicity       :   1
Irrep              :   0
Energy             :  -685.8256060300678882 Eh
Relativity type    :
Basis              : AO
                                X                 Y                 Z
Electronic contribution:      2.264166275      -0.145393048      -0.032097620
Nuclear contribution   :     -2.755628273       0.935734990      -0.096840592
                        -----------------------------------------
Total Dipole Moment    :     -0.491461998       0.790341943      -0.128938212
                        -----------------------------------------
Magnitude (a.u.)       :      0.939574555
Magnitude (Debye)      :      2.388208724

Rotational constants in cm-1:             0.042468             0.028272             0.020501
Rotational constants in MHz :          1273.145596           847.566510           614.611313

                             ****ORCA TERMINATED NORMALLY****
TOTAL RUN TIME: 0 days 0 hours 0 minutes 49 seconds 149 msec
