                         Program Version 6.0.1  -  RELEASE   -
|  1> ! pbe def2-sv(p) def2/J RI DEFGRID1 loosescf d4 GCP(DFT/SV(P)) printgap
|  2> %output
|  3>     printlevel normal
|  4> end
|  5> * xyz 0 1
|  6> C -2.1971160303 -0.6528471548 -0.7200573658
|  7> C -1.3776667209 -0.5015403265 0.5838536393
|  8> H -2.0683465405 -0.7612787084 1.4035322928
|  9> C -0.883907538 0.9339317867 0.827350275
| 10> H -1.7093606323 1.6262795263 0.5948609939
| 11> C 0.3091636941 1.3271001674 -0.0588975868
| 12> H 0.9543414194 1.9785687934 0.5461827
| 13> C 1.1344351763 0.0997890021 -0.4659038326
| 14> H 0.7491066985 -0.3056728025 -1.4173396215
| 15> C 0.982423169 -0.9942038356 0.6052378126
| 16> H 1.3076859097 -0.5986754316 1.5807907874
| 17> O -0.3377133637 -1.4673738786 0.6521568159
| 18> O 1.8116239073 -2.0708035168 0.3182759976
| 19> O 2.4822605382 0.472172617 -0.6109164489
| 20> O -0.1813640309 2.0293280007 -1.1819042428
| 21> O -0.4627565498 1.1095616968 2.1597961641
| 22> O -1.5430123713 -0.2927590286 -1.8987742311
| 23> H -3.1260764561 -0.0761717677 -0.5938783695
| 24> H -2.452948941 -1.7097099749 -0.8293719419
| 25> H 1.345157913 -2.6374500962 -0.3104240569
| 26> H 3.0201461995 -0.3142157281 -0.4440511051
| 27> H 0.5768687933 2.2809104652 -1.7224606517
| 28> H -1.1648185262 0.8325910144 2.760223345
| 29> H -1.2904425172 0.6459950941 -1.8517873684
| 30> *
| 31>
| 32>                          ****END OF INPUT****

CARTESIAN COORDINATES (ANGSTROEM)
---------------------------------
  C     -2.197116   -0.652847   -0.720057
  C     -1.377667   -0.501540    0.583854
  H     -2.068347   -0.761279    1.403532
  C     -0.883908    0.933932    0.827350
  H     -1.709361    1.626280    0.594861
  C      0.309164    1.327100   -0.058898
  H      0.954341    1.978569    0.546183
  C      1.134435    0.099789   -0.465904
  H      0.749107   -0.305673   -1.417340
  C      0.982423   -0.994204    0.605238
  H      1.307686   -0.598675    1.580791
  O     -0.337713   -1.467374    0.652157
  O      1.811624   -2.070804    0.318276
  O      2.482261    0.472173   -0.610916
  O     -0.181364    2.029328   -1.181904
  O     -0.462757    1.109562    2.159796
  O     -1.543012   -0.292759   -1.898774
  H     -3.126076   -0.076172   -0.593878
  H     -2.452949   -1.709710   -0.829372
  H      1.345158   -2.637450   -0.310424
  H      3.020146   -0.314216   -0.444051
  H      0.576869    2.280910   -1.722461
  H     -1.164819    0.832591    2.760223
  H     -1.290443    0.645995   -1.851787

 Total Charge           Charge          ....    0
 Multiplicity           Mult            ....    1
 Number of Electrons    NEL             ....   96
 Basis Dimension        Dim             ....  192

ORBITAL ENERGIES
----------------

  NO   OCC          E(Eh)            E(eV)
   0   2.0000     -18.780265      -511.0370
   1   2.0000     -18.770762      -510.7784
   2   2.0000     -18.766893      -510.6731
   3   2.0000     -18.765978      -510.6482
   4   2.0000     -18.747601      -510.1482
   5   2.0000     -18.741175      -509.9733
   6   2.0000      -9.984591      -271.6945
   7   2.0000      -9.959338      -271.0074
   8   2.0000      -9.954019      -270.8626
   9   2.0000      -9.952000      -270.8077
  10   2.0000      -9.934727      -270.3377
  11   2.0000      -9.933131      -270.2942
  12   2.0000      -0.988153       -26.8890
  13   2.0000      -0.958939       -26.0941
  14   2.0000      -0.945437       -25.7267
  15   2.0000      -0.928654       -25.2700
  16   2.0000      -0.919411       -25.0184
  17   2.0000      -0.910711       -24.7817
  18   2.0000      -0.712688       -19.3932
  19   2.0000      -0.692668       -18.8484
  20   2.0000      -0.620228       -16.8773
  21   2.0000      -0.591557       -16.0971
  22   2.0000      -0.573860       -15.6155
  23   2.0000      -0.528854       -14.3908
  24   2.0000      -0.520539       -14.1646
  25   2.0000      -0.490891       -13.3578
  26   2.0000      -0.479567       -13.0497
  27   2.0000      -0.459162       -12.4944
  28   2.0000      -0.437958       -11.9174
  29   2.0000      -0.431550       -11.7431
  30   2.0000      -0.427631       -11.6364
  31   2.0000      -0.405288       -11.0284
  32   2.0000      -0.394894       -10.7456
  33   2.0000      -0.380026       -10.3410
  34   2.0000      -0.368382       -10.0242
  35   2.0000      -0.360923        -9.8212
  36   2.0000      -0.328517        -8.9394
  37   2.0000      -0.327843        -8.9210
  38   2.0000      -0.318574        -8.6688
  39   2.0000      -0.292398        -7.9565
  40   2.0000      -0.290021        -7.8919
  41   2.0000      -0.279223        -7.5980
  42   2.0000      -0.260368        -7.0850
  43   2.0000      -0.248191        -6.7536
  44   2.0000      -0.236910        -6.4466
  45   2.0000      -0.231645        -6.3034
  46   2.0000      -0.208654        -5.6778
  47   2.0000      -0.202017        -5.4972
  48   0.0000       0.009903         0.2695
  49   0.0000       0.021771         0.5924
  50   0.0000       0.036239         0.9861
  51   0.0000       0.049445         1.3455
  52   0.0000       0.064702         1.7606

MULLIKEN ATOMIC CHARGES
-----------------------
   0 C :    0.051781
   1 C :    0.036151
   2 H :    0.053469
   3 C :   -0.009036
   4 H :    0.079073
   5 C :    0.093880
   6 H :    0.087081
   7 C :    0.008038
   8 H :    0.044524
   9 C :    0.191154
  10 H :    0.064584
  11 O :   -0.311173
  12 O :   -0.392273
  13 O :   -0.424690
  14 O :   -0.419291
  15 O :   -0.407108
  16 O :   -0.432265
  17 H :    0.066632
  18 H :    0.088471
  19 H :    0.302305
  20 H :    0.302158
  21 H :    0.324186
  22 H :    0.303929
  23 H :    0.298420
Sum of atomic charges:   -0.0000000

LOEWDIN ATOMIC CHARGES
----------------------
   0 C :   -0.130742
   1 C :   -0.074745
   2 H :    0.109002
   3 C :   -0.069476
   4 H :    0.111170
   5 C :   -0.060813
   6 H :    0.124643
   7 C :   -0.114817
   8 H :    0.104172
   9 C :   -0.004469
  10 H :    0.100443
  11 O :   -0.149746
  12 O :   -0.298113
  13 O :   -0.330097
  14 O :   -0.304018
  15 O :   -0.309142
  16 O :   -0.337011
  17 H :    0.096496
  18 H :    0.116466
  19 H :    0.287667
  20 H :    0.281465
  21 H :    0.300556
  22 H :    0.286742
  23 H :    0.264367

  Mayer bond orders larger than 0.100000
B(  0-C ,  1-C ) :   1.0076 B(  0-C , 16-O ) :   1.1320 B(  0-C , 17-H ) :   0.9093
B(  0-C , 18-H ) :   0.9153 B(  1-C ,  2-H ) :   0.8716 B(  1-C ,  3-C ) :   1.0324
B(  1-C , 11-O ) :   0.9883 B(  3-C ,  4-H ) :   0.8884 B(  3-C ,  5-C ) :   1.0200
B(  3-C , 15-O ) :   1.0257 B(  5-C ,  6-H ) :   0.8565 B(  5-C ,  7-C ) :   1.0235
B(  5-C , 14-O ) :   1.0139 B(  7-C ,  8-H ) :   0.8113 B(  7-C ,  9-C ) :   1.0525
B(  7-C , 13-O ) :   1.0738 B(  9-C , 10-H ) :   0.8731 B(  9-C , 11-O ) :   1.0327
B(  9-C , 12-O ) :   1.0905 B( 12-O , 19-H ) :   0.8419 B( 13-O , 20-H ) :   0.8265
B( 14-O , 21-H ) :   0.8386 B( 14-O , 23-H ) :   0.1357 B( 15-O , 22-H ) :   0.8443
B( 16-O , 23-H ) :   0.7805

Dispersion correction           -0.025612512
FINAL SINGLE POINT ENERGY      -685.694507655723

DIPOLE MOMENT
-------------

Method             : SCF
Type of density    : Electron Density
Multiplicity       :   1
Irrep              :   0
Energy             :  -685.8278695861064307 Eh
Relativity type    :
Basis              : AO
                                X                 Y                 Z
Electronic contribution:      3.071091441      -0.728258885       0.532122674
Nuclear contribution   :     -3.593897138       0.898484009      -0.274496788
                        -----------------------------------------
Total Dipole Moment    :     -0.522805697       0.170225125       0.257625887
                        -----------------------------------------
Magnitude (a.u.)       :      0.607184887
Magnitude (Debye)      :      1.543341332

Rotational constants in cm-1:             0.035568             0.029170             0.026767
Rotational constants in MHz :          1066.315902           874.496717           802.455648

                             ****ORCA TERMINATED NORMALLY****
TOTAL RUN TIME: 0 days 0 hours 0 minutes 8 seconds 777 msec
