                         Program Version 6.0.1  -  RELEASE   -
|  1> ! pbe def2-sv(p) def2/J RI DEFGRID1 loosescf d4 GCP(DFT/SV(P)) printgap
|  2> %output
|  3>     printlevel normal
|  4> end
|  5> * xyz 0 1
|  6> C 2.7387870162 -0.6694098221 -0.446101619
|  7> C 1.9506854162 0.3424108404 0.3770051252
|  8> C 0.4654533404 0.2134411189 0.1804829835
|  9> C -0.3756479192 1.3141003052 0.339157329
| 10> C -1.7382559411 1.14807565 0.1703491263
| 11> C -2.2234146561 -0.1099135309 -0.1539394341
| 12> C -1.307812672 -1.1404343277 -0.2895797589
| 13> N -0.0063148464 -0.9869551806 -0.1269963918
| 14> H 2.5630310498 -0.5106635016 -1.5072039171
| 15> H 2.4200959296 -1.6765193586 -0.1957356071
| 16> H 3.803748556 -0.5709420765 -0.2487919335
| 17> H 2.259132265 1.3600894928 0.126436472
| 18> H 2.164703262 0.1872167679 1.4394872429
| 19> H 0.0365129544 2.2804942569 0.589798884
| 20> H -2.4120238332 1.985347418 0.2869306336
| 21> H -3.2785230446 -0.2834411473 -0.2976387109
| 22> H -1.6272125031 -2.1438793511 -0.5421626898
| 23> *
| 24>
| 25>                          ****END OF INPUT****

CARTESIAN COORDINATES (ANGSTROEM)
---------------------------------
  C      2.738787   -0.669410   -0.446102
  C      1.950685    0.342411    0.377005
  C      0.465453    0.213441    0.180483
  C     -0.375648    1.314100    0.339157
  C     -1.738256    1.148076    0.170349
  C     -2.223415   -0.109914   -0.153939
  C     -1.307813   -1.140434   -0.289580
  N     -0.006315   -0.986955   -0.126996
  H      2.563031   -0.510664   -1.507204
  H      2.420096   -1.676519   -0.195736
  H      3.803749   -0.570942   -0.248792
  H      2.259132    1.360089    0.126436
  H      2.164703    0.187217    1.439487
  H      0.036513    2.280494    0.589799
  H     -2.412024    1.985347    0.286931
  H     -3.278523   -0.283441   -0.297639
  H     -1.627213   -2.143879   -0.542163

 Total Charge           Charge          ....    0
 Multiplicity           Mult            ....    1
 Number of Electrons    NEL             ....   58
 Basis Dimension        Dim             ....  130

ORBITAL ENERGIES
----------------

  NO   OCC          E(Eh)            E(eV)
   0   2.0000     -13.976381      -380.3167
   1   2.0000      -9.930046      -270.2103
   2   2.0000      -9.919565      -269.9251
   3   2.0000      -9.908550      -269.6253
   4   2.0000      -9.898320      -269.3470
   5   2.0000      -9.898132      -269.3419
   6   2.0000      -9.887958      -269.0650
   7   2.0000      -9.867359      -268.5045
   8   2.0000      -0.858926       -23.3726
   9   2.0000      -0.724571       -19.7166
  10   2.0000      -0.714109       -19.4319
  11   2.0000      -0.656866       -17.8742
  12   2.0000      -0.576717       -15.6933
  13   2.0000      -0.565724       -15.3941
  14   2.0000      -0.523712       -14.2509
  15   2.0000      -0.465924       -12.6784
  16   2.0000      -0.436540       -11.8788
  17   2.0000      -0.410175       -11.1614
  18   2.0000      -0.402339       -10.9482
  19   2.0000      -0.381208       -10.3732
  20   2.0000      -0.365128        -9.9356
  21   2.0000      -0.353222        -9.6116
  22   2.0000      -0.332120        -9.0374
  23   2.0000      -0.317803        -8.6479
  24   2.0000      -0.301687        -8.2093
  25   2.0000      -0.298338        -8.1182
  26   2.0000      -0.260853        -7.0982
  27   2.0000      -0.230468        -6.2714
  28   2.0000      -0.201672        -5.4878
  29   0.0000      -0.052341        -1.4243
  30   0.0000      -0.042459        -1.1554
  31   0.0000       0.042808         1.1649
  32   0.0000       0.058930         1.6036
  33   0.0000       0.076681         2.0866

MULLIKEN ATOMIC CHARGES
-----------------------
   0 C :   -0.261424
   1 C :   -0.125989
   2 C :   -0.057381
   3 C :   -0.088651
   4 C :   -0.006701
   5 C :   -0.076555
   6 C :   -0.056616
   7 N :   -0.065624
   8 H :    0.097904
   9 H :    0.116859
  10 H :    0.093845
  11 H :    0.083769
  12 H :    0.104790
  13 H :    0.047830
  14 H :    0.064189
  15 H :    0.062705
  16 H :    0.067050
Sum of atomic charges:   -0.0000000

LOEWDIN ATOMIC CHARGES
----------------------
   0 C :   -0.338639
   1 C :   -0.229868
   2 C :   -0.006927
   3 C :   -0.138134
   4 C :   -0.097510
   5 C :   -0.149466
   6 C :   -0.078230
   7 N :   -0.070790
   8 H :    0.119310
   9 H :    0.125410
  10 H :    0.115883
  11 H :    0.121187
  12 H :    0.134223
  13 H :    0.125587
  14 H :    0.127039
  15 H :    0.127563
  16 H :    0.113361

  Mayer bond orders larger than 0.100000
B(  0-C ,  1-C ) :   1.1692 B(  0-C ,  8-H ) :   0.9595 B(  0-C ,  9-H ) :   0.9394
B(  0-C , 10-H ) :   0.9475 B(  1-C ,  2-C ) :   1.0514 B(  1-C , 11-H ) :   0.9172
B(  1-C , 12-H ) :   0.8944 B(  2-C ,  3-C ) :   1.3822 B(  2-C ,  7-N ) :   1.5338
B(  3-C ,  4-C ) :   1.4213 B(  3-C , 13-H ) :   0.9458 B(  4-C ,  5-C ) :   1.4079
B(  4-C , 14-H ) :   0.9555 B(  5-C ,  6-C ) :   1.3780 B(  5-C , 15-H ) :   0.9491
B(  6-C ,  7-N ) :   1.5395 B(  6-C , 16-H ) :   0.9521

Dispersion correction           -0.016193190
FINAL SINGLE POINT ENERGY      -326.179766951600

DIPOLE MOMENT
-------------

Method             : SCF
Type of density    : Electron Density
Multiplicity       :   1
Irrep              :   0
Energy             :  -326.2292420771482284 Eh
Relativity type    :
Basis              : AO
                                X                 Y                 Z
Electronic contribution:     -5.906620806      -0.025952823       0.451293250
Nuclear contribution   :      5.562802506       0.583479259      -0.328004207
                        -----------------------------------------
Total Dipole Moment    :     -0.343818301       0.557526436       0.123289043
                        -----------------------------------------
Magnitude (a.u.)       :      0.666518521
Magnitude (Debye)      :      1.694155443

Rotational constants in cm-1:             0.164486             0.052350             0.040911
Rotational constants in MHz :          4931.152792          1569.413211          1226.480123

                             ****ORCA TERMINATED NORMALLY****
TOTAL RUN TIME: 0 days 0 hours 0 minutes 5 seconds 317 msec
