                         Program Version 6.0.1  -  RELEASE   -
|  1> ! pbe def2-sv(p) def2/J RI DEFGRID1 loosescf d4 GCP(DFT/SV(P)) printgap
|  2> %output
|  3>     printlevel normal
|  4> end
|  5> * xyz 0 1
|  6> C -2.4871795699 -0.7285685398 0.0290550621
|  7> C -1.1096633721 -0.4524445738 0.6502634469
|  8> H -1.1099599826 -0.7540233001 1.7094786525
|  9> C -0.7297958381 1.0530829473 0.5871492868
| 10> H -1.6122462589 1.6339136533 0.2941413377
| 11> C 0.3749722651 1.2650180777 -0.4588929325
| 12> H 0.6991656527 2.3173931694 -0.4075214035
| 13> C 1.5901598754 0.3787690306 -0.0895245162
| 14> H 2.2686963162 0.3462012478 -0.9530841403
| 15> C 1.1437910765 -1.0701801643 0.2369268512
| 16> H 1.3165337569 -1.2460999568 1.3109064811
| 17> O -0.2114758403 -1.2662586458 -0.0851036206
| 18> O 1.8764798555 -2.0217126832 -0.4392020811
| 19> O 2.2527555266 0.874698165 1.0557195886
| 20> O -0.0486965456 1.0067384827 -1.7689190644
| 21> O -0.3530511429 1.546510669 1.84362749
| 22> O -2.4507522606 -0.5284470278 -1.3643365961
| 23> H -3.2276253232 -0.037188531 0.4333391191
| 24> H -2.7886965738 -1.7557551912 0.2611087628
| 25> H 1.6333288882 -1.9873747739 -1.3733878138
| 26> H 2.6951544381 1.702526563 0.8349516754
| 27> H -0.9353289266 0.6047531714 -1.7505847929
| 28> H 0.5536565666 1.2542955725 2.0319047037
| 29> H -1.8912624419 -1.2231204616 -1.7356890506
| 30> *
| 31>
| 32>                          ****END OF INPUT****

CARTESIAN COORDINATES (ANGSTROEM)
---------------------------------
  C     -2.487180   -0.728569    0.029055
  C     -1.109663   -0.452445    0.650263
  H     -1.109960   -0.754023    1.709479
  C     -0.729796    1.053083    0.587149
  H     -1.612246    1.633914    0.294141
  C      0.374972    1.265018   -0.458893
  H      0.699166    2.317393   -0.407521
  C      1.590160    0.378769   -0.089525
  H      2.268696    0.346201   -0.953084
  C      1.143791   -1.070180    0.236927
  H      1.316534   -1.246100    1.310906
  O     -0.211476   -1.266259   -0.085104
  O      1.876480   -2.021713   -0.439202
  O      2.252756    0.874698    1.055720
  O     -0.048697    1.006738   -1.768919
  O     -0.353051    1.546511    1.843627
  O     -2.450752   -0.528447   -1.364337
  H     -3.227625   -0.037189    0.433339
  H     -2.788697   -1.755755    0.261109
  H      1.633329   -1.987375   -1.373388
  H      2.695154    1.702527    0.834952
  H     -0.935329    0.604753   -1.750585
  H      0.553657    1.254296    2.031905
  H     -1.891262   -1.223120   -1.735689

 Total Charge           Charge          ....    0
 Multiplicity           Mult            ....    1
 Number of Electrons    NEL             ....   96
 Basis Dimension        Dim             ....  192

ORBITAL ENERGIES
----------------

  NO   OCC          E(Eh)            E(eV)
   0   2.0000     -18.781137      -511.0607
   1   2.0000     -18.781102      -511.0598
   2   2.0000     -18.781044      -511.0582
   3   2.0000     -18.762597      -510.5562
   4   2.0000     -18.742783      -510.0170
   5   2.0000     -18.742393      -510.0064
   6   2.0000      -9.994362      -271.9604
   7   2.0000      -9.950705      -270.7724
   8   2.0000      -9.949772      -270.7471
   9   2.0000      -9.947015      -270.6720
  10   2.0000      -9.944956      -270.6160
  11   2.0000      -9.942584      -270.5515
  12   2.0000      -0.995746       -27.0956
  13   2.0000      -0.957847       -26.0643
  14   2.0000      -0.954774       -25.9807
  15   2.0000      -0.931172       -25.3385
  16   2.0000      -0.917885       -24.9769
  17   2.0000      -0.916951       -24.9515
  18   2.0000      -0.703933       -19.1550
  19   2.0000      -0.691385       -18.8136
  20   2.0000      -0.626960       -17.0604
  21   2.0000      -0.595720       -16.2104
  22   2.0000      -0.580428       -15.7942
  23   2.0000      -0.533132       -14.5073
  24   2.0000      -0.505165       -13.7462
  25   2.0000      -0.498904       -13.5759
  26   2.0000      -0.484632       -13.1875
  27   2.0000      -0.472825       -12.8662
  28   2.0000      -0.449774       -12.2390
  29   2.0000      -0.449030       -12.2187
  30   2.0000      -0.416554       -11.3350
  31   2.0000      -0.401594       -10.9279
  32   2.0000      -0.393622       -10.7110
  33   2.0000      -0.391492       -10.6530
  34   2.0000      -0.361345        -9.8327
  35   2.0000      -0.351583        -9.5671
  36   2.0000      -0.340172        -9.2566
  37   2.0000      -0.319898        -8.7049
  38   2.0000      -0.312559        -8.5052
  39   2.0000      -0.307373        -8.3640
  40   2.0000      -0.304868        -8.2959
  41   2.0000      -0.283822        -7.7232
  42   2.0000      -0.255268        -6.9462
  43   2.0000      -0.251109        -6.8330
  44   2.0000      -0.248040        -6.7495
  45   2.0000      -0.240202        -6.5362
  46   2.0000      -0.208517        -5.6740
  47   2.0000      -0.202178        -5.5015
  48   0.0000       0.006284         0.1710
  49   0.0000       0.015949         0.4340
  50   0.0000       0.038901         1.0586
  51   0.0000       0.051405         1.3988
  52   0.0000       0.054524         1.4837

MULLIKEN ATOMIC CHARGES
-----------------------
   0 C :    0.049191
   1 C :    0.018624
   2 H :    0.069079
   3 C :   -0.006216
   4 H :    0.085136
   5 C :    0.061266
   6 H :    0.058350
   7 C :   -0.006408
   8 H :    0.069604
   9 C :    0.226112
  10 H :    0.063897
  11 O :   -0.317490
  12 O :   -0.380969
  13 O :   -0.416223
  14 O :   -0.430582
  15 O :   -0.425288
  16 O :   -0.430479
  17 H :    0.108991
  18 H :    0.096431
  19 H :    0.298376
  20 H :    0.313548
  21 H :    0.285799
  22 H :    0.295308
  23 H :    0.313942
Sum of atomic charges:   -0.0000000

LOEWDIN ATOMIC CHARGES
----------------------
   0 C :   -0.122254
   1 C :   -0.081502
   2 H :    0.111965
   3 C :   -0.078601
   4 H :    0.117635
   5 C :   -0.081076
   6 H :    0.101298
   7 C :   -0.096216
   8 H :    0.109711
   9 C :    0.010088
  10 H :    0.101938
  11 O :   -0.161811
  12 O :   -0.286580
  13 O :   -0.304965
  14 O :   -0.332420
  15 O :   -0.321479
  16 O :   -0.313291
  17 H :    0.123094
  18 H :    0.109722
  19 H :    0.284665
  20 H :    0.294040
  21 H :    0.261528
  22 H :    0.267306
  23 H :    0.287206

  Mayer bond orders larger than 0.100000
B(  0-C ,  1-C ) :   1.0302 B(  0-C , 16-O ) :   1.0334 B(  0-C , 17-H ) :   0.9251
B(  0-C , 18-H ) :   0.9227 B(  1-C ,  2-H ) :   0.8772 B(  1-C ,  3-C ) :   0.9395
B(  1-C , 11-O ) :   0.9983 B(  3-C ,  4-H ) :   0.8978 B(  3-C ,  5-C ) :   1.0144
B(  3-C , 15-O ) :   1.0720 B(  5-C ,  6-H ) :   0.8970 B(  5-C ,  7-C ) :   0.9487
B(  5-C , 14-O ) :   1.0971 B(  7-C ,  8-H ) :   0.8937 B(  7-C ,  9-C ) :   0.9715
B(  7-C , 13-O ) :   1.0169 B(  9-C , 10-H ) :   0.8837 B(  9-C , 11-O ) :   1.0326
B(  9-C , 12-O ) :   1.1385 B( 12-O , 19-H ) :   0.8450 B( 13-O , 20-H ) :   0.8387
B( 13-O , 22-H ) :   0.1155 B( 14-O , 21-H ) :   0.7850 B( 15-O , 22-H ) :   0.8063
B( 16-O , 21-H ) :   0.1566 B( 16-O , 23-H ) :   0.8237

Dispersion correction           -0.025612073
FINAL SINGLE POINT ENERGY      -685.694436917745

DIPOLE MOMENT
-------------

Method             : SCF
Type of density    : Electron Density
Multiplicity       :   1
Irrep              :   0
Energy             :  -685.8290955119297223 Eh
Relativity type    :
Basis              : AO
                                X                 Y                 Z
Electronic contribution:      2.322854759      -0.945378516      -0.780755692
Nuclear contribution   :     -2.234498450       0.796869390       0.603797556
                        -----------------------------------------
Total Dipole Moment    :      0.088356309      -0.148509127      -0.176958135
                        -----------------------------------------
Magnitude (a.u.)       :      0.247337785
Magnitude (Debye)      :      0.628682687

Rotational constants in cm-1:             0.040653             0.028827             0.023807
Rotational constants in MHz :          1218.742929           864.200647           713.722846

                             ****ORCA TERMINATED NORMALLY****
TOTAL RUN TIME: 0 days 0 hours 0 minutes 8 seconds 728 msec
