                         Program Version 6.0.1  -  RELEASE   -
|  1> ! pbe def2-sv(p) def2/J RI DEFGRID1 loosescf d4 GCP(DFT/SV(P)) printgap
|  2> %output
|  3>     printlevel normal
|  4> end
|  5> * xyz 0 1
|  6> C -2.4939182357 -0.7127877038 0.0196085775
|  7> C -1.1131966042 -0.4373455752 0.6347648476
|  8> H -1.1042332635 -0.7253556134 1.697484955
|  9> C -0.7280889367 1.0589100591 0.5633329771
| 10> H -1.6014112827 1.6436255061 0.238237172
| 11> C 0.4039868918 1.2626062194 -0.457056238
| 12> H 0.7578977312 2.304083788 -0.403184058
| 13> C 1.6070117571 0.3670281997 -0.0646946016
| 14> H 2.3051611095 0.34041808 -0.9081270097
| 15> C 1.1369548705 -1.0802366585 0.246089225
| 16> H 1.2740053946 -1.2782972872 1.3218774168
| 17> O -0.2243462767 -1.2514914764 -0.1004581561
| 18> O 1.859562354 -2.0471072574 -0.4182590288
| 19> O 2.3163978212 0.9242414387 1.0072607864
| 20> O -0.027301332 1.0365201322 -1.7701725808
| 21> O -0.3341299134 1.4554229891 1.8626744743
| 22> O -2.4506461485 -0.5430918396 -1.376511665
| 23> H -3.2318163373 -0.0084898085 0.4062343936
| 24> H -2.802044919 -1.7322182208 0.2748546681
| 25> H 1.7147880697 -1.9451175243 -1.3674666421
| 26> H 1.71138687 0.9998194891 1.7607347521
| 27> H -0.8638032021 0.5401589981 -1.7597047806
| 28> H -0.1982499259 2.4105179259 1.872677528
| 29> H -1.9023861793 -1.2546652224 -1.7326049062
| 30> *
| 31>
| 32>                          ****END OF INPUT****

CARTESIAN COORDINATES (ANGSTROEM)
---------------------------------
  C     -2.493918   -0.712788    0.019609
  C     -1.113197   -0.437346    0.634765
  H     -1.104233   -0.725356    1.697485
  C     -0.728089    1.058910    0.563333
  H     -1.601411    1.643626    0.238237
  C      0.403987    1.262606   -0.457056
  H      0.757898    2.304084   -0.403184
  C      1.607012    0.367028   -0.064695
  H      2.305161    0.340418   -0.908127
  C      1.136955   -1.080237    0.246089
  H      1.274005   -1.278297    1.321877
  O     -0.224346   -1.251491   -0.100458
  O      1.859562   -2.047107   -0.418259
  O      2.316398    0.924241    1.007261
  O     -0.027301    1.036520   -1.770173
  O     -0.334130    1.455423    1.862674
  O     -2.450646   -0.543092   -1.376512
  H     -3.231816   -0.008490    0.406234
  H     -2.802045   -1.732218    0.274855
  H      1.714788   -1.945118   -1.367467
  H      1.711387    0.999819    1.760735
  H     -0.863803    0.540159   -1.759705
  H     -0.198250    2.410518    1.872678
  H     -1.902386   -1.254665   -1.732605

 Total Charge           Charge          ....    0
 Multiplicity           Mult            ....    1
 Number of Electrons    NEL             ....   96
 Basis Dimension        Dim             ....  192

ORBITAL ENERGIES
----------------

  NO   OCC          E(Eh)            E(eV)
   0   2.0000     -18.784831      -511.1612
   1   2.0000     -18.783366      -511.1214
   2   2.0000     -18.780524      -511.0440
   3   2.0000     -18.758661      -510.4491
   4   2.0000     -18.741959      -509.9946
   5   2.0000     -18.740508      -509.9552
   6   2.0000      -9.986884      -271.7569
   7   2.0000      -9.959423      -271.0097
   8   2.0000      -9.959016      -270.9986
   9   2.0000      -9.954635      -270.8794
  10   2.0000      -9.940550      -270.4961
  11   2.0000      -9.932358      -270.2732
  12   2.0000      -0.993604       -27.0373
  13   2.0000      -0.960199       -26.1283
  14   2.0000      -0.958331       -26.0775
  15   2.0000      -0.924626       -25.1603
  16   2.0000      -0.922262       -25.0960
  17   2.0000      -0.914325       -24.8801
  18   2.0000      -0.713106       -19.4046
  19   2.0000      -0.682374       -18.5683
  20   2.0000      -0.627414       -17.0728
  21   2.0000      -0.600348       -16.3363
  22   2.0000      -0.576230       -15.6800
  23   2.0000      -0.533152       -14.5078
  24   2.0000      -0.510439       -13.8897
  25   2.0000      -0.498028       -13.5520
  26   2.0000      -0.481899       -13.1131
  27   2.0000      -0.475843       -12.9483
  28   2.0000      -0.458803       -12.4847
  29   2.0000      -0.445229       -12.1153
  30   2.0000      -0.411974       -11.2104
  31   2.0000      -0.402677       -10.9574
  32   2.0000      -0.397210       -10.8086
  33   2.0000      -0.383637       -10.4393
  34   2.0000      -0.359900        -9.7934
  35   2.0000      -0.355882        -9.6840
  36   2.0000      -0.346888        -9.4393
  37   2.0000      -0.321275        -8.7423
  38   2.0000      -0.309492        -8.4217
  39   2.0000      -0.306032        -8.3275
  40   2.0000      -0.299578        -8.1519
  41   2.0000      -0.280809        -7.6412
  42   2.0000      -0.258661        -7.0385
  43   2.0000      -0.253360        -6.8943
  44   2.0000      -0.247450        -6.7335
  45   2.0000      -0.234457        -6.3799
  46   2.0000      -0.225609        -6.1391
  47   2.0000      -0.190474        -5.1831
  48   0.0000       0.001706         0.0464
  49   0.0000       0.012419         0.3379
  50   0.0000       0.038783         1.0553
  51   0.0000       0.050408         1.3717
  52   0.0000       0.056935         1.5493

MULLIKEN ATOMIC CHARGES
-----------------------
   0 C :    0.049446
   1 C :    0.022297
   2 H :    0.078361
   3 C :   -0.046107
   4 H :    0.087131
   5 C :    0.053213
   6 H :    0.060927
   7 C :    0.061431
   8 H :    0.067153
   9 C :    0.207053
  10 H :    0.052914
  11 O :   -0.318287
  12 O :   -0.377665
  13 O :   -0.430180
  14 O :   -0.426593
  15 O :   -0.414845
  16 O :   -0.427919
  17 H :    0.106696
  18 H :    0.099543
  19 H :    0.298828
  20 H :    0.287159
  21 H :    0.281361
  22 H :    0.311387
  23 H :    0.316695
Sum of atomic charges:    0.0000000

LOEWDIN ATOMIC CHARGES
----------------------
   0 C :   -0.121588
   1 C :   -0.073554
   2 H :    0.115390
   3 C :   -0.082130
   4 H :    0.108522
   5 C :   -0.082672
   6 H :    0.104098
   7 C :   -0.090803
   8 H :    0.118695
   9 C :    0.003154
  10 H :    0.098792
  11 O :   -0.164956
  12 O :   -0.284683
  13 O :   -0.317459
  14 O :   -0.328753
  15 O :   -0.308765
  16 O :   -0.313083
  17 H :    0.121350
  18 H :    0.111435
  19 H :    0.284807
  20 H :    0.263854
  21 H :    0.258339
  22 H :    0.291421
  23 H :    0.288588

  Mayer bond orders larger than 0.100000
B(  0-C ,  1-C ) :   1.0316 B(  0-C , 16-O ) :   1.0396 B(  0-C , 17-H ) :   0.9257
B(  0-C , 18-H ) :   0.9238 B(  1-C ,  2-H ) :   0.8754 B(  1-C ,  3-C ) :   0.9624
B(  1-C , 11-O ) :   1.0276 B(  3-C ,  4-H ) :   0.9019 B(  3-C ,  5-C ) :   1.0206
B(  3-C , 15-O ) :   1.0255 B(  5-C ,  6-H ) :   0.8957 B(  5-C ,  7-C ) :   0.9335
B(  5-C , 14-O ) :   1.0900 B(  7-C ,  8-H ) :   0.8926 B(  7-C ,  9-C ) :   0.9649
B(  7-C , 13-O ) :   1.0435 B(  9-C , 10-H ) :   0.8858 B(  9-C , 11-O ) :   0.9975
B(  9-C , 12-O ) :   1.1442 B( 12-O , 19-H ) :   0.8456 B( 13-O , 20-H ) :   0.8179
B( 14-O , 21-H ) :   0.7885 B( 15-O , 20-H ) :   0.1007 B( 15-O , 22-H ) :   0.8370
B( 16-O , 21-H ) :   0.1521 B( 16-O , 23-H ) :   0.8221

Dispersion correction           -0.025571164
FINAL SINGLE POINT ENERGY      -685.693505496324

DIPOLE MOMENT
-------------

Method             : SCF
Type of density    : Electron Density
Multiplicity       :   1
Irrep              :   0
Energy             :  -685.8277746910970336 Eh
Relativity type    :
Basis              : AO
                                X                 Y                 Z
Electronic contribution:      2.568075016      -1.059542361      -0.951094916
Nuclear contribution   :     -3.680170898       1.208138903       1.302604564
                        -----------------------------------------
Total Dipole Moment    :     -1.112095882       0.148596542       0.351509648
                        -----------------------------------------
Magnitude (a.u.)       :      1.175753892
Magnitude (Debye)      :      2.988528892

Rotational constants in cm-1:             0.040476             0.028729             0.023758
Rotational constants in MHz :          1213.453866           861.265515           712.235970

                             ****ORCA TERMINATED NORMALLY****
TOTAL RUN TIME: 0 days 0 hours 0 minutes 8 seconds 844 msec
