                         Program Version 6.0.1  -  RELEASE   -
|  1> ! r2scan-3c def2/J RI DEFGRID2 scfconv6 printgap
|  2> %output
|  3>     printlevel normal
|  4> end
|  5> * xyz 0 1
|  6> C -2.5612441606 -0.883798001 0.2707086626
|  7> C -1.1448051441 -0.4256705784 0.6442162485
|  8> H -1.0573440962 -0.3338163303 1.7369540559
|  9> C -0.8316072149 0.9378172127 0.0169496686
| 10> H -1.0639264381 0.8893128768 -1.0609788133
| 11> C 0.6570200567 1.2975769966 0.1911017009
| 12> H 0.8643817197 1.4521684983 1.2573224919
| 13> C 1.5226710671 0.1496665522 -0.3246266201
| 14> H 1.3404144507 0.009266493 -1.4057136674
| 15> C 1.092940585 -1.1466616685 0.3839290126
| 16> H 1.2798574682 -1.0361093562 1.473807694
| 17> O -0.2626692437 -1.4291389799 0.1671117578
| 18> O 1.8460843427 -2.1857301588 -0.1435895083
| 19> O 2.8736092429 0.4245585969 -0.0844351956
| 20> O 0.9228370698 2.5309768365 -0.429065197
| 21> O -1.6347581025 1.9025434759 0.6434103599
| 22> O -2.6749426067 -1.1346142451 -1.1015337043
| 23> H -3.264787473 -0.0866045753 0.5126061666
| 24> H -2.8072863345 -1.7831633798 0.8521895843
| 25> H 1.4205008365 -3.0192664963 0.0886497082
| 26> H 3.3743302537 -0.383974455 -0.2504588995
| 27> H 1.2063334695 2.3795954028 -1.3372497488
| 28> H -1.2502165118 2.7660774205 0.4382156661
| 29> H -1.9548638949 -1.7304060814 -1.344231234
| 30> *
| 31>
| 32>                          ****END OF INPUT****

CARTESIAN COORDINATES (ANGSTROEM)
---------------------------------
  C     -2.561244   -0.883798    0.270709
  C     -1.144805   -0.425671    0.644216
  H     -1.057344   -0.333816    1.736954
  C     -0.831607    0.937817    0.016950
  H     -1.063926    0.889313   -1.060979
  C      0.657020    1.297577    0.191102
  H      0.864382    1.452168    1.257322
  C      1.522671    0.149667   -0.324627
  H      1.340414    0.009266   -1.405714
  C      1.092941   -1.146662    0.383929
  H      1.279857   -1.036109    1.473808
  O     -0.262669   -1.429139    0.167112
  O      1.846084   -2.185730   -0.143590
  O      2.873609    0.424559   -0.084435
  O      0.922837    2.530977   -0.429065
  O     -1.634758    1.902543    0.643410
  O     -2.674943   -1.134614   -1.101534
  H     -3.264787   -0.086605    0.512606
  H     -2.807286   -1.783163    0.852190
  H      1.420501   -3.019266    0.088650
  H      3.374330   -0.383974   -0.250459
  H      1.206333    2.379595   -1.337250
  H     -1.250217    2.766077    0.438216
  H     -1.954864   -1.730406   -1.344231

 Total Charge           Charge          ....    0
 Multiplicity           Mult            ....    1
 Number of Electrons    NEL             ....   96
 Basis Dimension        Dim             ....  318

ORBITAL ENERGIES
----------------

  NO   OCC          E(Eh)            E(eV)
   0   2.0000     -18.987715      -516.6820
   1   2.0000     -18.984737      -516.6010
   2   2.0000     -18.967893      -516.1426
   3   2.0000     -18.965668      -516.0821
   4   2.0000     -18.957195      -515.8515
   5   2.0000     -18.951522      -515.6971
   6   2.0000     -10.153356      -276.2869
   7   2.0000     -10.101211      -274.8679
   8   2.0000     -10.099518      -274.8218
   9   2.0000     -10.096756      -274.7467
  10   2.0000     -10.089564      -274.5510
  11   2.0000     -10.081418      -274.3293
  12   2.0000      -1.069269       -29.0963
  13   2.0000      -1.020554       -27.7707
  14   2.0000      -1.013245       -27.5718
  15   2.0000      -0.999247       -27.1909
  16   2.0000      -0.990336       -26.9484
  17   2.0000      -0.987350       -26.8672
  18   2.0000      -0.757086       -20.6014
  19   2.0000      -0.745236       -20.2789
  20   2.0000      -0.661927       -18.0120
  21   2.0000      -0.625250       -17.0139
  22   2.0000      -0.601857       -16.3774
  23   2.0000      -0.571191       -15.5429
  24   2.0000      -0.540875       -14.7180
  25   2.0000      -0.515885       -14.0379
  26   2.0000      -0.495933       -13.4950
  27   2.0000      -0.479893       -13.0586
  28   2.0000      -0.465622       -12.6702
  29   2.0000      -0.464211       -12.6318
  30   2.0000      -0.455956       -12.4072
  31   2.0000      -0.441915       -12.0251
  32   2.0000      -0.410170       -11.1613
  33   2.0000      -0.398455       -10.8425
  34   2.0000      -0.385539       -10.4910
  35   2.0000      -0.375328       -10.2132
  36   2.0000      -0.361825        -9.8458
  37   2.0000      -0.358397        -9.7525
  38   2.0000      -0.339509        -9.2385
  39   2.0000      -0.322635        -8.7794
  40   2.0000      -0.308451        -8.3934
  41   2.0000      -0.299449        -8.1484
  42   2.0000      -0.289195        -7.8694
  43   2.0000      -0.272266        -7.4087
  44   2.0000      -0.265621        -7.2279
  45   2.0000      -0.245789        -6.6883
  46   2.0000      -0.237565        -6.4645
  47   2.0000      -0.234164        -6.3719
  48   0.0000       0.028196         0.7673
  49   0.0000       0.042384         1.1533
  50   0.0000       0.058047         1.5795
  51   0.0000       0.071044         1.9332
  52   0.0000       0.085388         2.3235

MULLIKEN ATOMIC CHARGES
-----------------------
   0 C :   -0.239279
   1 C :    0.029396
   2 H :    0.168229
   3 C :    0.041850
   4 H :    0.191921
   5 C :   -0.156915
   6 H :    0.180712
   7 C :   -0.001092
   8 H :    0.172016
   9 C :   -0.054094
  10 H :    0.146212
  11 O :   -0.243245
  12 O :   -0.403774
  13 O :   -0.412519
  14 O :   -0.403858
  15 O :   -0.445248
  16 O :   -0.422581
  17 H :    0.160687
  18 H :    0.136751
  19 H :    0.310480
  20 H :    0.315752
  21 H :    0.307776
  22 H :    0.312943
  23 H :    0.307877
Sum of atomic charges:   -0.0000000

LOEWDIN ATOMIC CHARGES
----------------------
   0 C :    0.045008
   1 C :    0.116569
   2 H :    0.188728
   3 C :    0.102144
   4 H :    0.188173
   5 C :    0.102093
   6 H :    0.200382
   7 C :    0.112301
   8 H :    0.181885
   9 C :    0.301459
  10 H :    0.181992
  11 O :   -0.695279
  12 O :   -0.504625
  13 O :   -0.552987
  14 O :   -0.557887
  15 O :   -0.577383
  16 O :   -0.588898
  17 H :    0.196639
  18 H :    0.163618
  19 H :    0.283574
  20 H :    0.282033
  21 H :    0.273393
  22 H :    0.283284
  23 H :    0.273784

  Mayer bond orders larger than 0.100000
B(  0-C ,  1-C ) :   0.9460 B(  0-C , 16-O ) :   1.0225 B(  0-C , 17-H ) :   0.9603
B(  0-C , 18-H ) :   0.9782 B(  1-C ,  2-H ) :   0.9297 B(  1-C ,  3-C ) :   0.8547
B(  1-C , 11-O ) :   0.7688 B(  3-C ,  4-H ) :   0.9770 B(  3-C ,  5-C ) :   0.8320
B(  3-C , 15-O ) :   0.8438 B(  5-C ,  6-H ) :   0.9862 B(  5-C ,  7-C ) :   0.9358
B(  5-C , 14-O ) :   1.0394 B(  7-C ,  8-H ) :   0.9676 B(  7-C ,  9-C ) :   0.7992
B(  7-C , 13-O ) :   0.9014 B(  9-C , 10-H ) :   1.0048 B(  9-C , 11-O ) :   0.9515
B(  9-C , 12-O ) :   1.0276 B( 12-O , 19-H ) :   0.8797 B( 13-O , 20-H ) :   0.8777
B( 14-O , 21-H ) :   0.8906 B( 15-O , 22-H ) :   0.8727 B( 16-O , 23-H ) :   0.8720

Dispersion correction           -0.008091790
FINAL SINGLE POINT ENERGY      -687.076014513476

DIPOLE MOMENT
-------------

Method             : SCF
Type of density    : Electron Density
Multiplicity       :   1
Irrep              :   0
Energy             :  -687.0876281942968262 Eh
Relativity type    :
Basis              : AO
                                X                 Y                 Z
Electronic contribution:      2.272897225      -0.009651271      -0.820910797
Nuclear contribution   :     -1.778496426      -0.821091336       0.887641859
                        -----------------------------------------
Total Dipole Moment    :      0.494400798      -0.830742607       0.066731063
                        -----------------------------------------
Magnitude (a.u.)       :      0.969029651
Magnitude (Debye)      :      2.463077628

Rotational constants in cm-1:             0.038659             0.027614             0.017946
Rotational constants in MHz :          1158.974539           827.839860           538.000362

                             ****ORCA TERMINATED NORMALLY****
TOTAL RUN TIME: 0 days 0 hours 0 minutes 37 seconds 87 msec
