                         Program Version 6.0.1  -  RELEASE   -
|  1> ! pbe def2-sv(p) def2/J RI DEFGRID1 loosescf d4 GCP(DFT/SV(P)) printgap
|  2> %output
|  3>     printlevel normal
|  4> end
|  5> * xyz 0 1
|  6> C -2.7002269299 -0.3830206602 0.7306298482
|  7> C -1.8266429522 -0.7078244883 -0.4993466885
|  8> C -0.3621859954 -0.4431847155 -0.2513005773
|  9> C 0.5393325107 -1.492164402 -0.1438059786
| 10> C 1.8841111247 -1.2678031879 0.08975912
| 11> C 2.3495270742 0.0292623353 0.2183486469
| 12> C 1.4710652003 1.089866215 0.1182394438
| 13> C 0.1186327739 0.8624045741 -0.1105131069
| 14> O -0.6950320979 1.9517285963 -0.191583049
| 15> H -2.0810875708 -0.0750967194 1.5710978089
| 16> H -3.2655192373 -1.2567788916 1.0431484396
| 17> H -3.4144634151 0.4120846619 0.5241272313
| 18> H -2.1641434261 -0.1291395519 -1.3655940004
| 19> H -1.9421632006 -1.7592301141 -0.7635774501
| 20> H 0.1763107531 -2.5050204022 -0.2470670824
| 21> H 2.5645458078 -2.1019884474 0.1691138539
| 22> H 3.397417199 0.2171435631 0.3976984625
| 23> H 1.8077772 2.1099864081 0.2154709357
| 24> H -1.606570598 1.6636150033 -0.3147195908
| 25> *
| 26>
| 27>                          ****END OF INPUT****

CARTESIAN COORDINATES (ANGSTROEM)
---------------------------------
  C     -2.700227   -0.383021    0.730630
  C     -1.826643   -0.707824   -0.499347
  C     -0.362186   -0.443185   -0.251301
  C      0.539333   -1.492164   -0.143806
  C      1.884111   -1.267803    0.089759
  C      2.349527    0.029262    0.218349
  C      1.471065    1.089866    0.118239
  C      0.118633    0.862405   -0.110513
  O     -0.695032    1.951729   -0.191583
  H     -2.081088   -0.075097    1.571098
  H     -3.265519   -1.256779    1.043148
  H     -3.414463    0.412085    0.524127
  H     -2.164143   -0.129140   -1.365594
  H     -1.942163   -1.759230   -0.763577
  H      0.176311   -2.505020   -0.247067
  H      2.564546   -2.101988    0.169114
  H      3.397417    0.217144    0.397698
  H      1.807777    2.109986    0.215471
  H     -1.606571    1.663615   -0.314720

 Total Charge           Charge          ....    0
 Multiplicity           Mult            ....    1
 Number of Electrons    NEL             ....   66
 Basis Dimension        Dim             ....  146

ORBITAL ENERGIES
----------------

  NO   OCC          E(Eh)            E(eV)
   0   2.0000     -18.779181      -511.0075
   1   2.0000      -9.945600      -270.6335
   2   2.0000      -9.903668      -269.4925
   3   2.0000      -9.896472      -269.2967
   4   2.0000      -9.890126      -269.1240
   5   2.0000      -9.887848      -269.0620
   6   2.0000      -9.886781      -269.0330
   7   2.0000      -9.881227      -268.8819
   8   2.0000      -9.880652      -268.8662
   9   2.0000      -0.962416       -26.1887
  10   2.0000      -0.770945       -20.9785
  11   2.0000      -0.715526       -19.4705
  12   2.0000      -0.661829       -18.0093
  13   2.0000      -0.650003       -17.6875
  14   2.0000      -0.577325       -15.7098
  15   2.0000      -0.540671       -14.7124
  16   2.0000      -0.538470       -14.6525
  17   2.0000      -0.481955       -13.1147
  18   2.0000      -0.444899       -12.1063
  19   2.0000      -0.419033       -11.4025
  20   2.0000      -0.398737       -10.8502
  21   2.0000      -0.393689       -10.7128
  22   2.0000      -0.377417       -10.2700
  23   2.0000      -0.365714        -9.9516
  24   2.0000      -0.344942        -9.3864
  25   2.0000      -0.334436        -9.1005
  26   2.0000      -0.332096        -9.0368
  27   2.0000      -0.317026        -8.6267
  28   2.0000      -0.299328        -8.1451
  29   2.0000      -0.292757        -7.9663
  30   2.0000      -0.285684        -7.7739
  31   2.0000      -0.220009        -5.9868
  32   2.0000      -0.190464        -5.1828
  33   0.0000      -0.028267        -0.7692
  34   0.0000      -0.016477        -0.4484
  35   0.0000       0.013674         0.3721
  36   0.0000       0.046525         1.2660
  37   0.0000       0.063849         1.7374

MULLIKEN ATOMIC CHARGES
-----------------------
   0 C :   -0.301908
   1 C :   -0.205656
   2 C :    0.008310
   3 C :   -0.140336
   4 C :   -0.044760
   5 C :   -0.043526
   6 C :   -0.129812
   7 C :    0.152485
   8 O :   -0.331904
   9 H :    0.134333
  10 H :    0.114594
  11 H :    0.102957
  12 H :    0.106027
  13 H :    0.094883
  14 H :    0.032626
  15 H :    0.043611
  16 H :    0.051427
  17 H :    0.040203
  18 H :    0.316447
Sum of atomic charges:   -0.0000000

LOEWDIN ATOMIC CHARGES
----------------------
   0 C :   -0.352465
   1 C :   -0.230631
   2 C :   -0.085843
   3 C :   -0.120536
   4 C :   -0.148572
   5 C :   -0.120325
   6 C :   -0.148312
   7 C :    0.025993
   8 O :   -0.232141
   9 H :    0.129098
  10 H :    0.128585
  11 H :    0.117188
  12 H :    0.119874
  13 H :    0.129344
  14 H :    0.119889
  15 H :    0.121141
  16 H :    0.123405
  17 H :    0.129330
  18 H :    0.294979

  Mayer bond orders larger than 0.100000
B(  0-C ,  1-C ) :   1.0980 B(  0-C ,  9-H ) :   0.9613 B(  0-C , 10-H ) :   0.9528
B(  0-C , 11-H ) :   0.9507 B(  1-C ,  2-C ) :   1.0607 B(  1-C , 12-H ) :   0.9218
B(  1-C , 13-H ) :   0.9088 B(  2-C ,  3-C ) :   1.4043 B(  2-C ,  7-C ) :   1.3064
B(  3-C ,  4-C ) :   1.3599 B(  3-C , 14-H ) :   0.9569 B(  4-C ,  5-C ) :   1.3585
B(  4-C , 15-H ) :   0.9661 B(  5-C ,  6-C ) :   1.3664 B(  5-C , 16-H ) :   0.9668
B(  6-C ,  7-C ) :   1.3732 B(  6-C , 17-H ) :   0.9625 B(  7-C ,  8-O ) :   1.2244
B(  8-O , 18-H ) :   0.8297

Dispersion correction           -0.019258848
FINAL SINGLE POINT ENERGY      -385.230446765769

DIPOLE MOMENT
-------------

Method             : SCF
Type of density    : Electron Density
Multiplicity       :   1
Irrep              :   0
Energy             :  -385.2906374243078176 Eh
Relativity type    :
Basis              : AO
                                X                 Y                 Z
Electronic contribution:      5.485140988       2.869779471      -1.183506741
Nuclear contribution   :     -6.134568744      -3.183763214       1.150825502
                        -----------------------------------------
Total Dipole Moment    :     -0.649427756      -0.313983743      -0.032681239
                        -----------------------------------------
Magnitude (a.u.)       :      0.722087435
Magnitude (Debye)      :      1.835400399

Rotational constants in cm-1:             0.092713             0.047613             0.033816
Rotational constants in MHz :          2779.470157          1427.406904          1013.781160

                             ****ORCA TERMINATED NORMALLY****
TOTAL RUN TIME: 0 days 0 hours 0 minutes 8 seconds 947 msec
