                         Program Version 6.0.0  -   RELEASE  -
|  1> ! r2SCAN-3c DEF2-TZVP FREQ
|  2> * xyzfile 0 1 censo.xyz
|  3>
|  4>                          ****END OF INPUT****

CARTESIAN COORDINATES (ANGSTROEM)
---------------------------------
  C     -2.688629    0.000276   -0.407470
  C     -2.027616    1.206612   -0.183711
  C     -0.709602    1.206635    0.260791
  C     -0.041423   -0.000270    0.487379
  C     -0.709915   -1.206896    0.260251
  C     -2.027936   -1.206329   -0.184243
  C      1.368438   -0.000563    0.961680
  Cl     2.546053    0.000172   -0.484433
  H     -3.717945    0.000487   -0.751604
  H     -2.541202    2.147807   -0.352099
  H     -0.192171    2.145527    0.437072
  H     -0.192730   -2.146002    0.436113
  H     -2.541772   -2.147316   -0.353038
  H      1.619252   -0.897464    1.527703
  H      1.619314    0.895725    1.528649

 Total Charge           Charge          ....    0
 Multiplicity           Mult            ....    1
 Number of Electrons    NEL             ....   66
 Basis Dimension        Dim             ....  296

ORBITAL ENERGIES
----------------

  NO   OCC          E(Eh)            E(eV)
   0   2.0000    -101.170006     -2752.9758
   1   2.0000     -10.100781      -274.8562
   2   2.0000     -10.058701      -273.7112
   3   2.0000     -10.048459      -273.4325
   4   2.0000     -10.048439      -273.4319
   5   2.0000     -10.047402      -273.4037
   6   2.0000     -10.047077      -273.3949
   7   2.0000     -10.046803      -273.3874
   8   2.0000      -9.345731      -254.3103
   9   2.0000      -7.090630      -192.9459
  10   2.0000      -7.080581      -192.6724
  11   2.0000      -7.080454      -192.6689
  12   2.0000      -0.841452       -22.8971
  13   2.0000      -0.799301       -21.7501
  14   2.0000      -0.731879       -19.9154
  15   2.0000      -0.724923       -19.7262
  16   2.0000      -0.645602       -17.5677
  17   2.0000      -0.586681       -15.9644
  18   2.0000      -0.562114       -15.2959
  19   2.0000      -0.492408       -13.3991
  20   2.0000      -0.451357       -12.2820
  21   2.0000      -0.440095       -11.9756
  22   2.0000      -0.403450       -10.9784
  23   2.0000      -0.401623       -10.9287
  24   2.0000      -0.392259       -10.6739
  25   2.0000      -0.389259       -10.5923
  26   2.0000      -0.345678        -9.4064
  27   2.0000      -0.330895        -9.0041
  28   2.0000      -0.321909        -8.7596
  29   2.0000      -0.269794        -7.3415
  30   2.0000      -0.266800        -7.2600
  31   2.0000      -0.247022        -6.7218
  32   2.0000      -0.240792        -6.5523
  33   0.0000      -0.063605        -1.7308
  34   0.0000      -0.044985        -1.2241
  35   0.0000       0.006750         0.1837
  36   0.0000       0.047708         1.2982
  37   0.0000       0.071365         1.9420

MULLIKEN ATOMIC CHARGES
-----------------------
   0 C :   -0.122969
   1 C :   -0.088547
   2 C :   -0.191763
   3 C :    0.196836
   4 C :   -0.191777
   5 C :   -0.088529
   6 C :   -0.127909
   7 Cl:   -0.201745
   8 H :    0.114130
   9 H :    0.113615
  10 H :    0.109275
  11 H :    0.109261
  12 H :    0.113611
  13 H :    0.128255
  14 H :    0.128257
Sum of atomic charges:   -0.0000000

LOEWDIN ATOMIC CHARGES
----------------------
   0 C :   -0.133640
   1 C :   -0.133961
   2 C :   -0.103239
   3 C :   -0.193641
   4 C :   -0.103243
   5 C :   -0.133963
   6 C :   -0.382649
   7 Cl:    0.193235
   8 H :    0.144194
   9 H :    0.144701
  10 H :    0.148561
  11 H :    0.148558
  12 H :    0.144700
  13 H :    0.130193
  14 H :    0.130195

  Mayer bond orders larger than 0.100000
B(  0-C ,  1-C ) :   1.3862 B(  0-C ,  5-C ) :   1.3863 B(  0-C ,  8-H ) :   0.9661
B(  1-C ,  2-C ) :   1.4168 B(  1-C ,  9-H ) :   0.9685 B(  2-C ,  3-C ) :   1.3220
B(  2-C , 10-H ) :   0.9737 B(  3-C ,  4-C ) :   1.3220 B(  3-C ,  6-C ) :   0.9471
B(  4-C ,  5-C ) :   1.4168 B(  4-C , 11-H ) :   0.9737 B(  5-C , 12-H ) :   0.9686
B(  6-C ,  7-Cl) :   1.0267 B(  6-C , 13-H ) :   0.9653 B(  6-C , 14-H ) :   0.9653

Dispersion correction           -0.005138299
FINAL SINGLE POINT ENERGY      -731.085416002495

DIPOLE MOMENT
-------------

Method             : SCF
Type of density    : Electron Density
Multiplicity       :   1
Irrep              :   0
Energy             :  -731.0861724867843350 Eh
Relativity type    :
Basis              : AO
                                X                 Y                 Z
Electronic contribution:      8.343146917       0.001079958      -2.448766040
Nuclear contribution   :     -9.085853564      -0.001324114       2.983862493
                        -----------------------------------------
Total Dipole Moment    :     -0.742706647      -0.000244156       0.535096453
                        -----------------------------------------
Magnitude (a.u.)       :      0.915391412
Magnitude (Debye)      :      2.326740060

VIBRATIONAL FREQUENCIES
-----------------------

Scaling factor for frequencies =  1.000000000  (already applied!)

     0:       0.00 cm**-1
     1:       0.00 cm**-1
     2:       0.00 cm**-1
     3:       0.00 cm**-1
     4:       0.00 cm**-1
     5:       0.00 cm**-1
     6:      69.91 cm**-1
     7:     114.97 cm**-1
     8:     267.01 cm**-1
     9:     340.07 cm**-1
    10:     410.96 cm**-1
    11:     474.65 cm**-1
    12:     560.65 cm**-1
    13:     625.88 cm**-1
    14:     637.78 cm**-1
    15:     709.39 cm**-1
    16:     780.03 cm**-1
    17:     827.86 cm**-1
    18:     846.90 cm**-1
    19:     917.12 cm**-1
    20:     921.67 cm**-1
    21:     956.36 cm**-1
    22:     984.44 cm**-1
    23:    1023.55 cm**-1
    24:    1049.51 cm**-1
    25:    1099.13 cm**-1
    26:    1152.47 cm**-1
    27:    1183.35 cm**-1
    28:    1200.69 cm**-1
    29:    1235.17 cm**-1
    30:    1267.78 cm**-1
    31:    1349.43 cm**-1
    32:    1353.76 cm**-1
    33:    1480.04 cm**-1
    34:    1483.38 cm**-1
    35:    1522.06 cm**-1
    36:    1617.91 cm**-1
    37:    1633.86 cm**-1
    38:    3078.80 cm**-1
    39:    3152.00 cm**-1
    40:    3153.98 cm**-1
    41:    3155.78 cm**-1
    42:    3165.31 cm**-1
    43:    3174.06 cm**-1
    44:    3184.14 cm**-1

IR SPECTRUM
-----------

 Mode   freq       eps      Int      T**2         TX        TY        TZ
       cm**-1   L/(mol*cm) km/mol    a.u.
----------------------------------------------------------------------------
  6:     69.91   0.000198    1.00  0.000883  (-0.000001 -0.029721 -0.000013)
  7:    114.97   0.000347    1.75  0.000941  (-0.030545  0.000011  0.002841)
  8:    267.01   0.000954    4.82  0.001114  (-0.033255 -0.000004 -0.002918)
  9:    340.07   0.000158    0.80  0.000145  ( 0.000016 -0.012022 -0.000015)
 10:    410.96   0.000000    0.00  0.000000  ( 0.000008  0.000535 -0.000001)
 11:    474.65   0.000695    3.51  0.000457  ( 0.020710  0.000006  0.005291)
 12:    560.65   0.006270   31.69  0.003490  (-0.059069 -0.000000  0.001039)
 13:    625.88   0.016709   84.44  0.008331  (-0.061435 -0.000021  0.067506)
 14:    637.78   0.000012    0.06  0.000006  (-0.000033 -0.002372  0.000031)
 15:    709.39   0.008594   43.43  0.003780  ( 0.016655  0.000009 -0.059186)
 16:    780.03   0.001936    9.78  0.000775  ( 0.002584  0.000002 -0.027711)
 17:    827.86   0.001835    9.28  0.000692  (-0.025868  0.000001  0.004763)
 18:    846.90   0.000000    0.00  0.000000  (-0.000000  0.000003 -0.000000)
 19:    917.12   0.000001    0.00  0.000000  (-0.000014  0.000417  0.000015)
 20:    921.67   0.000234    1.18  0.000079  ( 0.005861  0.000001 -0.006710)
 21:    956.36   0.000006    0.03  0.000002  (-0.000000  0.001342 -0.000000)
 22:    984.44   0.000001    0.01  0.000000  (-0.000134  0.000000  0.000594)
 23:   1023.55   0.000033    0.17  0.000010  ( 0.003147  0.000000 -0.000329)
 24:   1049.51   0.000429    2.17  0.000128  ( 0.010867 -0.000001  0.003072)
 25:   1099.13   0.001293    6.53  0.000367  (-0.000002  0.019159  0.000004)
 26:   1152.47   0.000000    0.00  0.000000  (-0.000009  0.000365 -0.000002)
 27:   1183.35   0.000001    0.00  0.000000  ( 0.000003  0.000451  0.000000)
 28:   1200.69   0.000108    0.54  0.000028  ( 0.005192  0.000000 -0.001016)
 29:   1235.17   0.001245    6.29  0.000315  (-0.011756  0.000007 -0.013280)
 30:   1267.78   0.008073   40.80  0.001987  (-0.042062 -0.000008  0.014764)
 31:   1349.43   0.000010    0.05  0.000002  ( 0.000003 -0.001501 -0.000003)
 32:   1353.76   0.000169    0.86  0.000039  ( 0.000001 -0.006250  0.000000)
 33:   1480.04   0.000620    3.13  0.000131  ( 0.003963  0.000013  0.010722)
 34:   1483.38   0.001474    7.45  0.000310  (-0.000002  0.017610 -0.000011)
 35:   1522.06   0.000623    3.15  0.000128  ( 0.010819 -0.000003  0.003276)
 36:   1617.91   0.000074    0.37  0.000014  ( 0.000001  0.003771  0.000002)
 37:   1633.86   0.000019    0.10  0.000004  (-0.001165  0.000000 -0.001512)
 38:   3078.80   0.002786   14.08  0.000282  (-0.004559  0.000008 -0.016175)
 39:   3152.00   0.000335    1.69  0.000033  (-0.000001  0.005756  0.000001)
 40:   3153.98   0.000793    4.01  0.000079  (-0.008324  0.000004 -0.003036)
 41:   3155.78   0.000502    2.54  0.000050  ( 0.000001  0.007044  0.000002)
 42:   3165.31   0.001191    6.02  0.000117  ( 0.009935 -0.000003  0.004320)
 43:   3174.06   0.004762   24.06  0.000468  (-0.000003 -0.021637 -0.000005)
 44:   3184.14   0.002280   11.52  0.000223  (-0.014516  0.000001 -0.003569)

--------------------------
THERMOCHEMISTRY AT 298.15K
--------------------------

Temperature         ...   298.15 K
Pressure            ...     1.00 atm
Total Mass          ...   126.59 AMU
Quasi RRHO          ...     True
Cut-Off Frequency   ...     1.00 cm^-1

Throughout the following assumptions are being made:
  (1) The electronic state is orbitally nondegenerate
  (2) There are no thermally accessible electronically excited states
  (3) Hindered rotations indicated by low frequency modes are not
      treated as such but are treated as vibrations and this may
      cause some error
  (4) All equations used are the standard statistical mechanics
      equations for an ideal gas
  (5) All vibrations are strictly harmonic

freq.      69.91  E(vib)   ...       0.50
freq.     114.97  E(vib)   ...       0.44
freq.     267.01  E(vib)   ...       0.29
freq.     340.07  E(vib)   ...       0.23
freq.     410.96  E(vib)   ...       0.19
freq.     474.65  E(vib)   ...       0.15
freq.     560.65  E(vib)   ...       0.11
freq.     625.88  E(vib)   ...       0.09
freq.     637.78  E(vib)   ...       0.09
freq.     709.39  E(vib)   ...       0.07
freq.     780.03  E(vib)   ...       0.05
freq.     827.86  E(vib)   ...       0.04
freq.     846.90  E(vib)   ...       0.04
freq.     917.12  E(vib)   ...       0.03
freq.     921.67  E(vib)   ...       0.03
freq.     956.36  E(vib)   ...       0.03
freq.     984.44  E(vib)   ...       0.02
freq.    1023.55  E(vib)   ...       0.02
freq.    1049.51  E(vib)   ...       0.02
freq.    1099.13  E(vib)   ...       0.02
freq.    1152.47  E(vib)   ...       0.01
freq.    1183.35  E(vib)   ...       0.01
freq.    1200.69  E(vib)   ...       0.01
freq.    1235.17  E(vib)   ...       0.01
freq.    1267.78  E(vib)   ...       0.01
freq.    1349.43  E(vib)   ...       0.01
freq.    1353.76  E(vib)   ...       0.01
freq.    1480.04  E(vib)   ...       0.00
freq.    1483.38  E(vib)   ...       0.00
freq.    1522.06  E(vib)   ...       0.00
freq.    1617.91  E(vib)   ...       0.00
freq.    1633.86  E(vib)   ...       0.00
freq.    3078.80  E(vib)   ...       0.00
freq.    3152.00  E(vib)   ...       0.00
freq.    3153.98  E(vib)   ...       0.00
freq.    3155.78  E(vib)   ...       0.00
freq.    3165.31  E(vib)   ...       0.00
freq.    3174.06  E(vib)   ...       0.00
freq.    3184.14  E(vib)   ...       0.00

------------
INNER ENERGY
------------

The inner energy is: U= E(el) + E(ZPE) + E(vib) + E(rot) + E(trans)
    E(el)   - is the total energy from the electronic structure calculation
              = E(kin-el) + E(nuc-el) + E(el-el) + E(nuc-nuc)
    E(ZPE)  - the the zero temperature vibrational energy from the frequency calculation
    E(vib)  - the the finite temperature correction to E(ZPE) due to population
              of excited vibrational states
    E(rot)  - is the rotational thermal energy
    E(trans)- is the translational thermal energy

Summary of contributions to the inner energy U:
Electronic energy                ...   -731.08541600 Eh
Zero point energy                ...      0.11883339 Eh      74.57 kcal/mol
Thermal vibrational correction   ...      0.00407110 Eh       2.55 kcal/mol
Thermal rotational correction    ...      0.00141627 Eh       0.89 kcal/mol
Thermal translational correction ...      0.00141627 Eh       0.89 kcal/mol
-----------------------------------------------------------------------
Total thermal energy                   -730.95967897 Eh

Summary of corrections to the electronic energy:
(perhaps to be used in another calculation)
Total thermal correction                  0.00690365 Eh       4.33 kcal/mol
Non-thermal (ZPE) correction              0.11883339 Eh      74.57 kcal/mol
-----------------------------------------------------------------------
Total correction                          0.12573703 Eh      78.90 kcal/mol

--------
ENTHALPY
--------

The enthalpy is H = U + kB*T
                kB is Boltzmann's constant
Total thermal energy              ...   -730.95967897 Eh
Thermal Enthalpy correction       ...      0.00094421 Eh       0.59 kcal/mol
-----------------------------------------------------------------------
Total Enthalpy                    ...   -730.95873476 Eh

Note: Only C1 symmetry has been detected, increase convergence thresholds
      if your molecule has a higher symmetry. Symmetry factor of 1.0 is
      used for the rotational entropy correction.

Note: Rotational entropy computed according to Herzberg
Infrared and Raman Spectra, Chapter V,1, Van Nostrand Reinhold, 1945
Point Group:  C1, Symmetry Number:   1
Rotational constants in cm-1:     0.137303     0.032737     0.029447

Vibrational entropy computed according to the QRRHO of S. Grimme
Chem.Eur.J. 2012 18 9955 using a reference frequency of 100.0 cm-1

-------
ENTROPY
-------

The entropy contributions are T*S = T*(S(el)+S(vib)+S(rot)+S(trans))
     S(el)   - electronic entropy
     S(vib)  - vibrational entropy
     S(rot)  - rotational entropy
     S(trans)- translational entropy
The entropies will be listed as multiplied by the temperature to get
units of energy

Electronic entropy                ...      0.00000000 Eh      0.00 kcal/mol
Vibrational entropy               ...      0.00669081 Eh      4.20 kcal/mol
Rotational entropy                ...      0.01372656 Eh      8.61 kcal/mol
Translational entropy             ...      0.01920513 Eh     12.05 kcal/mol
-----------------------------------------------------------------------
Final entropy term                ...      0.03962250 Eh     24.86 kcal/mol

In case the symmetry of your molecule has not been determined correctly
or in case you have a reason to use a different symmetry number we print
out the resulting rotational entropy values for sn=1,12:

 non-linear molecules -----------------------------------
|  sn= 1 | S(rot)=       0.01372656 Eh      8.61 kcal/mol|
|  sn= 2 | S(rot)=       0.01307211 Eh      8.20 kcal/mol|
|  sn= 3 | S(rot)=       0.01268927 Eh      7.96 kcal/mol|
|  sn= 4 | S(rot)=       0.01241765 Eh      7.79 kcal/mol|
|  sn= 5 | S(rot)=       0.01220696 Eh      7.66 kcal/mol|
|  sn= 6 | S(rot)=       0.01203482 Eh      7.55 kcal/mol|
|  sn= 7 | S(rot)=       0.01188927 Eh      7.46 kcal/mol|
|  sn= 8 | S(rot)=       0.01176319 Eh      7.38 kcal/mol|
|  sn= 9 | S(rot)=       0.01165198 Eh      7.31 kcal/mol|
|  sn=10 | S(rot)=       0.01155251 Eh      7.25 kcal/mol|
|  sn=11 | S(rot)=       0.01146251 Eh      7.19 kcal/mol|
|  sn=12 | S(rot)=       0.01138036 Eh      7.14 kcal/mol|
 linear molecules ---------------------------------------
|  Dinfh | S(rot)=       0.00865418 Eh      5.43 kcal/mol|
|  Cinfv | S(rot)=       0.00930864 Eh      5.84 kcal/mol|
 --------------------------------------------------------

-------------------
GIBBS FREE ENERGY
-------------------

                             ****ORCA TERMINATED NORMALLY****
TOTAL RUN TIME: 0 days 0 hours 10 minutes 15 seconds 15 msec
