                         Program Version 6.0.0  -   RELEASE  -
|  1> ! r2SCAN-3c DEF2-TZVP FREQ
|  2> * xyzfile 0 1 vacuum_censo.xyz
|  3>
|  4>                          ****END OF INPUT****

CARTESIAN COORDINATES (ANGSTROEM)
---------------------------------
  C     -2.687309    0.002048   -0.401723
  C     -2.026972   -1.203792   -0.182541
  C     -0.708944   -1.205100    0.258083
  C     -0.038106   -0.001816    0.486053
  C     -0.706598    1.203444    0.261521
  C     -2.024580    1.205981   -0.179138
  C      1.377588   -0.003849    0.952554
  Cl     2.549182    0.000681   -0.472486
  H     -3.716839    0.003548   -0.744442
  H     -2.540429   -2.144173   -0.354269
  H     -0.190915   -2.145685    0.422473
  H     -0.186682    2.142522    0.428541
  H     -2.536184    2.147849   -0.348222
  H      1.619626   -0.898992    1.527143
  H      1.620240    0.887220    1.533194

 Total Charge           Charge          ....    0
 Multiplicity           Mult            ....    1
 Number of Electrons    NEL             ....   66
 Basis Dimension        Dim             ....  296

ORBITAL ENERGIES
----------------

  NO   OCC          E(Eh)            E(eV)
   0   2.0000    -101.171411     -2753.0141
   1   2.0000     -10.099862      -274.8312
   2   2.0000     -10.057977      -273.6915
   3   2.0000     -10.047525      -273.4070
   4   2.0000     -10.047502      -273.4064
   5   2.0000     -10.046486      -273.3788
   6   2.0000     -10.046196      -273.3709
   7   2.0000     -10.045883      -273.3624
   8   2.0000      -9.347297      -254.3529
   9   2.0000      -7.092202      -192.9886
  10   2.0000      -7.082119      -192.7142
  11   2.0000      -7.081992      -192.7108
  12   2.0000      -0.842061       -22.9136
  13   2.0000      -0.802392       -21.8342
  14   2.0000      -0.732191       -19.9239
  15   2.0000      -0.724664       -19.7191
  16   2.0000      -0.644914       -17.5490
  17   2.0000      -0.586242       -15.9524
  18   2.0000      -0.561925       -15.2907
  19   2.0000      -0.492306       -13.3963
  20   2.0000      -0.450859       -12.2685
  21   2.0000      -0.439329       -11.9547
  22   2.0000      -0.404620       -11.0103
  23   2.0000      -0.401089       -10.9142
  24   2.0000      -0.393683       -10.7126
  25   2.0000      -0.388958       -10.5841
  26   2.0000      -0.346417        -9.4265
  27   2.0000      -0.330796        -9.0014
  28   2.0000      -0.321311        -8.7433
  29   2.0000      -0.270241        -7.3536
  30   2.0000      -0.267243        -7.2721
  31   2.0000      -0.246705        -6.7132
  32   2.0000      -0.240958        -6.5568
  33   0.0000      -0.061046        -1.6611
  34   0.0000      -0.044285        -1.2051
  35   0.0000       0.009800         0.2667
  36   0.0000       0.047853         1.3022
  37   0.0000       0.071689         1.9508

MULLIKEN ATOMIC CHARGES
-----------------------
   0 C :   -0.122442
   1 C :   -0.089419
   2 C :   -0.190377
   3 C :    0.193543
   4 C :   -0.190474
   5 C :   -0.089412
   6 C :   -0.131271
   7 Cl:   -0.193095
   8 H :    0.113699
   9 H :    0.113194
  10 H :    0.109219
  11 H :    0.109275
  12 H :    0.113199
  13 H :    0.127172
  14 H :    0.127187
Sum of atomic charges:   -0.0000000

LOEWDIN ATOMIC CHARGES
----------------------
   0 C :   -0.134263
   1 C :   -0.134327
   2 C :   -0.104283
   3 C :   -0.192832
   4 C :   -0.104259
   5 C :   -0.134317
   6 C :   -0.399046
   7 Cl:    0.212106
   8 H :    0.144177
   9 H :    0.144724
  10 H :    0.148570
  11 H :    0.148590
  12 H :    0.144726
  13 H :    0.130210
  14 H :    0.130224

  Mayer bond orders larger than 0.100000
B(  0-C ,  1-C ) :   1.3872 B(  0-C ,  5-C ) :   1.3870 B(  0-C ,  8-H ) :   0.9662
B(  1-C ,  2-C ) :   1.4169 B(  1-C ,  9-H ) :   0.9688 B(  2-C ,  3-C ) :   1.3234
B(  2-C , 10-H ) :   0.9735 B(  3-C ,  4-C ) :   1.3233 B(  3-C ,  6-C ) :   0.9412
B(  4-C ,  5-C ) :   1.4171 B(  4-C , 11-H ) :   0.9735 B(  5-C , 12-H ) :   0.9688
B(  6-C ,  7-Cl) :   1.0374 B(  6-C , 13-H ) :   0.9659 B(  6-C , 14-H ) :   0.9658

Dispersion correction           -0.005140773
FINAL SINGLE POINT ENERGY      -731.085708135796

DIPOLE MOMENT
-------------

Method             : SCF
Type of density    : Electron Density
Multiplicity       :   1
Irrep              :   0
Energy             :  -731.0865396109035146 Eh
Relativity type    :
Basis              : AO
                                X                 Y                 Z
Electronic contribution:      8.378786725       0.005864480      -2.430187783
Nuclear contribution   :     -9.091014099      -0.007295314       2.942768814
                        -----------------------------------------
Total Dipole Moment    :     -0.712227374      -0.001430834       0.512581031
                        -----------------------------------------
Magnitude (a.u.)       :      0.877501677
Magnitude (Debye)      :      2.230432007

VIBRATIONAL FREQUENCIES
-----------------------

Scaling factor for frequencies =  1.000000000  (already applied!)

     0:       0.00 cm**-1
     1:       0.00 cm**-1
     2:       0.00 cm**-1
     3:       0.00 cm**-1
     4:       0.00 cm**-1
     5:       0.00 cm**-1
     6:      56.00 cm**-1
     7:     111.18 cm**-1
     8:     268.00 cm**-1
     9:     337.80 cm**-1
    10:     408.66 cm**-1
    11:     477.57 cm**-1
    12:     565.32 cm**-1
    13:     638.14 cm**-1
    14:     647.17 cm**-1
    15:     708.67 cm**-1
    16:     781.57 cm**-1
    17:     827.52 cm**-1
    18:     846.79 cm**-1
    19:     918.48 cm**-1
    20:     921.85 cm**-1
    21:     956.35 cm**-1
    22:     984.31 cm**-1
    23:    1025.80 cm**-1
    24:    1051.70 cm**-1
    25:    1102.02 cm**-1
    26:    1161.16 cm**-1
    27:    1184.37 cm**-1
    28:    1202.43 cm**-1
    29:    1235.00 cm**-1
    30:    1279.15 cm**-1
    31:    1353.76 cm**-1
    32:    1357.21 cm**-1
    33:    1481.91 cm**-1
    34:    1485.44 cm**-1
    35:    1524.58 cm**-1
    36:    1623.01 cm**-1
    37:    1638.88 cm**-1
    38:    3069.27 cm**-1
    39:    3137.56 cm**-1
    40:    3155.03 cm**-1
    41:    3156.32 cm**-1
    42:    3166.67 cm**-1
    43:    3175.83 cm**-1
    44:    3186.08 cm**-1

IR SPECTRUM
-----------

 Mode   freq       eps      Int      T**2         TX        TY        TZ
       cm**-1   L/(mol*cm) km/mol    a.u.
----------------------------------------------------------------------------
  6:     56.00   0.000196    0.99  0.001093  ( 0.000006  0.033058  0.000105)
  7:    111.18   0.000335    1.69  0.000941  ( 0.030508 -0.000085 -0.003203)
  8:    268.00   0.000771    3.90  0.000898  ( 0.029706  0.000020  0.003955)
  9:    337.80   0.000155    0.78  0.000143  (-0.000099  0.011957  0.000096)
 10:    408.66   0.000001    0.00  0.000001  (-0.000047 -0.000733  0.000001)
 11:    477.57   0.000360    1.82  0.000235  (-0.011876 -0.000028 -0.009695)
 12:    565.32   0.004505   22.77  0.002487  ( 0.049129 -0.000020  0.008552)
 13:    638.14   0.000012    0.06  0.000006  (-0.000298  0.002380  0.000329)
 14:    647.17   0.018261   92.28  0.008805  ( 0.065892  0.000145 -0.066810)
 15:    708.67   0.008331   42.10  0.003668  (-0.016044 -0.000056  0.058403)
 16:    781.57   0.001590    8.04  0.000635  ( 0.000421 -0.000005  0.025196)
 17:    827.52   0.001883    9.52  0.000710  ( 0.026093 -0.000007 -0.005408)
 18:    846.79   0.000002    0.01  0.000001  (-0.000003 -0.000861  0.000000)
 19:    918.48   0.000000    0.00  0.000000  (-0.000107  0.000159  0.000134)
 20:    921.85   0.000219    1.11  0.000074  (-0.005216  0.000004  0.006849)
 21:    956.35   0.000011    0.06  0.000004  ( 0.000001 -0.001887 -0.000000)
 22:    984.31   0.000002    0.01  0.000001  ( 0.000031 -0.000005 -0.000753)
 23:   1025.80   0.000036    0.18  0.000011  ( 0.003285  0.000002 -0.000151)
 24:   1051.70   0.000439    2.22  0.000130  (-0.010981  0.000009 -0.003120)
 25:   1102.02   0.001305    6.60  0.000370  (-0.000010  0.019225  0.000026)
 26:   1161.16   0.000007    0.03  0.000002  ( 0.000058 -0.001352  0.000012)
 27:   1184.37   0.000001    0.00  0.000000  ( 0.000020  0.000365  0.000002)
 28:   1202.43   0.000092    0.46  0.000024  (-0.004785 -0.000001  0.000939)
 29:   1235.00   0.001396    7.05  0.000353  ( 0.015042 -0.000041  0.011244)
 30:   1279.15   0.007659   38.71  0.001869  (-0.039912 -0.000049  0.016601)
 31:   1353.76   0.000055    0.28  0.000013  (-0.000014 -0.003571  0.000019)
 32:   1357.21   0.000110    0.56  0.000025  (-0.000016  0.005034  0.000014)
 33:   1481.91   0.000669    3.38  0.000141  (-0.005193 -0.000074 -0.010676)
 34:   1485.44   0.001445    7.30  0.000304  ( 0.000019 -0.017424  0.000065)
 35:   1524.58   0.000669    3.38  0.000137  (-0.011248  0.000018 -0.003238)
 36:   1623.01   0.000074    0.37  0.000014  ( 0.000004  0.003768  0.000016)
 37:   1638.88   0.000009    0.04  0.000002  (-0.000346  0.000002 -0.001243)
 38:   3069.27   0.003012   15.22  0.000306  ( 0.004158 -0.000055  0.016998)
 39:   3137.56   0.000595    3.01  0.000059  ( 0.000006 -0.007693 -0.000011)
 40:   3155.03   0.000893    4.51  0.000088  ( 0.008815 -0.000051  0.003254)
 41:   3156.32   0.000467    2.36  0.000046  (-0.000038 -0.006797 -0.000023)
 42:   3166.67   0.001089    5.50  0.000107  ( 0.009509 -0.000023  0.004105)
 43:   3175.83   0.004777   24.14  0.000469  (-0.000026 -0.021666 -0.000033)
 44:   3186.08   0.002358   11.91  0.000231  ( 0.014752 -0.000015  0.003645)

--------------------------
THERMOCHEMISTRY AT 298.15K
--------------------------

Temperature         ...   298.15 K
Pressure            ...     1.00 atm
Total Mass          ...   126.59 AMU
Quasi RRHO          ...     True
Cut-Off Frequency   ...     1.00 cm^-1

Throughout the following assumptions are being made:
  (1) The electronic state is orbitally nondegenerate
  (2) There are no thermally accessible electronically excited states
  (3) Hindered rotations indicated by low frequency modes are not
      treated as such but are treated as vibrations and this may
      cause some error
  (4) All equations used are the standard statistical mechanics
      equations for an ideal gas
  (5) All vibrations are strictly harmonic

freq.      56.00  E(vib)   ...       0.52
freq.     111.18  E(vib)   ...       0.45
freq.     268.00  E(vib)   ...       0.29
freq.     337.80  E(vib)   ...       0.24
freq.     408.66  E(vib)   ...       0.19
freq.     477.57  E(vib)   ...       0.15
freq.     565.32  E(vib)   ...       0.11
freq.     638.14  E(vib)   ...       0.09
freq.     647.17  E(vib)   ...       0.09
freq.     708.67  E(vib)   ...       0.07
freq.     781.57  E(vib)   ...       0.05
freq.     827.52  E(vib)   ...       0.04
freq.     846.79  E(vib)   ...       0.04
freq.     918.48  E(vib)   ...       0.03
freq.     921.85  E(vib)   ...       0.03
freq.     956.35  E(vib)   ...       0.03
freq.     984.31  E(vib)   ...       0.02
freq.    1025.80  E(vib)   ...       0.02
freq.    1051.70  E(vib)   ...       0.02
freq.    1102.02  E(vib)   ...       0.02
freq.    1161.16  E(vib)   ...       0.01
freq.    1184.37  E(vib)   ...       0.01
freq.    1202.43  E(vib)   ...       0.01
freq.    1235.00  E(vib)   ...       0.01
freq.    1279.15  E(vib)   ...       0.01
freq.    1353.76  E(vib)   ...       0.01
freq.    1357.21  E(vib)   ...       0.01
freq.    1481.91  E(vib)   ...       0.00
freq.    1485.44  E(vib)   ...       0.00
freq.    1524.58  E(vib)   ...       0.00
freq.    1623.01  E(vib)   ...       0.00
freq.    1638.88  E(vib)   ...       0.00
freq.    3069.27  E(vib)   ...       0.00
freq.    3137.56  E(vib)   ...       0.00
freq.    3155.03  E(vib)   ...       0.00
freq.    3156.32  E(vib)   ...       0.00
freq.    3166.67  E(vib)   ...       0.00
freq.    3175.83  E(vib)   ...       0.00
freq.    3186.08  E(vib)   ...       0.00

------------
INNER ENERGY
------------

The inner energy is: U= E(el) + E(ZPE) + E(vib) + E(rot) + E(trans)
    E(el)   - is the total energy from the electronic structure calculation
              = E(kin-el) + E(nuc-el) + E(el-el) + E(nuc-nuc)
    E(ZPE)  - the the zero temperature vibrational energy from the frequency calculation
    E(vib)  - the the finite temperature correction to E(ZPE) due to population
              of excited vibrational states
    E(rot)  - is the rotational thermal energy
    E(trans)- is the translational thermal energy

Summary of contributions to the inner energy U:
Electronic energy                ...   -731.08570814 Eh
Zero point energy                ...      0.11893978 Eh      74.64 kcal/mol
Thermal vibrational correction   ...      0.00409111 Eh       2.57 kcal/mol
Thermal rotational correction    ...      0.00141627 Eh       0.89 kcal/mol
Thermal translational correction ...      0.00141627 Eh       0.89 kcal/mol
-----------------------------------------------------------------------
Total thermal energy                   -730.95984470 Eh

Summary of corrections to the electronic energy:
(perhaps to be used in another calculation)
Total thermal correction                  0.00692365 Eh       4.34 kcal/mol
Non-thermal (ZPE) correction              0.11893978 Eh      74.64 kcal/mol
-----------------------------------------------------------------------
Total correction                          0.12586343 Eh      78.98 kcal/mol

--------
ENTHALPY
--------

The enthalpy is H = U + kB*T
                kB is Boltzmann's constant
Total thermal energy              ...   -730.95984470 Eh
Thermal Enthalpy correction       ...      0.00094421 Eh       0.59 kcal/mol
-----------------------------------------------------------------------
Total Enthalpy                    ...   -730.95890050 Eh

Note: Only C1 symmetry has been detected, increase convergence thresholds
      if your molecule has a higher symmetry. Symmetry factor of 1.0 is
      used for the rotational entropy correction.

Note: Rotational entropy computed according to Herzberg
Infrared and Raman Spectra, Chapter V,1, Van Nostrand Reinhold, 1945
Point Group:  C1, Symmetry Number:   1
Rotational constants in cm-1:     0.138448     0.032755     0.029438

Vibrational entropy computed according to the QRRHO of S. Grimme
Chem.Eur.J. 2012 18 9955 using a reference frequency of 100.0 cm-1

-------
ENTROPY
-------

The entropy contributions are T*S = T*(S(el)+S(vib)+S(rot)+S(trans))
     S(el)   - electronic entropy
     S(vib)  - vibrational entropy
     S(rot)  - rotational entropy
     S(trans)- translational entropy
The entropies will be listed as multiplied by the temperature to get
units of energy

Electronic entropy                ...      0.00000000 Eh      0.00 kcal/mol
Vibrational entropy               ...      0.00675465 Eh      4.24 kcal/mol
Rotational entropy                ...      0.01372254 Eh      8.61 kcal/mol
Translational entropy             ...      0.01920513 Eh     12.05 kcal/mol
-----------------------------------------------------------------------
Final entropy term                ...      0.03968232 Eh     24.90 kcal/mol

In case the symmetry of your molecule has not been determined correctly
or in case you have a reason to use a different symmetry number we print
out the resulting rotational entropy values for sn=1,12:

 non-linear molecules -----------------------------------
|  sn= 1 | S(rot)=       0.01372254 Eh      8.61 kcal/mol|
|  sn= 2 | S(rot)=       0.01306808 Eh      8.20 kcal/mol|
|  sn= 3 | S(rot)=       0.01268525 Eh      7.96 kcal/mol|
|  sn= 4 | S(rot)=       0.01241362 Eh      7.79 kcal/mol|
|  sn= 5 | S(rot)=       0.01220294 Eh      7.66 kcal/mol|
|  sn= 6 | S(rot)=       0.01203079 Eh      7.55 kcal/mol|
|  sn= 7 | S(rot)=       0.01188525 Eh      7.46 kcal/mol|
|  sn= 8 | S(rot)=       0.01175917 Eh      7.38 kcal/mol|
|  sn= 9 | S(rot)=       0.01164796 Eh      7.31 kcal/mol|
|  sn=10 | S(rot)=       0.01154848 Eh      7.25 kcal/mol|
|  sn=11 | S(rot)=       0.01145849 Eh      7.19 kcal/mol|
|  sn=12 | S(rot)=       0.01137634 Eh      7.14 kcal/mol|
 linear molecules ---------------------------------------
|  Dinfh | S(rot)=       0.00865449 Eh      5.43 kcal/mol|
|  Cinfv | S(rot)=       0.00930894 Eh      5.84 kcal/mol|
 --------------------------------------------------------

-------------------
GIBBS FREE ENERGY
-------------------

                             ****ORCA TERMINATED NORMALLY****
TOTAL RUN TIME: 0 days 0 hours 10 minutes 20 seconds 895 msec
