                         Program Version 6.0.0  -   RELEASE  -
|  1> ! r2SCAN-3c DEF2-TZVP FREQ
|  2> * xyzfile 0 1 censo.xyz
|  3>
|  4>                          ****END OF INPUT****

CARTESIAN COORDINATES (ANGSTROEM)
---------------------------------
  C      0.740519    0.000221   -0.003498
  C      1.451151    0.830763   -0.870305
  C      2.847395    0.837833   -0.878764
  C      3.543473    0.001200    0.001057
  C      2.845175   -0.836391    0.878204
  C      1.449004   -0.830393    0.865114
  Cl     0.559662   -1.864294    1.935421
  Cl     3.703232   -1.868821    1.964775
  Cl     5.270280    0.002410    0.004458
  Cl     3.708316    1.870865   -1.962493
  Cl     0.564413    1.863946   -1.943428
  C     -0.740515    0.000911   -0.003507
  C     -1.449181    0.831233    0.865224
  C     -2.845353    0.836421    0.878784
  C     -3.543467   -0.001664    0.001960
  C     -2.847205   -0.837831   -0.878159
  C     -1.450966   -0.829947   -0.870171
  Cl    -0.564007   -1.862639   -1.943592
  Cl    -3.707887   -1.871388   -1.961576
  Cl    -5.270271   -0.004117    0.006150
  Cl    -3.703648    1.868365    1.965630
  Cl    -0.560063    1.865654    1.935208

 Total Charge           Charge          ....    0
 Multiplicity           Mult            ....    1
 Number of Electrons    NEL             ....  242
 Basis Dimension        Dim             ....  742

ORBITAL ENERGIES
----------------

  NO   OCC          E(Eh)            E(eV)
   0   2.0000    -101.222783     -2754.4120
   1   2.0000    -101.222783     -2754.4119
   2   2.0000    -101.222598     -2754.4069
   3   2.0000    -101.222596     -2754.4069
   4   2.0000    -101.222591     -2754.4067
   5   2.0000    -101.222590     -2754.4067
   6   2.0000    -101.221772     -2754.3844
   7   2.0000    -101.221771     -2754.3844
   8   2.0000    -101.221771     -2754.3844
   9   2.0000    -101.221770     -2754.3844
  10   2.0000     -10.148257      -276.1481
  11   2.0000     -10.148256      -276.1481
  12   2.0000     -10.145011      -276.0598
  13   2.0000     -10.145011      -276.0598
  14   2.0000     -10.144972      -276.0587
  15   2.0000     -10.144971      -276.0587
  16   2.0000     -10.144149      -276.0363
  17   2.0000     -10.144149      -276.0363
  18   2.0000     -10.144145      -276.0362
  19   2.0000     -10.144145      -276.0362
  20   2.0000     -10.107059      -275.0271
  21   2.0000     -10.106855      -275.0215
  22   2.0000      -9.398511      -255.7465
  23   2.0000      -9.398510      -255.7465
  24   2.0000      -9.398309      -255.7410
  25   2.0000      -9.398308      -255.7410
  26   2.0000      -9.398302      -255.7408
  27   2.0000      -9.398301      -255.7408
  28   2.0000      -9.397477      -255.7184
  29   2.0000      -9.397477      -255.7183
  30   2.0000      -9.397476      -255.7183
  31   2.0000      -9.397476      -255.7183
  32   2.0000      -7.143902      -194.3955
  33   2.0000      -7.143902      -194.3955
  34   2.0000      -7.143628      -194.3880
  35   2.0000      -7.143627      -194.3880
  36   2.0000      -7.143622      -194.3878
  37   2.0000      -7.143621      -194.3878
  38   2.0000      -7.142875      -194.3675
  39   2.0000      -7.142874      -194.3675
  40   2.0000      -7.142874      -194.3675
  41   2.0000      -7.142874      -194.3675
  42   2.0000      -7.133573      -194.1144
  43   2.0000      -7.133573      -194.1144
  44   2.0000      -7.133325      -194.1076
  45   2.0000      -7.133324      -194.1076
  46   2.0000      -7.133318      -194.1075
  47   2.0000      -7.133317      -194.1074
  48   2.0000      -7.132503      -194.0853
  49   2.0000      -7.132503      -194.0853
  50   2.0000      -7.132502      -194.0853
  51   2.0000      -7.132502      -194.0852
  52   2.0000      -7.132423      -194.0831
  53   2.0000      -7.132423      -194.0831
  54   2.0000      -7.132370      -194.0817
  55   2.0000      -7.132367      -194.0816
  56   2.0000      -7.132363      -194.0815
  57   2.0000      -7.132361      -194.0814
  58   2.0000      -7.131416      -194.0557
  59   2.0000      -7.131416      -194.0557
  60   2.0000      -7.131415      -194.0557
  61   2.0000      -7.131415      -194.0557
  62   2.0000      -0.941077       -25.6080
  63   2.0000      -0.930071       -25.3085
  64   2.0000      -0.889414       -24.2022
  65   2.0000      -0.889006       -24.1911
  66   2.0000      -0.887781       -24.1578
  67   2.0000      -0.868073       -23.6215
  68   2.0000      -0.843408       -22.9503
  69   2.0000      -0.842893       -22.9363
  70   2.0000      -0.833694       -22.6860
  71   2.0000      -0.828639       -22.5484
  72   2.0000      -0.806053       -21.9338
  73   2.0000      -0.800842       -21.7920
  74   2.0000      -0.756994       -20.5988
  75   2.0000      -0.711201       -19.3528
  76   2.0000      -0.711175       -19.3521
  77   2.0000      -0.708665       -19.2838
  78   2.0000      -0.634731       -17.2719
  79   2.0000      -0.601707       -16.3733
  80   2.0000      -0.600842       -16.3497
  81   2.0000      -0.588806       -16.0222
  82   2.0000      -0.530582       -14.4379
  83   2.0000      -0.529077       -14.3969
  84   2.0000      -0.520465       -14.1626
  85   2.0000      -0.499151       -13.5826
  86   2.0000      -0.474968       -12.9245
  87   2.0000      -0.462848       -12.5947
  88   2.0000      -0.448870       -12.2144
  89   2.0000      -0.448852       -12.2139
  90   2.0000      -0.448791       -12.2122
  91   2.0000      -0.444879       -12.1058
  92   2.0000      -0.444795       -12.1035
  93   2.0000      -0.426561       -11.6073
  94   2.0000      -0.410712       -11.1760
  95   2.0000      -0.410435       -11.1685
  96   2.0000      -0.402165       -10.9435
  97   2.0000      -0.393345       -10.7035
  98   2.0000      -0.383459       -10.4344
  99   2.0000      -0.371716       -10.1149
 100   2.0000      -0.371504       -10.1091
 101   2.0000      -0.344134        -9.3644
 102   2.0000      -0.334076        -9.0907
 103   2.0000      -0.332843        -9.0571
 104   2.0000      -0.331103        -9.0098
 105   2.0000      -0.331059        -9.0086
 106   2.0000      -0.329405        -8.9636
 107   2.0000      -0.329367        -8.9625
 108   2.0000      -0.328158        -8.9296
 109   2.0000      -0.317652        -8.6437
 110   2.0000      -0.317347        -8.6354
 111   2.0000      -0.307145        -8.3578
 112   2.0000      -0.307079        -8.3560
 113   2.0000      -0.303776        -8.2662
 114   2.0000      -0.303338        -8.2543
 115   2.0000      -0.287274        -7.8171
 116   2.0000      -0.287186        -7.8147
 117   2.0000      -0.253886        -6.9086
 118   2.0000      -0.252481        -6.8704
 119   2.0000      -0.247307        -6.7296
 120   2.0000      -0.245399        -6.6776
 121   0.0000      -0.089886        -2.4459
 122   0.0000      -0.086991        -2.3672
 123   0.0000      -0.086827        -2.3627
 124   0.0000      -0.085596        -2.3292
 125   0.0000      -0.081205        -2.2097

MULLIKEN ATOMIC CHARGES
-----------------------
   0 C :    0.038064
   1 C :    0.090649
   2 C :   -0.049006
   3 C :    0.056389
   4 C :   -0.048938
   5 C :    0.089694
   6 Cl:   -0.040718
   7 Cl:   -0.032175
   8 Cl:   -0.031137
   9 Cl:   -0.032170
  10 Cl:   -0.040639
  11 C :    0.038041
  12 C :    0.089798
  13 C :   -0.048911
  14 C :    0.056402
  15 C :   -0.049070
  16 C :    0.090577
  17 Cl:   -0.040661
  18 Cl:   -0.032168
  19 Cl:   -0.031139
  20 Cl:   -0.032172
  21 Cl:   -0.040709
Sum of atomic charges:    0.0000000

LOEWDIN ATOMIC CHARGES
----------------------
   0 C :   -0.153869
   1 C :   -0.401581
   2 C :   -0.449690
   3 C :   -0.445316
   4 C :   -0.449717
   5 C :   -0.401494
   6 Cl:    0.469339
   7 Cl:    0.453296
   8 Cl:    0.456484
   9 Cl:    0.453292
  10 Cl:    0.469255
  11 C :   -0.153869
  12 C :   -0.401511
  13 C :   -0.449714
  14 C :   -0.445315
  15 C :   -0.449694
  16 C :   -0.401563
  17 Cl:    0.469263
  18 Cl:    0.453294
  19 Cl:    0.456484
  20 Cl:    0.453295
  21 Cl:    0.469331

  Mayer bond orders larger than 0.100000
B(  0-C ,  1-C ) :   1.2677 B(  0-C ,  5-C ) :   1.2683 B(  0-C , 11-C ) :   0.6553
B(  1-C ,  2-C ) :   1.2996 B(  1-C , 10-Cl) :   1.2220 B(  2-C ,  3-C ) :   1.2856
B(  2-C ,  9-Cl) :   1.2299 B(  3-C ,  4-C ) :   1.2855 B(  3-C ,  8-Cl) :   1.2213
B(  4-C ,  5-C ) :   1.2998 B(  4-C ,  7-Cl) :   1.2300 B(  5-C ,  6-Cl) :   1.2216
B( 11-C , 12-C ) :   1.2681 B( 11-C , 16-C ) :   1.2677 B( 12-C , 13-C ) :   1.2997
B( 12-C , 21-Cl) :   1.2217 B( 13-C , 14-C ) :   1.2855 B( 13-C , 20-Cl) :   1.2300
B( 14-C , 15-C ) :   1.2856 B( 14-C , 19-Cl) :   1.2213 B( 15-C , 16-C ) :   1.2996
B( 15-C , 18-Cl) :   1.2299 B( 16-C , 17-Cl) :   1.2219

Dispersion correction           -0.019766078
FINAL SINGLE POINT ENERGY     -5059.043823737395

DIPOLE MOMENT
-------------

Method             : SCF
Type of density    : Electron Density
Multiplicity       :   1
Irrep              :   0
Energy             : -5059.0406412205866218 Eh
Relativity type    :
Basis              : AO
                                X                 Y                 Z
Electronic contribution:      0.000002159      -0.000755826       0.004678099
Nuclear contribution   :     -0.000001639       0.000768887      -0.004760602
                        -----------------------------------------
Total Dipole Moment    :      0.000000520       0.000013061      -0.000082503
                        -----------------------------------------
Magnitude (a.u.)       :      0.000083532
Magnitude (Debye)      :      0.000212322

VIBRATIONAL FREQUENCIES
-----------------------

Scaling factor for frequencies =  1.000000000  (already applied!)

     0:       0.00 cm**-1
     1:       0.00 cm**-1
     2:       0.00 cm**-1
     3:       0.00 cm**-1
     4:       0.00 cm**-1
     5:       0.00 cm**-1
     6:      28.36 cm**-1
     7:      35.51 cm**-1
     8:      35.52 cm**-1
     9:      73.49 cm**-1
    10:      77.22 cm**-1
    11:      81.32 cm**-1
    12:      81.83 cm**-1
    13:     102.98 cm**-1
    14:     105.00 cm**-1
    15:     132.83 cm**-1
    16:     209.49 cm**-1
    17:     210.12 cm**-1
    18:     218.12 cm**-1
    19:     218.73 cm**-1
    20:     219.99 cm**-1
    21:     220.05 cm**-1
    22:     225.40 cm**-1
    23:     232.15 cm**-1
    24:     232.16 cm**-1
    25:     250.38 cm**-1
    26:     320.47 cm**-1
    27:     320.50 cm**-1
    28:     341.65 cm**-1
    29:     344.12 cm**-1
    30:     350.80 cm**-1
    31:     351.04 cm**-1
    32:     377.34 cm**-1
    33:     381.00 cm**-1
    34:     384.69 cm**-1
    35:     388.57 cm**-1
    36:     560.05 cm**-1
    37:     578.82 cm**-1
    38:     579.06 cm**-1
    39:     609.31 cm**-1
    40:     609.40 cm**-1
    41:     658.11 cm**-1
    42:     658.77 cm**-1
    43:     692.80 cm**-1
    44:     694.55 cm**-1
    45:     699.87 cm**-1
    46:     765.80 cm**-1
    47:     766.05 cm**-1
    48:     817.73 cm**-1
    49:     866.21 cm**-1
    50:     867.06 cm**-1
    51:     937.47 cm**-1
    52:    1077.09 cm**-1
    53:    1131.00 cm**-1
    54:    1181.00 cm**-1
    55:    1253.54 cm**-1
    56:    1296.43 cm**-1
    57:    1296.46 cm**-1
    58:    1346.73 cm**-1
    59:    1347.29 cm**-1
    60:    1349.75 cm**-1
    61:    1426.97 cm**-1
    62:    1533.48 cm**-1
    63:    1534.90 cm**-1
    64:    1559.50 cm**-1
    65:    1579.26 cm**-1

IR SPECTRUM
-----------

 Mode   freq       eps      Int      T**2         TX        TY        TZ
       cm**-1   L/(mol*cm) km/mol    a.u.
----------------------------------------------------------------------------
  6:     28.36   0.000000    0.00  0.000000  ( 0.000000 -0.000001 -0.000003)
  7:     35.51   0.000000    0.00  0.000001  ( 0.000010 -0.001108 -0.000025)
  8:     35.52   0.000000    0.00  0.000001  ( 0.000002 -0.000025  0.001100)
  9:     73.49   0.000000    0.00  0.000000  ( 0.000135  0.000017  0.000003)
 10:     77.22   0.000000    0.00  0.000000  (-0.000000  0.000004  0.000027)
 11:     81.32   0.000000    0.00  0.000000  ( 0.000027  0.000205  0.000000)
 12:     81.83   0.000000    0.00  0.000000  ( 0.000004  0.000000 -0.000676)
 13:    102.98   0.000000    0.00  0.000001  (-0.000060 -0.000975  0.000000)
 14:    105.00   0.000001    0.00  0.000002  (-0.000009 -0.000000  0.001290)
 15:    132.83   0.000000    0.00  0.000000  (-0.000000 -0.000004  0.000028)
 16:    209.49   0.000001    0.01  0.000002  (-0.000012  0.000000  0.001381)
 17:    210.12   0.000001    0.00  0.000001  ( 0.000081  0.001197 -0.000000)
 18:    218.12   0.000051    0.26  0.000073  (-0.008519  0.000135 -0.000019)
 19:    218.73   0.000000    0.00  0.000000  (-0.000005 -0.000016  0.000158)
 20:    219.99   0.000039    0.20  0.000056  ( 0.000020  0.000035 -0.007471)
 21:    220.05   0.000038    0.19  0.000054  (-0.000148 -0.007314 -0.000036)
 22:    225.40   0.000002    0.01  0.000003  (-0.001734 -0.000027  0.000006)
 23:    232.15   0.000002    0.01  0.000003  (-0.000001 -0.000017  0.001618)
 24:    232.16   0.000002    0.01  0.000002  ( 0.000013  0.001498  0.000018)
 25:    250.38   0.000000    0.00  0.000000  (-0.000000 -0.000002  0.000009)
 26:    320.47   0.000015    0.08  0.000015  (-0.000001  0.000001  0.003833)
 27:    320.50   0.000013    0.06  0.000012  ( 0.000005  0.003492 -0.000001)
 28:    341.65   0.000014    0.07  0.000013  ( 0.003577 -0.000003  0.000000)
 29:    344.12   0.000000    0.00  0.000000  (-0.000000 -0.000005 -0.000037)
 30:    350.80   0.000000    0.00  0.000000  ( 0.000000 -0.000002  0.000012)
 31:    351.04   0.000000    0.00  0.000000  ( 0.000206  0.000034  0.000006)
 32:    377.34   0.000020    0.10  0.000017  ( 0.004067  0.000021 -0.000003)
 33:    381.00   0.000000    0.00  0.000000  (-0.000001  0.000023 -0.000065)
 34:    384.69   0.000069    0.35  0.000056  (-0.000151  0.007479  0.000001)
 35:    388.57   0.000068    0.34  0.000054  ( 0.000024 -0.000001  0.007382)
 36:    560.05   0.015376   77.71  0.008568  ( 0.092562  0.000073 -0.000019)
 37:    578.82   0.000384    1.94  0.000207  (-0.000042 -0.000000 -0.014386)
 38:    579.06   0.000315    1.59  0.000170  ( 0.000268 -0.013019 -0.000000)
 39:    609.31   0.000000    0.00  0.000000  ( 0.000002 -0.000005 -0.000024)
 40:    609.40   0.000000    0.00  0.000000  (-0.000423  0.000000 -0.000001)
 41:    658.11   0.006160   31.13  0.002921  (-0.000053 -0.054045  0.000022)
 42:    658.77   0.006603   33.37  0.003128  ( 0.000004 -0.000021 -0.055926)
 43:    692.80   0.006958   35.16  0.003134  (-0.000000 -0.000004 -0.055984)
 44:    694.55   0.006262   31.65  0.002814  (-0.000019 -0.053044  0.000004)
 45:    699.87   0.000000    0.00  0.000000  (-0.000000  0.000028 -0.000093)
 46:    765.80   0.002344   11.85  0.000955  ( 0.000238  0.030908  0.000039)
 47:    766.05   0.002105   10.64  0.000858  ( 0.000036  0.000041 -0.029287)
 48:    817.73   0.012579   63.57  0.004800  ( 0.069285  0.000106 -0.000020)
 49:    866.21   0.000164    0.83  0.000059  ( 0.000059  0.007689 -0.000001)
 50:    867.06   0.000228    1.15  0.000082  ( 0.000008 -0.000001 -0.009062)
 51:    937.47   0.000000    0.00  0.000000  ( 0.000000 -0.000016  0.000095)
 52:   1077.09   0.003259   16.47  0.000944  ( 0.030729  0.000010 -0.000004)
 53:   1131.00   0.000000    0.00  0.000000  (-0.000000  0.000016 -0.000102)
 54:   1181.00   0.005906   29.85  0.001561  ( 0.039504  0.000041 -0.000008)
 55:   1253.54   0.000000    0.00  0.000000  ( 0.000000 -0.000025  0.000154)
 56:   1296.43   0.000014    0.07  0.000003  ( 0.000010  0.000043  0.001823)
 57:   1296.46   0.000068    0.35  0.000016  (-0.000090  0.004058 -0.000019)
 58:   1346.73   0.047390  239.49  0.010981  (-0.104787 -0.000745  0.000612)
 59:   1347.29   0.035101  177.38  0.008130  (-0.000694 -0.000011 -0.090164)
 60:   1349.75   0.032245  162.95  0.007455  ( 0.000787 -0.086339  0.000006)
 61:   1426.97   0.000000    0.00  0.000000  (-0.000000  0.000031 -0.000190)
 62:   1533.48   0.000000    0.00  0.000000  ( 0.000017  0.000000 -0.000161)
 63:   1534.90   0.000009    0.04  0.000002  (-0.000124  0.001324  0.000000)
 64:   1559.50   0.003130   15.82  0.000626  ( 0.025025  0.000080 -0.000012)
 65:   1579.26   0.000000    0.00  0.000000  (-0.000000  0.000011 -0.000058)

--------------------------
THERMOCHEMISTRY AT 298.15K
--------------------------

Temperature         ...   298.15 K
Pressure            ...     1.00 atm
Total Mass          ...   498.66 AMU
Quasi RRHO          ...     True
Cut-Off Frequency   ...     1.00 cm^-1

Throughout the following assumptions are being made:
  (1) The electronic state is orbitally nondegenerate
  (2) There are no thermally accessible electronically excited states
  (3) Hindered rotations indicated by low frequency modes are not
      treated as such but are treated as vibrations and this may
      cause some error
  (4) All equations used are the standard statistical mechanics
      equations for an ideal gas
  (5) All vibrations are strictly harmonic

freq.      28.36  E(vib)   ...       0.55
freq.      35.51  E(vib)   ...       0.54
freq.      35.52  E(vib)   ...       0.54
freq.      73.49  E(vib)   ...       0.49
freq.      77.22  E(vib)   ...       0.49
freq.      81.32  E(vib)   ...       0.48
freq.      81.83  E(vib)   ...       0.48
freq.     102.98  E(vib)   ...       0.46
freq.     105.00  E(vib)   ...       0.46
freq.     132.83  E(vib)   ...       0.42
freq.     209.49  E(vib)   ...       0.34
freq.     210.12  E(vib)   ...       0.34
freq.     218.12  E(vib)   ...       0.33
freq.     218.73  E(vib)   ...       0.33
freq.     219.99  E(vib)   ...       0.33
freq.     220.05  E(vib)   ...       0.33
freq.     225.40  E(vib)   ...       0.33
freq.     232.15  E(vib)   ...       0.32
freq.     232.16  E(vib)   ...       0.32
freq.     250.38  E(vib)   ...       0.30
freq.     320.47  E(vib)   ...       0.25
freq.     320.50  E(vib)   ...       0.25
freq.     341.65  E(vib)   ...       0.23
freq.     344.12  E(vib)   ...       0.23
freq.     350.80  E(vib)   ...       0.23
freq.     351.04  E(vib)   ...       0.23
freq.     377.34  E(vib)   ...       0.21
freq.     381.00  E(vib)   ...       0.21
freq.     384.69  E(vib)   ...       0.20
freq.     388.57  E(vib)   ...       0.20
freq.     560.05  E(vib)   ...       0.12
freq.     578.82  E(vib)   ...       0.11
freq.     579.06  E(vib)   ...       0.11
freq.     609.31  E(vib)   ...       0.10
freq.     609.40  E(vib)   ...       0.10
freq.     658.11  E(vib)   ...       0.08
freq.     658.77  E(vib)   ...       0.08
freq.     692.80  E(vib)   ...       0.07
freq.     694.55  E(vib)   ...       0.07
freq.     699.87  E(vib)   ...       0.07
freq.     765.80  E(vib)   ...       0.06
freq.     766.05  E(vib)   ...       0.06
freq.     817.73  E(vib)   ...       0.05
freq.     866.21  E(vib)   ...       0.04
freq.     867.06  E(vib)   ...       0.04
freq.     937.47  E(vib)   ...       0.03
freq.    1077.09  E(vib)   ...       0.02
freq.    1131.00  E(vib)   ...       0.01
freq.    1181.00  E(vib)   ...       0.01
freq.    1253.54  E(vib)   ...       0.01
freq.    1296.43  E(vib)   ...       0.01
freq.    1296.46  E(vib)   ...       0.01
freq.    1346.73  E(vib)   ...       0.01
freq.    1347.29  E(vib)   ...       0.01
freq.    1349.75  E(vib)   ...       0.01
freq.    1426.97  E(vib)   ...       0.00
freq.    1533.48  E(vib)   ...       0.00
freq.    1534.90  E(vib)   ...       0.00
freq.    1559.50  E(vib)   ...       0.00
freq.    1579.26  E(vib)   ...       0.00

------------
INNER ENERGY
------------

The inner energy is: U= E(el) + E(ZPE) + E(vib) + E(rot) + E(trans)
    E(el)   - is the total energy from the electronic structure calculation
              = E(kin-el) + E(nuc-el) + E(el-el) + E(nuc-nuc)
    E(ZPE)  - the the zero temperature vibrational energy from the frequency calculation
    E(vib)  - the the finite temperature correction to E(ZPE) due to population
              of excited vibrational states
    E(rot)  - is the rotational thermal energy
    E(trans)- is the translational thermal energy

Summary of contributions to the inner energy U:
Electronic energy                ...  -5059.04382374 Eh
Zero point energy                ...      0.08389417 Eh      52.64 kcal/mol
Thermal vibrational correction   ...      0.01866572 Eh      11.71 kcal/mol
Thermal rotational correction    ...      0.00141627 Eh       0.89 kcal/mol
Thermal translational correction ...      0.00141627 Eh       0.89 kcal/mol
-----------------------------------------------------------------------
Total thermal energy                  -5058.93843130 Eh

Summary of corrections to the electronic energy:
(perhaps to be used in another calculation)
Total thermal correction                  0.02149827 Eh      13.49 kcal/mol
Non-thermal (ZPE) correction              0.08389417 Eh      52.64 kcal/mol
-----------------------------------------------------------------------
Total correction                          0.10539244 Eh      66.13 kcal/mol

--------
ENTHALPY
--------

The enthalpy is H = U + kB*T
                kB is Boltzmann's constant
Total thermal energy              ...  -5058.93843130 Eh
Thermal Enthalpy correction       ...      0.00094421 Eh       0.59 kcal/mol
-----------------------------------------------------------------------
Total Enthalpy                    ...  -5058.93748709 Eh

Note: Only C1 symmetry has been detected, increase convergence thresholds
      if your molecule has a higher symmetry. Symmetry factor of 1.0 is
      used for the rotational entropy correction.

Note: Rotational entropy computed according to Herzberg
Infrared and Raman Spectra, Chapter V,1, Van Nostrand Reinhold, 1945
Point Group:  C1, Symmetry Number:   1
Rotational constants in cm-1:     0.007632     0.002895     0.002847

Vibrational entropy computed according to the QRRHO of S. Grimme
Chem.Eur.J. 2012 18 9955 using a reference frequency of 100.0 cm-1

-------
ENTROPY
-------

The entropy contributions are T*S = T*(S(el)+S(vib)+S(rot)+S(trans))
     S(el)   - electronic entropy
     S(vib)  - vibrational entropy
     S(rot)  - rotational entropy
     S(trans)- translational entropy
The entropies will be listed as multiplied by the temperature to get
units of energy

Electronic entropy                ...      0.00000000 Eh      0.00 kcal/mol
Vibrational entropy               ...      0.03356897 Eh     21.06 kcal/mol
Rotational entropy                ...      0.01733873 Eh     10.88 kcal/mol
Translational entropy             ...      0.02114685 Eh     13.27 kcal/mol
-----------------------------------------------------------------------
Final entropy term                ...      0.07205455 Eh     45.21 kcal/mol

In case the symmetry of your molecule has not been determined correctly
or in case you have a reason to use a different symmetry number we print
out the resulting rotational entropy values for sn=1,12:

 non-linear molecules -----------------------------------

                             ****ORCA TERMINATED NORMALLY****
TOTAL RUN TIME: 0 days 1 hours 7 minutes 17 seconds 456 msec
