                         Program Version 6.0.0  -   RELEASE  -
|  1> ! r2SCAN-3c DEF2-TZVP FREQ
|  2> * xyzfile 0 1 vacuum_censo.xyz
|  3>
|  4>                          ****END OF INPUT****

CARTESIAN COORDINATES (ANGSTROEM)
---------------------------------
  C      0.740621    0.000056   -0.000054
  C      1.449506   -0.850257    0.849962
  C      2.847267   -0.859047    0.858903
  C      3.545457   -0.000145   -0.000372
  C      2.847186    0.858874   -0.859481
  C      1.449427    0.850284   -0.850218
  Cl     0.562399    1.902193   -1.902227
  Cl     3.705169    1.916930   -1.918666
  Cl     5.270413   -0.000331   -0.000570
  Cl     3.705403   -1.917207    1.917848
  Cl     0.562550   -1.902040    1.902161
  C     -0.740626    0.000062    0.000056
  C     -1.449524   -0.850237   -0.849967
  C     -2.847281   -0.859002   -0.858914
  C     -3.545463   -0.000087    0.000382
  C     -2.847183    0.858929    0.859460
  C     -1.449420    0.850317    0.850200
  Cl    -0.562332    1.902203    1.902188
  Cl    -3.705246    1.916980    1.918569
  Cl    -5.270419   -0.000123    0.000661
  Cl    -3.705336   -1.917177   -1.917925
  Cl    -0.562627   -1.902065   -1.902167

 Total Charge           Charge          ....    0
 Multiplicity           Mult            ....    1
 Number of Electrons    NEL             ....  242
 Basis Dimension        Dim             ....  742

ORBITAL ENERGIES
----------------

  NO   OCC          E(Eh)            E(eV)
   0   2.0000    -101.222735     -2754.4107
   1   2.0000    -101.222735     -2754.4106
   2   2.0000    -101.222652     -2754.4084
   3   2.0000    -101.222650     -2754.4083
   4   2.0000    -101.222649     -2754.4083
   5   2.0000    -101.222649     -2754.4083
   6   2.0000    -101.221717     -2754.3829
   7   2.0000    -101.221716     -2754.3829
   8   2.0000    -101.221716     -2754.3829
   9   2.0000    -101.221716     -2754.3829
  10   2.0000     -10.148311      -276.1496
  11   2.0000     -10.148310      -276.1496
  12   2.0000     -10.144973      -276.0587
  13   2.0000     -10.144973      -276.0587
  14   2.0000     -10.144936      -276.0578
  15   2.0000     -10.144935      -276.0577
  16   2.0000     -10.144107      -276.0352
  17   2.0000     -10.144107      -276.0352
  18   2.0000     -10.144105      -276.0351
  19   2.0000     -10.144104      -276.0351
  20   2.0000     -10.106843      -275.0212
  21   2.0000     -10.106639      -275.0156
  22   2.0000      -9.398506      -255.7463
  23   2.0000      -9.398505      -255.7463
  24   2.0000      -9.398377      -255.7428
  25   2.0000      -9.398376      -255.7428
  26   2.0000      -9.398375      -255.7428
  27   2.0000      -9.398375      -255.7428
  28   2.0000      -9.397458      -255.7178
  29   2.0000      -9.397458      -255.7178
  30   2.0000      -9.397458      -255.7178
  31   2.0000      -9.397457      -255.7178
  32   2.0000      -7.143881      -194.3949
  33   2.0000      -7.143881      -194.3949
  34   2.0000      -7.143688      -194.3896
  35   2.0000      -7.143687      -194.3896
  36   2.0000      -7.143687      -194.3896
  37   2.0000      -7.143687      -194.3896
  38   2.0000      -7.142840      -194.3666
  39   2.0000      -7.142840      -194.3666
  40   2.0000      -7.142840      -194.3666
  41   2.0000      -7.142840      -194.3666
  42   2.0000      -7.133570      -194.1143
  43   2.0000      -7.133570      -194.1143
  44   2.0000      -7.133396      -194.1096
  45   2.0000      -7.133396      -194.1096
  46   2.0000      -7.133395      -194.1096
  47   2.0000      -7.133394      -194.1095
  48   2.0000      -7.132487      -194.0848
  49   2.0000      -7.132487      -194.0848
  50   2.0000      -7.132487      -194.0848
  51   2.0000      -7.132486      -194.0848
  52   2.0000      -7.132439      -194.0835
  53   2.0000      -7.132435      -194.0834
  54   2.0000      -7.132435      -194.0834
  55   2.0000      -7.132434      -194.0834
  56   2.0000      -7.132420      -194.0830
  57   2.0000      -7.132420      -194.0830
  58   2.0000      -7.131399      -194.0552
  59   2.0000      -7.131399      -194.0552
  60   2.0000      -7.131398      -194.0552
  61   2.0000      -7.131398      -194.0552
  62   2.0000      -0.940706       -25.5979
  63   2.0000      -0.929751       -25.2998
  64   2.0000      -0.889395       -24.2017
  65   2.0000      -0.889395       -24.2017
  66   2.0000      -0.887872       -24.1602
  67   2.0000      -0.868322       -23.6282
  68   2.0000      -0.843451       -22.9515
  69   2.0000      -0.843450       -22.9514
  70   2.0000      -0.834023       -22.6949
  71   2.0000      -0.828983       -22.5578
  72   2.0000      -0.805884       -21.9292
  73   2.0000      -0.800406       -21.7802
  74   2.0000      -0.756445       -20.5839
  75   2.0000      -0.710641       -19.3375
  76   2.0000      -0.710641       -19.3375
  77   2.0000      -0.708058       -19.2672
  78   2.0000      -0.634213       -17.2578
  79   2.0000      -0.600951       -16.3527
  80   2.0000      -0.600946       -16.3526
  81   2.0000      -0.588365       -16.0102
  82   2.0000      -0.529473       -14.4077
  83   2.0000      -0.529461       -14.4074
  84   2.0000      -0.520181       -14.1548
  85   2.0000      -0.499041       -13.5796
  86   2.0000      -0.475246       -12.9321
  87   2.0000      -0.463048       -12.6002
  88   2.0000      -0.448854       -12.2139
  89   2.0000      -0.448854       -12.2139
  90   2.0000      -0.448676       -12.2091
  91   2.0000      -0.444495       -12.0953
  92   2.0000      -0.444484       -12.0950
  93   2.0000      -0.426717       -11.6116
  94   2.0000      -0.410780       -11.1779
  95   2.0000      -0.410764       -11.1775
  96   2.0000      -0.402109       -10.9420
  97   2.0000      -0.393376       -10.7043
  98   2.0000      -0.383516       -10.4360
  99   2.0000      -0.371661       -10.1134
 100   2.0000      -0.371651       -10.1131
 101   2.0000      -0.344242        -9.3673
 102   2.0000      -0.333585        -9.0773
 103   2.0000      -0.333482        -9.0745
 104   2.0000      -0.331223        -9.0130
 105   2.0000      -0.331220        -9.0129
 106   2.0000      -0.329150        -8.9566
 107   2.0000      -0.329147        -8.9566
 108   2.0000      -0.327990        -8.9251
 109   2.0000      -0.317563        -8.6413
 110   2.0000      -0.317557        -8.6412
 111   2.0000      -0.307201        -8.3594
 112   2.0000      -0.307178        -8.3587
 113   2.0000      -0.303379        -8.2554
 114   2.0000      -0.303377        -8.2553
 115   2.0000      -0.287289        -7.8175
 116   2.0000      -0.287288        -7.8175
 117   2.0000      -0.252807        -6.8792
 118   2.0000      -0.252793        -6.8788
 119   2.0000      -0.246929        -6.7193
 120   2.0000      -0.244974        -6.6661
 121   0.0000      -0.088306        -2.4029
 122   0.0000      -0.088288        -2.4024
 123   0.0000      -0.087052        -2.3688
 124   0.0000      -0.084626        -2.3028
 125   0.0000      -0.081335        -2.2132

MULLIKEN ATOMIC CHARGES
-----------------------
   0 C :    0.037475
   1 C :    0.090156
   2 C :   -0.049165
   3 C :    0.055327
   4 C :   -0.049147
   5 C :    0.090162
   6 Cl:   -0.040303
   7 Cl:   -0.031811
   8 Cl:   -0.030597
   9 Cl:   -0.031806
  10 Cl:   -0.040301
  11 C :    0.037444
  12 C :    0.090194
  13 C :   -0.049224
  14 C :    0.055435
  15 C :   -0.049219
  16 C :    0.090211
  17 Cl:   -0.040300
  18 Cl:   -0.031814
  19 Cl:   -0.030597
  20 Cl:   -0.031818
  21 Cl:   -0.040303
Sum of atomic charges:   -0.0000000

LOEWDIN ATOMIC CHARGES
----------------------
   0 C :   -0.154011
   1 C :   -0.403021
   2 C :   -0.450885
   3 C :   -0.446837
   4 C :   -0.450873
   5 C :   -0.403029
   6 Cl:    0.470616
   7 Cl:    0.454621
   8 Cl:    0.458170
   9 Cl:    0.454630
  10 Cl:    0.470619
  11 C :   -0.154011
  12 C :   -0.403029
  13 C :   -0.450871
  14 C :   -0.446837
  15 C :   -0.450889
  16 C :   -0.403021
  17 Cl:    0.470617
  18 Cl:    0.454633
  19 Cl:    0.458170
  20 Cl:    0.454620
  21 Cl:    0.470617

  Mayer bond orders larger than 0.100000
B(  0-C ,  1-C ) :   1.2687 B(  0-C ,  5-C ) :   1.2687 B(  0-C , 11-C ) :   0.6544
B(  1-C ,  2-C ) :   1.2989 B(  1-C , 10-Cl) :   1.2225 B(  2-C ,  3-C ) :   1.2851
B(  2-C ,  9-Cl) :   1.2302 B(  3-C ,  4-C ) :   1.2851 B(  3-C ,  8-Cl) :   1.2219
B(  4-C ,  5-C ) :   1.2990 B(  4-C ,  7-Cl) :   1.2301 B(  5-C ,  6-Cl) :   1.2224
B( 11-C , 12-C ) :   1.2688 B( 11-C , 16-C ) :   1.2689 B( 12-C , 13-C ) :   1.2990
B( 12-C , 21-Cl) :   1.2224 B( 13-C , 14-C ) :   1.2851 B( 13-C , 20-Cl) :   1.2302
B( 14-C , 15-C ) :   1.2851 B( 14-C , 19-Cl) :   1.2219 B( 15-C , 16-C ) :   1.2991
B( 15-C , 18-Cl) :   1.2302 B( 16-C , 17-Cl) :   1.2224

Dispersion correction           -0.019760131
FINAL SINGLE POINT ENERGY     -5059.044024273365

DIPOLE MOMENT
-------------

Method             : SCF
Type of density    : Electron Density
Multiplicity       :   1
Irrep              :   0
Energy             : -5059.0408491386124297 Eh
Relativity type    :
Basis              : AO
                                X                 Y                 Z
Electronic contribution:     -0.000002585      -0.000165066      -0.000022846
Nuclear contribution   :     -0.000000561       0.000165817       0.000035993
                        -----------------------------------------
Total Dipole Moment    :     -0.000003146       0.000000751       0.000013147
                        -----------------------------------------
Magnitude (a.u.)       :      0.000013539
Magnitude (Debye)      :      0.000034413

VIBRATIONAL FREQUENCIES
-----------------------

Scaling factor for frequencies =  1.000000000  (already applied!)

     0:       0.00 cm**-1
     1:       0.00 cm**-1
     2:       0.00 cm**-1
     3:       0.00 cm**-1
     4:       0.00 cm**-1
     5:       0.00 cm**-1
     6:      28.53 cm**-1
     7:      35.95 cm**-1
     8:      35.95 cm**-1
     9:      73.14 cm**-1
    10:      76.66 cm**-1
    11:      81.25 cm**-1
    12:      81.25 cm**-1
    13:     103.40 cm**-1
    14:     103.41 cm**-1
    15:     132.58 cm**-1
    16:     208.70 cm**-1
    17:     208.72 cm**-1
    18:     217.90 cm**-1
    19:     218.47 cm**-1
    20:     219.73 cm**-1
    21:     219.73 cm**-1
    22:     225.01 cm**-1
    23:     231.74 cm**-1
    24:     231.74 cm**-1
    25:     250.21 cm**-1
    26:     320.77 cm**-1
    27:     320.78 cm**-1
    28:     341.95 cm**-1
    29:     344.52 cm**-1
    30:     351.10 cm**-1
    31:     351.51 cm**-1
    32:     377.99 cm**-1
    33:     381.75 cm**-1
    34:     387.38 cm**-1
    35:     387.42 cm**-1
    36:     561.06 cm**-1
    37:     579.70 cm**-1
    38:     579.75 cm**-1
    39:     610.36 cm**-1
    40:     610.45 cm**-1
    41:     659.67 cm**-1
    42:     659.68 cm**-1
    43:     695.02 cm**-1
    44:     695.05 cm**-1
    45:     701.81 cm**-1
    46:     766.76 cm**-1
    47:     766.77 cm**-1
    48:     819.68 cm**-1
    49:     868.86 cm**-1
    50:     868.86 cm**-1
    51:     939.31 cm**-1
    52:    1079.35 cm**-1
    53:    1132.67 cm**-1
    54:    1180.00 cm**-1
    55:    1251.53 cm**-1
    56:    1289.06 cm**-1
    57:    1289.06 cm**-1
    58:    1343.88 cm**-1
    59:    1345.82 cm**-1
    60:    1345.83 cm**-1
    61:    1423.59 cm**-1
    62:    1529.74 cm**-1
    63:    1529.75 cm**-1
    64:    1554.03 cm**-1
    65:    1574.76 cm**-1

IR SPECTRUM
-----------

 Mode   freq       eps      Int      T**2         TX        TY        TZ
       cm**-1   L/(mol*cm) km/mol    a.u.
----------------------------------------------------------------------------
  6:     28.53   0.000000    0.00  0.000000  (-0.000000 -0.000001  0.000001)
  7:     35.95   0.000000    0.00  0.000001  (-0.000001 -0.000001 -0.000978)
  8:     35.95   0.000000    0.00  0.000001  (-0.000000  0.000987 -0.000001)
  9:     73.14   0.000000    0.00  0.000000  ( 0.000013 -0.000000  0.000001)
 10:     76.66   0.000000    0.00  0.000000  ( 0.000000  0.000001  0.000001)
 11:     81.25   0.000000    0.00  0.000000  (-0.000000 -0.000002  0.000461)
 12:     81.25   0.000000    0.00  0.000000  ( 0.000001 -0.000472 -0.000002)
 13:    103.40   0.000000    0.00  0.000001  ( 0.000000  0.001140  0.000017)
 14:    103.41   0.000000    0.00  0.000001  ( 0.000003  0.000017 -0.001112)
 15:    132.58   0.000000    0.00  0.000000  ( 0.000000 -0.000001 -0.000000)
 16:    208.70   0.000001    0.00  0.000001  ( 0.000000 -0.001093  0.000004)
 17:    208.72   0.000001    0.00  0.000001  ( 0.000002 -0.000004 -0.001101)
 18:    217.90   0.000050    0.25  0.000072  (-0.008490 -0.000056 -0.000024)
 19:    218.47   0.000000    0.00  0.000000  ( 0.000001 -0.000039 -0.000092)
 20:    219.73   0.000037    0.19  0.000053  (-0.000063  0.007258 -0.000740)
 21:    219.73   0.000037    0.19  0.000053  (-0.000036  0.000740  0.007259)
 22:    225.01   0.000002    0.01  0.000003  (-0.001840 -0.000016 -0.000005)
 23:    231.74   0.000002    0.01  0.000003  ( 0.000001  0.000004 -0.001628)
 24:    231.74   0.000002    0.01  0.000003  ( 0.000003 -0.001629 -0.000004)
 25:    250.21   0.000000    0.00  0.000000  ( 0.000000 -0.000000  0.000000)
 26:    320.77   0.000013    0.07  0.000013  (-0.000001 -0.003621 -0.000010)
 27:    320.78   0.000013    0.07  0.000013  (-0.000000  0.000010 -0.003619)
 28:    341.95   0.000015    0.07  0.000013  (-0.003666  0.000002  0.000001)
 29:    344.52   0.000000    0.00  0.000000  ( 0.000000  0.000001 -0.000001)
 30:    351.10   0.000000    0.00  0.000000  (-0.000000  0.000000  0.000002)
 31:    351.51   0.000000    0.00  0.000000  (-0.000028 -0.000001  0.000001)
 32:    377.99   0.000018    0.09  0.000015  ( 0.003876 -0.000000 -0.000001)
 33:    381.75   0.000000    0.00  0.000000  (-0.000000  0.000003 -0.000000)
 34:    387.38   0.000067    0.34  0.000054  (-0.000000 -0.007335  0.000009)
 35:    387.42   0.000067    0.34  0.000054  (-0.000005 -0.000009 -0.007360)
 36:    561.06   0.015199   76.81  0.008454  (-0.091945 -0.000000  0.000011)
 37:    579.70   0.000333    1.68  0.000179  (-0.000011  0.000008 -0.013395)
 38:    579.75   0.000335    1.69  0.000180  ( 0.000002 -0.013428 -0.000008)
 39:    610.36   0.000000    0.00  0.000000  ( 0.000000 -0.000001  0.000000)
 40:    610.45   0.000000    0.00  0.000000  ( 0.000043  0.000001  0.000000)
 41:    659.67   0.006140   31.03  0.002905  (-0.000001  0.053891 -0.000529)
 42:    659.68   0.006142   31.04  0.002905  ( 0.000003  0.000529  0.053899)
 43:    695.02   0.006746   34.09  0.003029  (-0.000002 -0.055022  0.001147)
 44:    695.05   0.006753   34.13  0.003032  (-0.000006 -0.001146 -0.055051)
 45:    701.81   0.000000    0.00  0.000000  ( 0.000000  0.000005  0.000026)
 46:    766.76   0.002290   11.57  0.000932  ( 0.000003  0.030122 -0.004987)
 47:    766.77   0.002294   11.59  0.000934  ( 0.000004 -0.004982 -0.030146)
 48:    819.68   0.012574   63.54  0.004787  (-0.069188  0.000007  0.000013)
 49:    868.86   0.000194    0.98  0.000070  ( 0.000005 -0.000019 -0.008357)
 50:    868.86   0.000192    0.97  0.000069  (-0.000011  0.008301 -0.000019)
 51:    939.31   0.000000    0.00  0.000000  (-0.000000 -0.000002  0.000005)
 52:   1079.35   0.003234   16.34  0.000935  (-0.030579 -0.000002  0.000002)
 53:   1132.67   0.000000    0.00  0.000000  ( 0.000000 -0.000003 -0.000001)
 54:   1180.00   0.006019   30.42  0.001592  (-0.039897 -0.000001  0.000004)
 55:   1251.53   0.000000    0.00  0.000000  (-0.000000 -0.000006 -0.000004)
 56:   1289.06   0.000070    0.36  0.000017  (-0.000022  0.004075  0.000636)
 57:   1289.06   0.000071    0.36  0.000017  (-0.000000 -0.000633  0.004096)
 58:   1343.88   0.047813  241.63  0.011103  (-0.105369 -0.000317 -0.000027)
 59:   1345.82   0.033862  171.12  0.007852  ( 0.000376 -0.088608 -0.000381)
 60:   1345.83   0.033883  171.23  0.007857  ( 0.000037  0.000381 -0.088637)
 61:   1423.59   0.000000    0.00  0.000000  (-0.000000  0.000004 -0.000008)
 62:   1529.74   0.000004    0.02  0.000001  ( 0.000002  0.000927  0.000040)
 63:   1529.75   0.000004    0.02  0.000001  ( 0.000006 -0.000041  0.000893)
 64:   1554.03   0.003034   15.33  0.000609  ( 0.024684 -0.000003 -0.000006)
 65:   1574.76   0.000000    0.00  0.000000  (-0.000000  0.000001 -0.000002)

--------------------------
THERMOCHEMISTRY AT 298.15K
--------------------------

Temperature         ...   298.15 K
Pressure            ...     1.00 atm
Total Mass          ...   498.66 AMU
Quasi RRHO          ...     True
Cut-Off Frequency   ...     1.00 cm^-1

Throughout the following assumptions are being made:
  (1) The electronic state is orbitally nondegenerate
  (2) There are no thermally accessible electronically excited states
  (3) Hindered rotations indicated by low frequency modes are not
      treated as such but are treated as vibrations and this may
      cause some error
  (4) All equations used are the standard statistical mechanics
      equations for an ideal gas
  (5) All vibrations are strictly harmonic

freq.      28.53  E(vib)   ...       0.55
freq.      35.95  E(vib)   ...       0.54
freq.      35.95  E(vib)   ...       0.54
freq.      73.14  E(vib)   ...       0.49
freq.      76.66  E(vib)   ...       0.49
freq.      81.25  E(vib)   ...       0.48
freq.      81.25  E(vib)   ...       0.48
freq.     103.40  E(vib)   ...       0.46
freq.     103.41  E(vib)   ...       0.46
freq.     132.58  E(vib)   ...       0.42
freq.     208.70  E(vib)   ...       0.34
freq.     208.72  E(vib)   ...       0.34
freq.     217.90  E(vib)   ...       0.33
freq.     218.47  E(vib)   ...       0.33
freq.     219.73  E(vib)   ...       0.33
freq.     219.73  E(vib)   ...       0.33
freq.     225.01  E(vib)   ...       0.33
freq.     231.74  E(vib)   ...       0.32
freq.     231.74  E(vib)   ...       0.32
freq.     250.21  E(vib)   ...       0.31
freq.     320.77  E(vib)   ...       0.25
freq.     320.78  E(vib)   ...       0.25
freq.     341.95  E(vib)   ...       0.23
freq.     344.52  E(vib)   ...       0.23
freq.     351.10  E(vib)   ...       0.23
freq.     351.51  E(vib)   ...       0.23
freq.     377.99  E(vib)   ...       0.21
freq.     381.75  E(vib)   ...       0.21
freq.     387.38  E(vib)   ...       0.20
freq.     387.42  E(vib)   ...       0.20
freq.     561.06  E(vib)   ...       0.11
freq.     579.70  E(vib)   ...       0.11
freq.     579.75  E(vib)   ...       0.11
freq.     610.36  E(vib)   ...       0.10
freq.     610.45  E(vib)   ...       0.10
freq.     659.67  E(vib)   ...       0.08
freq.     659.68  E(vib)   ...       0.08
freq.     695.02  E(vib)   ...       0.07
freq.     695.05  E(vib)   ...       0.07
freq.     701.81  E(vib)   ...       0.07
freq.     766.76  E(vib)   ...       0.06
freq.     766.77  E(vib)   ...       0.06
freq.     819.68  E(vib)   ...       0.05
freq.     868.86  E(vib)   ...       0.04
freq.     868.86  E(vib)   ...       0.04
freq.     939.31  E(vib)   ...       0.03
freq.    1079.35  E(vib)   ...       0.02
freq.    1132.67  E(vib)   ...       0.01
freq.    1180.00  E(vib)   ...       0.01
freq.    1251.53  E(vib)   ...       0.01
freq.    1289.06  E(vib)   ...       0.01
freq.    1289.06  E(vib)   ...       0.01
freq.    1343.88  E(vib)   ...       0.01
freq.    1345.82  E(vib)   ...       0.01
freq.    1345.83  E(vib)   ...       0.01
freq.    1423.59  E(vib)   ...       0.00
freq.    1529.74  E(vib)   ...       0.00
freq.    1529.75  E(vib)   ...       0.00
freq.    1554.03  E(vib)   ...       0.00
freq.    1574.76  E(vib)   ...       0.00

------------
INNER ENERGY
------------

The inner energy is: U= E(el) + E(ZPE) + E(vib) + E(rot) + E(trans)
    E(el)   - is the total energy from the electronic structure calculation
              = E(kin-el) + E(nuc-el) + E(el-el) + E(nuc-nuc)
    E(ZPE)  - the the zero temperature vibrational energy from the frequency calculation
    E(vib)  - the the finite temperature correction to E(ZPE) due to population
              of excited vibrational states
    E(rot)  - is the rotational thermal energy
    E(trans)- is the translational thermal energy

Summary of contributions to the inner energy U:
Electronic energy                ...  -5059.04402427 Eh
Zero point energy                ...      0.08383912 Eh      52.61 kcal/mol
Thermal vibrational correction   ...      0.01866400 Eh      11.71 kcal/mol
Thermal rotational correction    ...      0.00141627 Eh       0.89 kcal/mol
Thermal translational correction ...      0.00141627 Eh       0.89 kcal/mol
-----------------------------------------------------------------------
Total thermal energy                  -5058.93868861 Eh

Summary of corrections to the electronic energy:
(perhaps to be used in another calculation)
Total thermal correction                  0.02149655 Eh      13.49 kcal/mol
Non-thermal (ZPE) correction              0.08383912 Eh      52.61 kcal/mol
-----------------------------------------------------------------------
Total correction                          0.10533566 Eh      66.10 kcal/mol

--------
ENTHALPY
--------

The enthalpy is H = U + kB*T
                kB is Boltzmann's constant
Total thermal energy              ...  -5058.93868861 Eh
Thermal Enthalpy correction       ...      0.00094421 Eh       0.59 kcal/mol
-----------------------------------------------------------------------
Total Enthalpy                    ...  -5058.93774440 Eh

WARNING (ORCA/SYM): A non-planar off-center atom subset has been encountered
in function TSymmetryFinder::FilterSubsetShapes() which cannot occur under
regular conditions. The full point group may not be assigned correctly. If the
symmetry appears to be too low, please try increasing the cleaning tolerance
using option SymThresh in the %symmetry input block. If the problem persists,
you may post a message in the ORCA forum.

Note: Only C1 symmetry has been detected, increase convergence thresholds
      if your molecule has a higher symmetry. Symmetry factor of 1.0 is
      used for the rotational entropy correction.

Note: Rotational entropy computed according to Herzberg
Infrared and Raman Spectra, Chapter V,1, Van Nostrand Reinhold, 1945
Point Group:  C1, Symmetry Number:   1
Rotational constants in cm-1:     0.007629     0.002871     0.002871

Vibrational entropy computed according to the QRRHO of S. Grimme
Chem.Eur.J. 2012 18 9955 using a reference frequency of 100.0 cm-1

-------
ENTROPY
-------

The entropy contributions are T*S = T*(S(el)+S(vib)+S(rot)+S(trans))
     S(el)   - electronic entropy
     S(vib)  - vibrational entropy
     S(rot)  - rotational entropy
     S(trans)- translational entropy
The entropies will be listed as multiplied by the temperature to get
units of energy

Electronic entropy                ...      0.00000000 Eh      0.00 kcal/mol
Vibrational entropy               ...      0.03356572 Eh     21.06 kcal/mol
Rotational entropy                ...      0.01733900 Eh     10.88 kcal/mol
Translational entropy             ...      0.02114685 Eh     13.27 kcal/mol
-----------------------------------------------------------------------

                             ****ORCA TERMINATED NORMALLY****
TOTAL RUN TIME: 0 days 1 hours 6 minutes 58 seconds 237 msec
