                         Program Version 6.0.1  -  RELEASE   -
|  1> ! r2scan-3c def2/J RI DEFGRID2 scfconv6 printgap
|  2> %output
|  3>     printlevel normal
|  4> end
|  5> * xyz 0 1
|  6> C -1.0017442679 -1.8089788713 7.09259e-05
|  7> C 0.3649720891 -1.6113825275 3.4983e-05
|  8> C 0.8749349073 -0.3125483485 -0.0001069208
|  9> C 0.008606941 0.7762719181 -0.0001643435
| 10> C -1.3657123658 0.5733633188 -5.18015e-05
| 11> C -1.8659903453 -0.7264772857 5.38315e-05
| 12> O -2.177093304 1.6589660383 4.62939e-05
| 13> C 2.3259387007 -0.084495181 -0.000171537
| 14> O 2.8656763164 0.9914934533 0.0002461401
| 15> H -1.4055124229 -2.8102885623 0.000267547
| 16> H 1.0401035529 -2.4539010108 4.11019e-05
| 17> H 0.4062366208 1.7787857141 -0.0001241104
| 18> H -2.9361021989 -0.8882344295 0.0002230397
| 19> H -3.10289606 1.3863137438 -9.14606e-05
| 20> H 2.9207481264 -1.0206734212 -0.0009677054
| 21> *
| 22>
| 23>                          ****END OF INPUT****

CARTESIAN COORDINATES (ANGSTROEM)
---------------------------------
  C     -1.001744   -1.808979    0.000071
  C      0.364972   -1.611383    0.000035
  C      0.874935   -0.312548   -0.000107
  C      0.008607    0.776272   -0.000164
  C     -1.365712    0.573363   -0.000052
  C     -1.865990   -0.726477    0.000054
  O     -2.177093    1.658966    0.000046
  C      2.325939   -0.084495   -0.000172
  O      2.865676    0.991493    0.000246
  H     -1.405512   -2.810289    0.000268
  H      1.040104   -2.453901    0.000041
  H      0.406237    1.778786   -0.000124
  H     -2.936102   -0.888234    0.000223
  H     -3.102896    1.386314   -0.000091
  H      2.920748   -1.020673   -0.000968

 Total Charge           Charge          ....    0
 Multiplicity           Mult            ....    1
 Number of Electrons    NEL             ....   64
 Basis Dimension        Dim             ....  211

ORBITAL ENERGIES
----------------

  NO   OCC          E(Eh)            E(eV)
   0   2.0000     -19.000718      -517.0358
   1   2.0000     -18.947721      -515.5937
   2   2.0000     -10.118586      -275.3407
   3   2.0000     -10.116194      -275.2756
   4   2.0000     -10.058860      -273.7155
   5   2.0000     -10.057505      -273.6786
   6   2.0000     -10.057243      -273.6715
   7   2.0000     -10.052616      -273.5456
   8   2.0000     -10.048192      -273.4252
   9   2.0000      -1.047541       -28.5050
  10   2.0000      -1.014893       -27.6166
  11   2.0000      -0.844083       -22.9687
  12   2.0000      -0.748848       -20.3772
  13   2.0000      -0.732297       -19.9268
  14   2.0000      -0.637691       -17.3524
  15   2.0000      -0.599412       -16.3108
  16   2.0000      -0.571594       -15.5539
  17   2.0000      -0.509319       -13.8593
  18   2.0000      -0.487880       -13.2759
  19   2.0000      -0.467068       -12.7096
  20   2.0000      -0.424445       -11.5497
  21   2.0000      -0.418819       -11.3966
  22   2.0000      -0.404673       -11.0117
  23   2.0000      -0.402548       -10.9539
  24   2.0000      -0.375819       -10.2266
  25   2.0000      -0.370061       -10.0699
  26   2.0000      -0.358216        -9.7476
  27   2.0000      -0.328595        -8.9415
  28   2.0000      -0.325897        -8.8681
  29   2.0000      -0.256709        -6.9854
  30   2.0000      -0.226507        -6.1636
  31   2.0000      -0.226297        -6.1579
  32   0.0000      -0.097835        -2.6622
  33   0.0000      -0.037964        -1.0331
  34   0.0000       0.006365         0.1732
  35   0.0000       0.044882         1.2213
  36   0.0000       0.074253         2.0205

MULLIKEN ATOMIC CHARGES
-----------------------
   0 C :   -0.138615
   1 C :   -0.252131
   2 C :    0.253885
   3 C :   -0.342790
   4 C :    0.431962
   5 C :   -0.286252
   6 O :   -0.400092
   7 C :    0.022702
   8 O :   -0.337962
   9 H :    0.149655
  10 H :    0.154124
  11 H :    0.188586
  12 H :    0.140599
  13 H :    0.313922
  14 H :    0.102406
Sum of atomic charges:   -0.0000000

LOEWDIN ATOMIC CHARGES
----------------------
   0 C :   -0.147518
   1 C :   -0.158906
   2 C :   -0.090996
   3 C :   -0.082858
   4 C :    0.184447
   5 C :   -0.146573
   6 O :   -0.482219
   7 C :    0.215886
   8 O :   -0.445804
   9 H :    0.171237
  10 H :    0.173421
  11 H :    0.199311
  12 H :    0.171263
  13 H :    0.283707
  14 H :    0.155601

  Mayer bond orders larger than 0.100000
B(  0-C ,  1-C ) :   1.4488 B(  0-C ,  5-C ) :   1.4247 B(  0-C ,  9-H ) :   0.9460
B(  1-C ,  2-C ) :   1.3507 B(  1-C , 10-H ) :   0.9314 B(  2-C ,  3-C ) :   1.3698
B(  2-C ,  7-C ) :   0.8192 B(  2-C ,  8-O ) :  -0.1048 B(  2-C , 14-H ) :  -0.1198
B(  3-C ,  4-C ) :   1.3991 B(  3-C ,  6-O ) :   0.1218 B(  3-C , 11-H ) :   0.9719
B(  4-C ,  5-C ) :   1.3192 B(  4-C ,  6-O ) :   0.9007 B(  5-C , 12-H ) :   0.9349
B(  6-O , 13-H ) :   0.8820 B(  7-C ,  8-O ) :   1.9626 B(  7-C , 14-H ) :   1.0421

Dispersion correction           -0.004930111
FINAL SINGLE POINT ENERGY      -420.710504795026

DIPOLE MOMENT
-------------

Method             : SCF
Type of density    : Electron Density
Multiplicity       :   1
Irrep              :   0
Energy             :  -420.7104871145874654 Eh
Relativity type    :
Basis              : AO
                                X                 Y                 Z
Electronic contribution:      1.377222914       2.631201775       0.000303785
Nuclear contribution   :     -2.876954421      -3.720943038      -0.000606971
                        -----------------------------------------
Total Dipole Moment    :     -1.499731507      -1.089741263      -0.000303186
                        -----------------------------------------
Magnitude (a.u.)       :      1.853842147
Magnitude (Debye)      :      4.712092260

Rotational constants in cm-1:             0.099143             0.043279             0.030127
Rotational constants in MHz :          2972.234567          1297.456912           903.190861

                             ****ORCA TERMINATED NORMALLY****
TOTAL RUN TIME: 0 days 0 hours 0 minutes 27 seconds 622 msec
