                         Program Version 6.0.1  -  RELEASE   -
|  1> ! r2scan-3c def2/J RI DEFGRID2 scfconv6 printgap
|  2> %output
|  3>     printlevel normal
|  4> end
|  5> * xyz 0 1
|  6> C -2.1554677031 0.3252682846 0.4254558056
|  7> C -1.0287814747 0.1575694084 -0.594512369
|  8> C 0.0010153553 -0.8072381034 -0.0942290224
|  9> C 1.2732951084 -0.5664012409 0.1822021703
| 10> C 2.0099203503 0.7264469061 0.0493614341
| 11> H -1.7633270665 0.7278017706 1.3568657257
| 12> H -2.6241555819 -0.6333975551 0.6374109976
| 13> H -2.9156610895 1.0049256483 0.0466495319
| 14> H -1.4494622318 -0.2309290458 -1.5268983267
| 15> H -0.5863006357 1.1299765451 -0.8087005126
| 16> H -0.3806836844 -1.8085657598 0.0656375915
| 17> H 1.8855594521 -1.3834135653 0.5454236811
| 18> H 1.364923106 1.5394435679 -0.268634649
| 19> H 2.8175609892 0.6193904305 -0.6751544826
| 20> H 2.4600798981 0.9933599305 1.0054267522
| 21> *
| 22>
| 23>                          ****END OF INPUT****

CARTESIAN COORDINATES (ANGSTROEM)
---------------------------------
  C     -2.155468    0.325268    0.425456
  C     -1.028781    0.157569   -0.594512
  C      0.001015   -0.807238   -0.094229
  C      1.273295   -0.566401    0.182202
  C      2.009920    0.726447    0.049361
  H     -1.763327    0.727802    1.356866
  H     -2.624156   -0.633398    0.637411
  H     -2.915661    1.004926    0.046650
  H     -1.449462   -0.230929   -1.526898
  H     -0.586301    1.129977   -0.808701
  H     -0.380684   -1.808566    0.065638
  H      1.885559   -1.383414    0.545424
  H      1.364923    1.539444   -0.268635
  H      2.817561    0.619390   -0.675154
  H      2.460080    0.993360    1.005427

 Total Charge           Charge          ....    0
 Multiplicity           Mult            ....    1
 Number of Electrons    NEL             ....   40
 Basis Dimension        Dim             ....  145

ORBITAL ENERGIES
----------------

  NO   OCC          E(Eh)            E(eV)
   0   2.0000     -10.027869      -272.8722
   1   2.0000     -10.023839      -272.7625
   2   2.0000     -10.022052      -272.7139
   3   2.0000     -10.020248      -272.6648
   4   2.0000     -10.017697      -272.5954
   5   2.0000      -0.771780       -21.0012
   6   2.0000      -0.718285       -19.5455
   7   2.0000      -0.648087       -17.6353
   8   2.0000      -0.582669       -15.8552
   9   2.0000      -0.492646       -13.4056
  10   2.0000      -0.450199       -12.2505
  11   2.0000      -0.403107       -10.9691
  12   2.0000      -0.394810       -10.7433
  13   2.0000      -0.380171       -10.3450
  14   2.0000      -0.350617        -9.5408
  15   2.0000      -0.337895        -9.1946
  16   2.0000      -0.335683        -9.1344
  17   2.0000      -0.308267        -8.3884
  18   2.0000      -0.288830        -7.8595
  19   2.0000      -0.218811        -5.9542
  20   0.0000       0.002510         0.0683
  21   0.0000       0.090259         2.4561
  22   0.0000       0.120621         3.2823
  23   0.0000       0.125601         3.4178
  24   0.0000       0.139858         3.8057

MULLIKEN ATOMIC CHARGES
-----------------------
   0 C :   -0.453625
   1 C :   -0.246358
   2 C :   -0.139786
   3 C :   -0.135706
   4 C :   -0.462439
   5 H :    0.147172
   6 H :    0.144282
   7 H :    0.143281
   8 H :    0.144897
   9 H :    0.129831
  10 H :    0.144795
  11 H :    0.147327
  12 H :    0.137824
  13 H :    0.150035
  14 H :    0.148469
Sum of atomic charges:    0.0000000

LOEWDIN ATOMIC CHARGES
----------------------
   0 C :   -0.414888
   1 C :   -0.306040
   2 C :   -0.211445
   3 C :   -0.212485
   4 C :   -0.410739
   5 H :    0.152887
   6 H :    0.150300
   7 H :    0.148827
   8 H :    0.159039
   9 H :    0.152625
  10 H :    0.162263
  11 H :    0.159100
  12 H :    0.152137
  13 H :    0.159813
  14 H :    0.158608

  Mayer bond orders larger than 0.100000
B(  0-C ,  1-C ) :   0.8828 B(  0-C ,  5-H ) :   0.9779 B(  0-C ,  6-H ) :   0.9841
B(  0-C ,  7-H ) :   0.9701 B(  1-C ,  2-C ) :   0.9307 B(  1-C ,  8-H ) :   0.9732
B(  1-C ,  9-H ) :   0.9875 B(  2-C ,  3-C ) :   1.9446 B(  2-C , 10-H ) :   0.9323
B(  3-C ,  4-C ) :   0.9149 B(  3-C , 11-H ) :   0.9369 B(  4-C , 12-H ) :   0.9910
B(  4-C , 13-H ) :   0.9665 B(  4-C , 14-H ) :   0.9665

Dispersion correction           -0.003260640
FINAL SINGLE POINT ENERGY      -196.460541682666

DIPOLE MOMENT
-------------

Method             : SCF
Type of density    : Electron Density
Multiplicity       :   1
Irrep              :   0
Energy             :  -196.4635294475313003 Eh
Relativity type    :
Basis              : AO
                                X                 Y                 Z
Electronic contribution:      1.120737211      -1.729806283      -0.376768039
Nuclear contribution   :     -1.117790156       1.837478593       0.354650311
                        -----------------------------------------
Total Dipole Moment    :      0.002947055       0.107672311      -0.022117728
                        -----------------------------------------
Magnitude (a.u.)       :      0.109960018
Magnitude (Debye)      :      0.279496153

Rotational constants in cm-1:             0.366731             0.088068             0.080577
Rotational constants in MHz :         10994.323635          2640.210325          2415.643235

                             ****ORCA TERMINATED NORMALLY****
TOTAL RUN TIME: 0 days 0 hours 0 minutes 9 seconds 674 msec
