                         Program Version 6.0.1  -  RELEASE   -
|  1> ! pbe def2-sv(p) def2/J RI DEFGRID1 loosescf d4 GCP(DFT/SV(P)) printgap
|  2> %output
|  3>     printlevel normal
|  4> end
|  5> * xyz 0 1
|  6> C 1.7737477673 0.8706661278 0.6909878555
|  7> C 1.258926924 0.0809198948 -0.5076952007
|  8> C 1.4883616962 -1.4180398655 -0.346738414
|  9> O -0.1254017087 0.3762324265 -0.7770523565
| 10> C -1.0697276345 0.0816472861 0.1173016981
| 11> O -0.8822612458 -0.4224637346 1.1931859973
| 12> C -2.4297598564 0.4575678231 -0.4197066096
| 13> H 1.5592830819 1.9294521209 0.5629776106
| 14> H 1.2974053454 0.5215276189 1.6029834625
| 15> H 2.8483888928 0.7370620666 0.7779336071
| 16> H 1.7543530842 0.433099883 -1.4208798565
| 17> H 2.5548603083 -1.6165534087 -0.2884271847
| 18> H 1.0761169195 -1.9546685662 -1.1985465259
| 19> H 1.0106149344 -1.7755920285 0.5613005904
| 20> H -3.0777792605 0.7477980158 0.4019129514
| 21> H -2.8604640819 -0.4146870697 -0.9078813568
| 22> H -2.3407940307 1.2593513486 -1.1456010658
| 23> *
| 24>
| 25>                          ****END OF INPUT****

CARTESIAN COORDINATES (ANGSTROEM)
---------------------------------
  C      1.773748    0.870666    0.690988
  C      1.258927    0.080920   -0.507695
  C      1.488362   -1.418040   -0.346738
  O     -0.125402    0.376232   -0.777052
  C     -1.069728    0.081647    0.117302
  O     -0.882261   -0.422464    1.193186
  C     -2.429760    0.457568   -0.419707
  H      1.559283    1.929452    0.562978
  H      1.297405    0.521528    1.602983
  H      2.848389    0.737062    0.777934
  H      1.754353    0.433100   -1.420880
  H      2.554860   -1.616553   -0.288427
  H      1.076117   -1.954669   -1.198547
  H      1.010615   -1.775592    0.561301
  H     -3.077779    0.747798    0.401913
  H     -2.860464   -0.414687   -0.907881
  H     -2.340794    1.259351   -1.145601

 Total Charge           Charge          ....    0
 Multiplicity           Mult            ....    1
 Number of Electrons    NEL             ....   56
 Basis Dimension        Dim             ....  118

ORBITAL ENERGIES
----------------

  NO   OCC          E(Eh)            E(eV)
   0   2.0000     -18.793764      -511.4043
   1   2.0000     -18.731130      -509.7000
   2   2.0000     -10.008064      -272.3333
   3   2.0000      -9.955075      -270.8914
   4   2.0000      -9.890567      -269.1360
   5   2.0000      -9.879337      -268.8304
   6   2.0000      -9.879018      -268.8217
   7   2.0000      -1.000873       -27.2351
   8   2.0000      -0.914139       -24.8750
   9   2.0000      -0.723991       -19.7008
  10   2.0000      -0.663515       -18.0552
  11   2.0000      -0.621672       -16.9166
  12   2.0000      -0.581278       -15.8174
  13   2.0000      -0.471099       -12.8193
  14   2.0000      -0.440220       -11.9790
  15   2.0000      -0.425862       -11.5883
  16   2.0000      -0.418214       -11.3802
  17   2.0000      -0.388390       -10.5686
  18   2.0000      -0.380161       -10.3447
  19   2.0000      -0.372759       -10.1433
  20   2.0000      -0.354402        -9.6438
  21   2.0000      -0.349865        -9.5203
  22   2.0000      -0.330311        -8.9882
  23   2.0000      -0.315485        -8.5848
  24   2.0000      -0.308444        -8.3932
  25   2.0000      -0.288080        -7.8391
  26   2.0000      -0.254800        -6.9335
  27   2.0000      -0.213501        -5.8097
  28   0.0000      -0.018697        -0.5088
  29   0.0000       0.038110         1.0370
  30   0.0000       0.062647         1.7047
  31   0.0000       0.078984         2.1493
  32   0.0000       0.090009         2.4493

MULLIKEN ATOMIC CHARGES
-----------------------
   0 C :   -0.271537
   1 C :   -0.001148
   2 C :   -0.272339
   3 O :   -0.243504
   4 C :    0.095869
   5 O :   -0.198954
   6 C :   -0.254042
   7 H :    0.107072
   8 H :    0.133140
   9 H :    0.103820
  10 H :    0.081460
  11 H :    0.104135
  12 H :    0.106531
  13 H :    0.132870
  14 H :    0.124544
  15 H :    0.133029
  16 H :    0.119053
Sum of atomic charges:    0.0000000

LOEWDIN ATOMIC CHARGES
----------------------
   0 C :   -0.350991
   1 C :   -0.042077
   2 C :   -0.351438
   3 O :   -0.067344
   4 C :    0.033344
   5 O :   -0.161325
   6 C :   -0.360741
   7 H :    0.122677
   8 H :    0.132558
   9 H :    0.126169
  10 H :    0.115391
  11 H :    0.126372
  12 H :    0.122330
  13 H :    0.132420
  14 H :    0.139768
  15 H :    0.147850
  16 H :    0.135036

  Mayer bond orders larger than 0.100000
B(  0-C ,  1-C ) :   1.1197 B(  0-C ,  7-H ) :   0.9441 B(  0-C ,  8-H ) :   0.9343
B(  0-C ,  9-H ) :   0.9426 B(  1-C ,  2-C ) :   1.1199 B(  1-C ,  3-O ) :   0.9134
B(  1-C , 10-H ) :   0.9216 B(  2-C , 11-H ) :   0.9427 B(  2-C , 12-H ) :   0.9441
B(  2-C , 13-H ) :   0.9340 B(  3-O ,  4-C ) :   1.1966 B(  4-C ,  5-O ) :   2.0445
B(  4-C ,  6-C ) :   1.0727 B(  6-C , 14-H ) :   0.9399 B(  6-C , 15-H ) :   0.9265
B(  6-C , 16-H ) :   0.9390

Dispersion correction           -0.012894926
FINAL SINGLE POINT ENERGY      -346.245168374948

DIPOLE MOMENT
-------------

Method             : SCF
Type of density    : Electron Density
Multiplicity       :   1
Irrep              :   0
Energy             :  -346.3097885287643862 Eh
Relativity type    :
Basis              : AO
                                X                 Y                 Z
Electronic contribution:     -3.338625811       0.310959058       0.400726102
Nuclear contribution   :      3.570721384      -0.125658704      -0.982872252
                        -----------------------------------------
Total Dipole Moment    :      0.232095573       0.185300355      -0.582146150
                        -----------------------------------------
Magnitude (a.u.)       :      0.653527900
Magnitude (Debye)      :      1.661135910

Rotational constants in cm-1:             0.153089             0.059176             0.058800
Rotational constants in MHz :          4589.499266          1774.051460          1762.772153

                             ****ORCA TERMINATED NORMALLY****
TOTAL RUN TIME: 0 days 0 hours 0 minutes 5 seconds 261 msec
