                         Program Version 6.0.1  -  RELEASE   -
|  1> ! r2scan-3c def2/J RI DEFGRID2 scfconv6 printgap
|  2> %output
|  3>     printlevel normal
|  4> end
|  5> * xyz 0 1
|  6> C -2.6337296759 -0.6871164929 -0.74956077
|  7> C -1.8774005215 -0.4521995201 0.5599001401
|  8> C -0.4034879379 -0.2950350224 0.3017101817
|  9> C 0.3922464159 -1.4327054338 0.2549486694
| 10> C 1.7455183582 -1.3548724103 -0.0166375634
| 11> C 2.3233984085 -0.1195041918 -0.2460796262
| 12> C 1.5406055182 1.0195721816 -0.2008453124
| 13> C 0.1792766977 0.952875452 0.0675260171
| 14> C -0.6272184512 2.2178074215 0.1141227843
| 15> H -2.2681259397 -1.5870625456 -1.2389932101
| 16> H -2.4931177606 0.1484902898 -1.4313173963
| 17> H -3.6985163797 -0.8030924057 -0.5592884867
| 18> H -2.0380572042 -1.3093690249 1.2178328435
| 19> H -2.2781116414 0.4313048556 1.0574301625
| 20> H -0.0612298589 -2.3972608598 0.4374823391
| 21> H 2.345088889 -2.2528644203 -0.0476203633
| 22> H 3.3796421322 -0.0416813652 -0.4585453742
| 23> H 1.9954664937 1.9841635612 -0.3793474853
| 24> H -0.0098887375 3.0717280403 -0.1542724844
| 25> H -1.4692175061 2.1725520724 -0.5740601748
| 26> H -1.0212923831 2.3846585776 1.116759581
| 27> *
| 28>
| 29>                          ****END OF INPUT****

CARTESIAN COORDINATES (ANGSTROEM)
---------------------------------
  C     -2.633730   -0.687116   -0.749561
  C     -1.877401   -0.452200    0.559900
  C     -0.403488   -0.295035    0.301710
  C      0.392246   -1.432705    0.254949
  C      1.745518   -1.354872   -0.016638
  C      2.323398   -0.119504   -0.246080
  C      1.540606    1.019572   -0.200845
  C      0.179277    0.952875    0.067526
  C     -0.627218    2.217807    0.114123
  H     -2.268126   -1.587063   -1.238993
  H     -2.493118    0.148490   -1.431317
  H     -3.698516   -0.803092   -0.559288
  H     -2.038057   -1.309369    1.217833
  H     -2.278112    0.431305    1.057430
  H     -0.061230   -2.397261    0.437482
  H      2.345089   -2.252864   -0.047620
  H      3.379642   -0.041681   -0.458545
  H      1.995466    1.984164   -0.379347
  H     -0.009889    3.071728   -0.154272
  H     -1.469218    2.172552   -0.574060
  H     -1.021292    2.384659    1.116760

 Total Charge           Charge          ....    0
 Multiplicity           Mult            ....    1
 Number of Electrons    NEL             ....   66
 Basis Dimension        Dim             ....  231

ORBITAL ENERGIES
----------------

  NO   OCC          E(Eh)            E(eV)
   0   2.0000     -10.038693      -273.1667
   1   2.0000     -10.035440      -273.0782
   2   2.0000     -10.032486      -272.9978
   3   2.0000     -10.026932      -272.8467
   4   2.0000     -10.026336      -272.8305
   5   2.0000     -10.026054      -272.8228
   6   2.0000     -10.025802      -272.8159
   7   2.0000     -10.025465      -272.8068
   8   2.0000     -10.021629      -272.7024
   9   2.0000      -0.828636       -22.5483
  10   2.0000      -0.755601       -20.5610
  11   2.0000      -0.736088       -20.0300
  12   2.0000      -0.690996       -18.8030
  13   2.0000      -0.651591       -17.7307
  14   2.0000      -0.598195       -16.2777
  15   2.0000      -0.561808       -15.2876
  16   2.0000      -0.534609       -14.5475
  17   2.0000      -0.468461       -12.7475
  18   2.0000      -0.446143       -12.1402
  19   2.0000      -0.420717       -11.4483
  20   2.0000      -0.399954       -10.8833
  21   2.0000      -0.395094       -10.7510
  22   2.0000      -0.385615       -10.4931
  23   2.0000      -0.374826       -10.1995
  24   2.0000      -0.360872        -9.8198
  25   2.0000      -0.350808        -9.5460
  26   2.0000      -0.338700        -9.2165
  27   2.0000      -0.322911        -8.7868
  28   2.0000      -0.317489        -8.6393
  29   2.0000      -0.298112        -8.1120
  30   2.0000      -0.291530        -7.9329
  31   2.0000      -0.226520        -6.1639
  32   2.0000      -0.217554        -5.9199
  33   0.0000      -0.025522        -0.6945
  34   0.0000      -0.022316        -0.6072
  35   0.0000       0.076574         2.0837
  36   0.0000       0.092403         2.5144
  37   0.0000       0.097159         2.6438

MULLIKEN ATOMIC CHARGES
-----------------------
   0 C :   -0.451840
   1 C :   -0.325212
   2 C :    0.201558
   3 C :   -0.232366
   4 C :   -0.162104
   5 C :   -0.157443
   6 C :   -0.213084
   7 C :    0.118982
   8 C :   -0.574756
   9 H :    0.151023
  10 H :    0.142474
  11 H :    0.148470
  12 H :    0.148161
  13 H :    0.147226
  14 H :    0.146349
  15 H :    0.143860
  16 H :    0.143921
  17 H :    0.144325
  18 H :    0.149903
  19 H :    0.158406
  20 H :    0.172145
Sum of atomic charges:   -0.0000000

LOEWDIN ATOMIC CHARGES
----------------------
   0 C :   -0.404752
   1 C :   -0.287997
   2 C :   -0.089316
   3 C :   -0.159950
   4 C :   -0.169716
   5 C :   -0.169759
   6 C :   -0.164274
   7 C :   -0.093464
   8 C :   -0.390748
   9 H :    0.154379
  10 H :    0.151071
  11 H :    0.149278
  12 H :    0.162260
  13 H :    0.161436
  14 H :    0.167935
  15 H :    0.165877
  16 H :    0.165974
  17 H :    0.166260
  18 H :    0.159589
  19 H :    0.161997
  20 H :    0.163921

  Mayer bond orders larger than 0.100000
B(  0-C ,  1-C ) :   0.9376 B(  0-C ,  9-H ) :   0.9786 B(  0-C , 10-H ) :   0.9789
B(  0-C , 11-H ) :   0.9737 B(  1-C ,  2-C ) :   0.8000 B(  1-C , 12-H ) :   0.9847
B(  1-C , 13-H ) :   0.9753 B(  2-C ,  3-C ) :   1.3864 B(  2-C ,  7-C ) :   1.4627
B(  3-C ,  4-C ) :   1.4377 B(  3-C , 14-H ) :   0.9364 B(  4-C ,  5-C ) :   1.4333
B(  4-C , 15-H ) :   0.9474 B(  5-C ,  6-C ) :   1.4502 B(  5-C , 16-H ) :   0.9477
B(  6-C ,  7-C ) :   1.4020 B(  6-C , 17-H ) :   0.9277 B(  7-C ,  8-C ) :   0.7876
B(  8-C , 18-H ) :   0.9887 B(  8-C , 19-H ) :   0.9731 B(  8-C , 20-H ) :   0.9872

Dispersion correction           -0.007108323
FINAL SINGLE POINT ENERGY      -350.081981577548

DIPOLE MOMENT
-------------

Method             : SCF
Type of density    : Electron Density
Multiplicity       :   1
Irrep              :   0
Energy             :  -350.0821934864649734 Eh
Relativity type    :
Basis              : AO
                                X                 Y                 Z
Electronic contribution:      6.896658972      -1.590379992       0.965959977
Nuclear contribution   :     -7.146356061       1.690170587      -0.951245145
                        -----------------------------------------
Total Dipole Moment    :     -0.249697089       0.099790595       0.014714833
                        -----------------------------------------
Magnitude (a.u.)       :      0.269301551
Magnitude (Debye)      :      0.684510143

Rotational constants in cm-1:             0.083847             0.048723             0.033582
Rotational constants in MHz :          2513.673600          1460.663883          1006.759170

                             ****ORCA TERMINATED NORMALLY****
TOTAL RUN TIME: 0 days 0 hours 0 minutes 29 seconds 897 msec
