                         Program Version 6.0.1  -  RELEASE   -
|  1> ! r2scan-3c def2/J RI DEFGRID2 scfconv6 printgap
|  2> %output
|  3>     printlevel normal
|  4> end
|  5> * xyz 0 1
|  6> C -4.2134942828 -0.3291996844 0.098281857
|  7> C -2.7308585656 -0.1215524629 0.0363532288
|  8> C -2.0105314399 0.2438505149 1.1661035301
|  9> C -0.6442183607 0.4500657646 1.1009394925
| 10> C 0.0296926213 0.2915285495 -0.1032504978
| 11> C -0.6857113808 -0.0611104432 -1.2409516792
| 12> C -2.0499646544 -0.2700407481 -1.1666878162
| 13> C 1.4958017437 0.5907029026 -0.1974376126
| 14> O 1.8974492479 1.6794085646 -0.5653036307
| 15> N 2.3333685875 -0.4136755814 0.1540005728
| 16> C 3.7604968309 -0.2008062864 0.1091399017
| 17> C 1.9149714439 -1.728523542 0.5630959556
| 18> H -4.5054833358 -1.2022978712 -0.4820406686
| 19> H -4.5468476258 -0.4596432575 1.1248286315
| 20> H -4.727833263 0.5363242958 -0.3199844457
| 21> H -2.5241355137 0.3707601927 2.1085281177
| 22> H -0.0964135387 0.7386858512 1.9863822636
| 23> H -0.16857932 -0.1710301792 -2.182923009
| 24> H -2.5974132657 -0.5489027365 -2.0557888614
| 25> H 3.9374722269 0.8235814736 -0.2128485837
| 26> H 4.2276060352 -0.8911210753 -0.5974249044
| 27> H 4.1987216387 -0.3544701809 1.0980783705
| 28> H 2.2522307058 -1.9324535442 1.5838299492
| 29> H 2.3512485763 -2.4819311513 -0.0994338229
| 30> H 0.8316533072 -1.8109609487 0.52565113
| 31> *
| 32>
| 33>                          ****END OF INPUT****

CARTESIAN COORDINATES (ANGSTROEM)
---------------------------------
  C     -4.213494   -0.329200    0.098282
  C     -2.730859   -0.121552    0.036353
  C     -2.010531    0.243851    1.166104
  C     -0.644218    0.450066    1.100939
  C      0.029693    0.291529   -0.103250
  C     -0.685711   -0.061110   -1.240952
  C     -2.049965   -0.270041   -1.166688
  C      1.495802    0.590703   -0.197438
  O      1.897449    1.679409   -0.565304
  N      2.333369   -0.413676    0.154001
  C      3.760497   -0.200806    0.109140
  C      1.914971   -1.728524    0.563096
  H     -4.505483   -1.202298   -0.482041
  H     -4.546848   -0.459643    1.124829
  H     -4.727833    0.536324   -0.319984
  H     -2.524136    0.370760    2.108528
  H     -0.096414    0.738686    1.986382
  H     -0.168579   -0.171030   -2.182923
  H     -2.597413   -0.548903   -2.055789
  H      3.937472    0.823581   -0.212849
  H      4.227606   -0.891121   -0.597425
  H      4.198722   -0.354470    1.098078
  H      2.252231   -1.932454    1.583830
  H      2.351249   -2.481931   -0.099434
  H      0.831653   -1.810961    0.525651

 Total Charge           Charge          ....    0
 Multiplicity           Mult            ....    1
 Number of Electrons    NEL             ....   88
 Basis Dimension        Dim             ....  303

ORBITAL ENERGIES
----------------

  NO   OCC          E(Eh)            E(eV)
   0   2.0000     -18.907074      -514.4876
   1   2.0000     -14.193679      -386.2296
   2   2.0000     -10.122146      -275.4376
   3   2.0000     -10.066701      -273.9289
   4   2.0000     -10.057588      -273.6809
   5   2.0000     -10.047758      -273.4134
   6   2.0000     -10.044418      -273.3225
   7   2.0000     -10.039852      -273.1983
   8   2.0000     -10.039628      -273.1922
   9   2.0000     -10.036476      -273.1064
  10   2.0000     -10.036138      -273.0972
  11   2.0000     -10.031410      -272.9686
  12   2.0000      -1.000348       -27.2209
  13   2.0000      -0.906497       -24.6670
  14   2.0000      -0.835019       -22.7220
  15   2.0000      -0.755598       -20.5609
  16   2.0000      -0.720945       -19.6179
  17   2.0000      -0.697061       -18.9680
  18   2.0000      -0.681221       -18.5370
  19   2.0000      -0.649549       -17.6751
  20   2.0000      -0.584107       -15.8944
  21   2.0000      -0.568018       -15.4566
  22   2.0000      -0.522816       -14.2265
  23   2.0000      -0.495247       -13.4764
  24   2.0000      -0.455314       -12.3897
  25   2.0000      -0.446422       -12.1478
  26   2.0000      -0.436023       -11.8648
  27   2.0000      -0.435004       -11.8371
  28   2.0000      -0.413784       -11.2596
  29   2.0000      -0.397401       -10.8138
  30   2.0000      -0.394000       -10.7213
  31   2.0000      -0.375349       -10.2138
  32   2.0000      -0.372765       -10.1435
  33   2.0000      -0.369347       -10.0504
  34   2.0000      -0.364808        -9.9269
  35   2.0000      -0.353835        -9.6283
  36   2.0000      -0.338192        -9.2027
  37   2.0000      -0.332272        -9.0416
  38   2.0000      -0.323023        -8.7899
  39   2.0000      -0.310385        -8.4460
  40   2.0000      -0.242493        -6.5986
  41   2.0000      -0.236726        -6.4416
  42   2.0000      -0.215705        -5.8696
  43   2.0000      -0.208022        -5.6606
  44   0.0000      -0.038148        -1.0381
  45   0.0000      -0.033834        -0.9207
  46   0.0000       0.003104         0.0845
  47   0.0000       0.062564         1.7024
  48   0.0000       0.080972         2.2034

MULLIKEN ATOMIC CHARGES
-----------------------
   0 C :   -0.547043
   1 C :    0.241109
   2 C :   -0.223390
   3 C :   -0.200317
   4 C :    0.066474
   5 C :   -0.192115
   6 C :   -0.207390
   7 C :    0.195254
   8 O :   -0.439719
   9 N :    0.088105
  10 C :   -0.413468
  11 C :   -0.384307
  12 H :    0.153869
  13 H :    0.150610
  14 H :    0.171742
  15 H :    0.144846
  16 H :    0.147962
  17 H :    0.149084
  18 H :    0.145106
  19 H :    0.201710
  20 H :    0.142192
  21 H :    0.140884
  22 H :    0.148761
  23 H :    0.144933
  24 H :    0.175106
Sum of atomic charges:   -0.0000000

LOEWDIN ATOMIC CHARGES
----------------------
   0 C :   -0.389657
   1 C :   -0.097247
   2 C :   -0.159634
   3 C :   -0.136143
   4 C :   -0.041757
   5 C :   -0.130653
   6 C :   -0.156347
   7 C :    0.344106
   8 O :   -0.456299
   9 N :   -0.837620
  10 C :   -0.111909
  11 C :   -0.104159
  12 H :    0.162644
  13 H :    0.159663
  14 H :    0.167343
  15 H :    0.169124
  16 H :    0.175351
  17 H :    0.176376
  18 H :    0.170052
  19 H :    0.211017
  20 H :    0.172346
  21 H :    0.172434
  22 H :    0.171236
  23 H :    0.172092
  24 H :    0.197638

  Mayer bond orders larger than 0.100000
B(  0-C ,  1-C ) :   0.7838 B(  0-C , 12-H ) :   0.9857 B(  0-C , 13-H ) :   0.9928
B(  0-C , 14-H ) :   0.9686 B(  1-C ,  2-C ) :   1.4046 B(  1-C ,  6-C ) :   1.3820
B(  2-C ,  3-C ) :   1.4352 B(  2-C , 15-H ) :   0.9404 B(  3-C ,  4-C ) :   1.4370
B(  3-C , 16-H ) :   0.9494 B(  4-C ,  5-C ) :   1.4229 B(  4-C ,  7-C ) :   0.8827
B(  5-C ,  6-C ) :   1.4332 B(  5-C , 17-H ) :   0.9552 B(  6-C , 18-H ) :   0.9476
B(  7-C ,  8-O ) :   1.8973 B(  7-C ,  9-N ) :   1.2058 B(  9-N , 10-C ) :   0.9301
B(  9-N , 11-C ) :   0.9253 B( 10-C , 19-H ) :   0.9552 B( 10-C , 20-H ) :   0.9550
B( 10-C , 21-H ) :   0.9537 B( 11-C , 22-H ) :   0.9566 B( 11-C , 23-H ) :   0.9553
B( 11-C , 24-H ) :   0.9531

Dispersion correction           -0.009195424
FINAL SINGLE POINT ENERGY      -518.739869154137

DIPOLE MOMENT
-------------

Method             : SCF
Type of density    : Electron Density
Multiplicity       :   1
Irrep              :   0
Energy             :  -518.7465147668640384 Eh
Relativity type    :
Basis              : AO
                                X                 Y                 Z
Electronic contribution:      0.958808461       5.482782353      -1.859316176
Nuclear contribution   :     -1.242287076      -6.904313091       2.316174829
                        -----------------------------------------
Total Dipole Moment    :     -0.283478614      -1.421530738       0.456858653
                        -----------------------------------------
Magnitude (a.u.)       :      1.519812354
Magnitude (Debye)      :      3.863056003

Rotational constants in cm-1:             0.079576             0.016601             0.016045
Rotational constants in MHz :          2385.640674           497.695301           481.021629

                             ****ORCA TERMINATED NORMALLY****
TOTAL RUN TIME: 0 days 0 hours 0 minutes 44 seconds 169 msec
