                         Program Version 6.0.1  -  RELEASE   -
|  1> ! pbe def2-sv(p) def2/J RI DEFGRID1 loosescf d4 GCP(DFT/SV(P)) printgap
|  2> %output
|  3>     printlevel normal
|  4> end
|  5> * xyz 0 1
|  6> C 1.008212986 1.2784372712 -0.1960978553
|  7> C 0.5191749335 -0.0151196386 0.4812521418
|  8> C 1.066052502 -1.2517382266 -0.2421573721
|  9> C -0.9841344175 -0.114995174 0.538951381
| 10> C -1.7944072117 0.0983478369 -0.481022769
| 11> H 1.5514805436 1.9023170826 0.5092443291
| 12> H 0.1737837736 1.8595727441 -0.5784357213
| 13> H 1.6729384009 1.0548550746 -1.0266921874
| 14> H 0.8982993517 -0.0389715014 1.5078376355
| 15> H 0.7181098829 -1.2691534016 -1.2722661909
| 16> H 2.153892578 -1.2439171896 -0.2382464221
| 17> H 0.7257169569 -2.161101868 0.2491046188
| 18> H -1.3963854492 -0.4259964062 1.490055001
| 19> H -2.8617806493 -0.0130370081 -0.3925320886
| 20> H -1.4302307978 0.3958262825 -1.4507840247
| 21> *
| 22>
| 23>                          ****END OF INPUT****

CARTESIAN COORDINATES (ANGSTROEM)
---------------------------------
  C      1.008213    1.278437   -0.196098
  C      0.519175   -0.015120    0.481252
  C      1.066053   -1.251738   -0.242157
  C     -0.984134   -0.114995    0.538951
  C     -1.794407    0.098348   -0.481023
  H      1.551481    1.902317    0.509244
  H      0.173784    1.859573   -0.578436
  H      1.672938    1.054855   -1.026692
  H      0.898299   -0.038972    1.507838
  H      0.718110   -1.269153   -1.272266
  H      2.153893   -1.243917   -0.238246
  H      0.725717   -2.161102    0.249105
  H     -1.396385   -0.425996    1.490055
  H     -2.861781   -0.013037   -0.392532
  H     -1.430231    0.395826   -1.450784

 Total Charge           Charge          ....    0
 Multiplicity           Mult            ....    1
 Number of Electrons    NEL             ....   40
 Basis Dimension        Dim             ....   90

ORBITAL ENERGIES
----------------

  NO   OCC          E(Eh)            E(eV)
   0   2.0000      -9.897702      -269.3302
   1   2.0000      -9.887786      -269.0603
   2   2.0000      -9.874948      -268.7110
   3   2.0000      -9.872092      -268.6333
   4   2.0000      -9.871127      -268.6070
   5   2.0000      -0.733461       -19.9585
   6   2.0000      -0.655016       -17.8239
   7   2.0000      -0.609748       -16.5921
   8   2.0000      -0.548035       -14.9128
   9   2.0000      -0.468681       -12.7535
  10   2.0000      -0.435952       -11.8629
  11   2.0000      -0.393942       -10.7197
  12   2.0000      -0.371194       -10.1007
  13   2.0000      -0.357177        -9.7193
  14   2.0000      -0.346143        -9.4190
  15   2.0000      -0.338812        -9.2196
  16   2.0000      -0.298322        -8.1178
  17   2.0000      -0.284571        -7.7436
  18   2.0000      -0.279885        -7.6161
  19   2.0000      -0.223020        -6.0687
  20   0.0000      -0.017211        -0.4683
  21   0.0000       0.038956         1.0600
  22   0.0000       0.064072         1.7435
  23   0.0000       0.086862         2.3636
  24   0.0000       0.091380         2.4866

MULLIKEN ATOMIC CHARGES
-----------------------
   0 C :   -0.247681
   1 C :   -0.130516
   2 C :   -0.249431
   3 C :   -0.105497
   4 C :   -0.209092
   5 H :    0.100593
   6 H :    0.109493
   7 H :    0.093994
   8 H :    0.068790
   9 H :    0.103393
  10 H :    0.102071
  11 H :    0.098217
  12 H :    0.069037
  13 H :    0.098835
  14 H :    0.097793
Sum of atomic charges:    0.0000000

LOEWDIN ATOMIC CHARGES
----------------------
   0 C :   -0.332630
   1 C :   -0.156842
   2 C :   -0.321364
   3 C :   -0.124267
   4 C :   -0.257082
   5 H :    0.122659
   6 H :    0.123282
   7 H :    0.118464
   8 H :    0.117320
   9 H :    0.118041
  10 H :    0.115649
  11 H :    0.118075
  12 H :    0.118955
  13 H :    0.122074
  14 H :    0.117666

  Mayer bond orders larger than 0.100000
B(  0-C ,  1-C ) :   1.0829 B(  0-C ,  5-H ) :   0.9540 B(  0-C ,  6-H ) :   0.9526
B(  0-C ,  7-H ) :   0.9559 B(  1-C ,  2-C ) :   1.1139 B(  1-C ,  3-C ) :   1.0465
B(  1-C ,  8-H ) :   0.9084 B(  2-C ,  9-H ) :   0.9505 B(  2-C , 10-H ) :   0.9455
B(  2-C , 11-H ) :   0.9512 B(  3-C ,  4-C ) :   2.0656 B(  3-C , 12-H ) :   0.9362
B(  4-C , 13-H ) :   0.9238 B(  4-C , 14-H ) :   0.9155

Dispersion correction           -0.010624264
FINAL SINGLE POINT ENERGY      -196.018173554583

DIPOLE MOMENT
-------------

Method             : SCF
Type of density    : Electron Density
Multiplicity       :   1
Irrep              :   0
Energy             :  -196.0659618640955557 Eh
Relativity type    :
Basis              : AO
                                X                 Y                 Z
Electronic contribution:     -1.953221982      -0.070747220       1.197637857
Nuclear contribution   :      2.069423103       0.056659239      -1.128342807
                        -----------------------------------------
Total Dipole Moment    :      0.116201121      -0.014087981       0.069295049
                        -----------------------------------------
Magnitude (a.u.)       :      0.136025643
Magnitude (Debye)      :      0.345749708

Rotational constants in cm-1:             0.223080             0.136067             0.106121
Rotational constants in MHz :          6687.755282          4079.171112          3181.429754

                             ****ORCA TERMINATED NORMALLY****
TOTAL RUN TIME: 0 days 0 hours 0 minutes 17 seconds 268 msec
