                         Program Version 6.0.1  -  RELEASE   -
|  1> ! r2scan-3c def2/J RI DEFGRID2 scfconv6 printgap
|  2> %output
|  3>     printlevel normal
|  4> end
|  5> * xyz 0 1
|  6> C -2.5462431414 0.9933693736 0.0057471687
|  7> C -1.2382842789 0.2610391019 -0.0057299792
|  8> C -1.1898763124 -1.1254624988 -0.0028842394
|  9> C 0.0283734364 -1.784541233 0.0009094041
| 10> C 1.2123955253 -1.0751495904 0.0020995517
| 11> C 1.1756412818 0.3156986556 -0.0001263574
| 12> C -0.0460127111 0.9736804073 -0.004004181
| 13> O 2.3580160333 0.9923407832 0.0006151606
| 14> H -2.5400762267 1.805609861 -0.7188990892
| 15> H -3.3688680176 0.3220965764 -0.2264150299
| 16> H -2.724739287 1.4258649125 0.9905151119
| 17> H -2.1088033983 -1.6927893988 -0.0050644905
| 18> H 0.0546076968 -2.8641170931 0.0017073545
| 19> H 2.1693626916 -1.5714602029 0.0038719404
| 20> H -0.0699915747 2.0568229405 -0.0064180411
| 21> H 2.1889414417 1.9421090283 -0.0015308504
| 22> *
| 23>
| 24>                          ****END OF INPUT****

CARTESIAN COORDINATES (ANGSTROEM)
---------------------------------
  C     -2.546243    0.993369    0.005747
  C     -1.238284    0.261039   -0.005730
  C     -1.189876   -1.125462   -0.002884
  C      0.028373   -1.784541    0.000909
  C      1.212396   -1.075150    0.002100
  C      1.175641    0.315699   -0.000126
  C     -0.046013    0.973680   -0.004004
  O      2.358016    0.992341    0.000615
  H     -2.540076    1.805610   -0.718899
  H     -3.368868    0.322097   -0.226415
  H     -2.724739    1.425865    0.990515
  H     -2.108803   -1.692789   -0.005064
  H      0.054608   -2.864117    0.001707
  H      2.169363   -1.571460    0.003872
  H     -0.069992    2.056823   -0.006418
  H      2.188941    1.942109   -0.001531

 Total Charge           Charge          ....    0
 Multiplicity           Mult            ....    1
 Number of Electrons    NEL             ....   58
 Basis Dimension        Dim             ....  197

ORBITAL ENERGIES
----------------

  NO   OCC          E(Eh)            E(eV)
   0   2.0000     -18.984229      -516.5871
   1   2.0000     -10.094964      -274.6979
   2   2.0000     -10.045002      -273.3384
   3   2.0000     -10.033477      -273.0248
   4   2.0000     -10.030114      -272.9333
   5   2.0000     -10.029314      -272.9115
   6   2.0000     -10.025849      -272.8172
   7   2.0000     -10.022656      -272.7303
   8   2.0000      -1.028909       -27.9980
   9   2.0000      -0.824471       -22.4350
  10   2.0000      -0.742460       -20.2034
  11   2.0000      -0.707770       -19.2594
  12   2.0000      -0.658902       -17.9296
  13   2.0000      -0.591389       -16.0925
  14   2.0000      -0.554498       -15.0887
  15   2.0000      -0.509474       -13.8635
  16   2.0000      -0.467961       -12.7339
  17   2.0000      -0.438461       -11.9311
  18   2.0000      -0.400708       -10.9038
  19   2.0000      -0.397907       -10.8276
  20   2.0000      -0.379651       -10.3308
  21   2.0000      -0.373731       -10.1697
  22   2.0000      -0.373099       -10.1525
  23   2.0000      -0.346971        -9.4416
  24   2.0000      -0.322481        -8.7751
  25   2.0000      -0.305390        -8.3101
  26   2.0000      -0.303596        -8.2613
  27   2.0000      -0.228906        -6.2289
  28   2.0000      -0.203638        -5.5413
  29   0.0000      -0.031014        -0.8439
  30   0.0000      -0.012207        -0.3322
  31   0.0000       0.057864         1.5746
  32   0.0000       0.077548         2.1102
  33   0.0000       0.108948         2.9646

MULLIKEN ATOMIC CHARGES
-----------------------
   0 C :   -0.529032
   1 C :    0.222451
   2 C :   -0.258067
   3 C :   -0.118577
   4 C :   -0.297767
   5 C :    0.439428
   6 C :   -0.412585
   7 O :   -0.410684
   8 H :    0.153406
   9 H :    0.152236
  10 H :    0.167421
  11 H :    0.146099
  12 H :    0.146165
  13 H :    0.157022
  14 H :    0.134531
  15 H :    0.307953
Sum of atomic charges:    0.0000000

LOEWDIN ATOMIC CHARGES
----------------------
   0 C :   -0.389204
   1 C :   -0.087059
   2 C :   -0.194022
   3 C :   -0.147091
   4 C :   -0.153427
   5 C :    0.186272
   6 C :   -0.173889
   7 O :   -0.494984
   8 H :    0.162307
   9 H :    0.160317
  10 H :    0.165928
  11 H :    0.167268
  12 H :    0.168043
  13 H :    0.179169
  14 H :    0.169568
  15 H :    0.280805

  Mayer bond orders larger than 0.100000
B(  0-C ,  1-C ) :   0.7778 B(  0-C ,  8-H ) :   0.9846 B(  0-C ,  9-H ) :   0.9930
B(  0-C , 10-H ) :   0.9700 B(  1-C ,  2-C ) :   1.4195 B(  1-C ,  6-C ) :   1.4114
B(  2-C ,  3-C ) :   1.4378 B(  2-C , 11-H ) :   0.9411 B(  3-C ,  4-C ) :   1.4169
B(  3-C , 12-H ) :   0.9500 B(  4-C ,  5-C ) :   1.4272 B(  4-C , 13-H ) :   0.9433
B(  5-C ,  6-C ) :   1.3741 B(  5-C ,  7-O ) :   0.9195 B(  6-C , 14-H ) :   0.9294
B(  7-O , 15-H ) :   0.8858

Dispersion correction           -0.004915422
FINAL SINGLE POINT ENERGY      -346.702588980763

DIPOLE MOMENT
-------------

Method             : SCF
Type of density    : Electron Density
Multiplicity       :   1
Irrep              :   0
Energy             :  -346.7031250059669674 Eh
Relativity type    :
Basis              : AO
                                X                 Y                 Z
Electronic contribution:      5.590838838      -0.831194850      -0.023547711
Nuclear contribution   :     -5.968939032       1.350785117       0.035440873
                        -----------------------------------------
Total Dipole Moment    :     -0.378100194       0.519590268       0.011893162
                        -----------------------------------------
Magnitude (a.u.)       :      0.642709305
Magnitude (Debye)      :      1.633637225

Rotational constants in cm-1:             0.122995             0.060724             0.040962
Rotational constants in MHz :          3687.308149          1820.454375          1228.004435

                             ****ORCA TERMINATED NORMALLY****
TOTAL RUN TIME: 0 days 0 hours 0 minutes 30 seconds 889 msec
