                         Program Version 6.0.1  -  RELEASE   -
|  1> ! pbe def2-sv(p) def2/J RI DEFGRID1 loosescf d4 GCP(DFT/SV(P)) printgap
|  2> %output
|  3>     printlevel normal
|  4> end
|  5> * xyz 0 1
|  6> C -2.3732147614 -0.8679539223 0.4545578335
|  7> C -0.9219707499 -0.4094181893 0.6412321377
|  8> H -0.645631065 -0.4918995912 1.7040727607
|  9> C -0.7357135391 1.0535098933 0.1850507634
| 10> H -1.4860158159 1.2990210987 -0.5733112903
| 11> C 0.6603201742 1.2433559011 -0.4510681423
| 12> H 0.9361185205 2.3020671949 -0.3193331114
| 13> C 1.6645150064 0.3410956629 0.2896003504
| 14> H 2.6743375829 0.4576162499 -0.1313127829
| 15> C 1.260868412 -1.1367418388 0.0500364623
| 16> H 1.6144117328 -1.7307894703 0.9083627999
| 17> O -0.1221543293 -1.2901920071 -0.124527979
| 18> O 1.8782307596 -1.636962795 -1.0823674997
| 19> O 1.6670746379 0.6089953658 1.6751212867
| 20> O 0.6000213269 0.9095888218 -1.8173308718
| 21> O -0.9276790343 1.9459583625 1.2472064028
| 22> O -2.7674438606 -0.7987418264 -0.8860957731
| 23> H -3.0376509649 -0.2086858026 1.0165885896
| 24> H -2.4672101349 -1.8942775461 0.8366214431
| 25> H 1.3653422945 -1.3175217337 -1.8400578808
| 26> H 2.1474381649 1.4291117281 1.8367848486
| 27> H 1.4150919302 1.1885503986 -2.2497650124
| 28> H -0.3358394266 1.6840421947 1.9665095995
| 29> H -2.0825185546 -1.2360599658 -1.4074252825
| 30> *
| 31>
| 32>                          ****END OF INPUT****

CARTESIAN COORDINATES (ANGSTROEM)
---------------------------------
  C     -2.373215   -0.867954    0.454558
  C     -0.921971   -0.409418    0.641232
  H     -0.645631   -0.491900    1.704073
  C     -0.735714    1.053510    0.185051
  H     -1.486016    1.299021   -0.573311
  C      0.660320    1.243356   -0.451068
  H      0.936119    2.302067   -0.319333
  C      1.664515    0.341096    0.289600
  H      2.674338    0.457616   -0.131313
  C      1.260868   -1.136742    0.050036
  H      1.614412   -1.730789    0.908363
  O     -0.122154   -1.290192   -0.124528
  O      1.878231   -1.636963   -1.082367
  O      1.667075    0.608995    1.675121
  O      0.600021    0.909589   -1.817331
  O     -0.927679    1.945958    1.247206
  O     -2.767444   -0.798742   -0.886096
  H     -3.037651   -0.208686    1.016589
  H     -2.467210   -1.894278    0.836621
  H      1.365342   -1.317522   -1.840058
  H      2.147438    1.429112    1.836785
  H      1.415092    1.188550   -2.249765
  H     -0.335839    1.684042    1.966510
  H     -2.082519   -1.236060   -1.407425

 Total Charge           Charge          ....    0
 Multiplicity           Mult            ....    1
 Number of Electrons    NEL             ....   96
 Basis Dimension        Dim             ....  192

ORBITAL ENERGIES
----------------

  NO   OCC          E(Eh)            E(eV)
   0   2.0000     -18.784151      -511.1427
   1   2.0000     -18.774742      -510.8867
   2   2.0000     -18.773598      -510.8556
   3   2.0000     -18.754750      -510.3427
   4   2.0000     -18.748922      -510.1841
   5   2.0000     -18.741233      -509.9749
   6   2.0000      -9.990574      -271.8573
   7   2.0000      -9.952639      -270.8251
   8   2.0000      -9.950679      -270.7717
   9   2.0000      -9.942131      -270.5391
  10   2.0000      -9.937758      -270.4202
  11   2.0000      -9.927768      -270.1483
  12   2.0000      -0.991356       -26.9762
  13   2.0000      -0.957974       -26.0678
  14   2.0000      -0.947974       -25.7957
  15   2.0000      -0.932258       -25.3680
  16   2.0000      -0.923522       -25.1303
  17   2.0000      -0.908978       -24.7345
  18   2.0000      -0.701385       -19.0857
  19   2.0000      -0.689649       -18.7663
  20   2.0000      -0.627048       -17.0628
  21   2.0000      -0.583441       -15.8762
  22   2.0000      -0.571201       -15.5432
  23   2.0000      -0.527412       -14.3516
  24   2.0000      -0.508337       -13.8325
  25   2.0000      -0.495330       -13.4786
  26   2.0000      -0.493781       -13.4365
  27   2.0000      -0.462877       -12.5955
  28   2.0000      -0.445215       -12.1149
  29   2.0000      -0.436077       -11.8663
  30   2.0000      -0.415964       -11.3190
  31   2.0000      -0.401392       -10.9224
  32   2.0000      -0.387657       -10.5487
  33   2.0000      -0.372617       -10.1394
  34   2.0000      -0.361520        -9.8375
  35   2.0000      -0.357138        -9.7182
  36   2.0000      -0.343501        -9.3471
  37   2.0000      -0.312952        -8.5159
  38   2.0000      -0.308768        -8.4020
  39   2.0000      -0.304132        -8.2758
  40   2.0000      -0.286343        -7.7918
  41   2.0000      -0.274150        -7.4600
  42   2.0000      -0.264887        -7.2079
  43   2.0000      -0.254043        -6.9129
  44   2.0000      -0.248325        -6.7573
  45   2.0000      -0.218364        -5.9420
  46   2.0000      -0.209773        -5.7082
  47   2.0000      -0.202712        -5.5161
  48   0.0000      -0.003505        -0.0954
  49   0.0000       0.001001         0.0272
  50   0.0000       0.052212         1.4208
  51   0.0000       0.054971         1.4958
  52   0.0000       0.060965         1.6589

MULLIKEN ATOMIC CHARGES
-----------------------
   0 C :    0.089852
   1 C :   -0.036262
   2 H :    0.060860
   3 C :    0.103359
   4 H :    0.080958
   5 C :    0.030449
   6 H :    0.062337
   7 C :   -0.066268
   8 H :    0.073992
   9 C :    0.258216
  10 H :    0.071918
  11 O :   -0.313672
  12 O :   -0.402071
  13 O :   -0.410226
  14 O :   -0.407332
  15 O :   -0.423523
  16 O :   -0.432346
  17 H :    0.093056
  18 H :    0.078252
  19 H :    0.288372
  20 H :    0.309768
  21 H :    0.304022
  22 H :    0.285676
  23 H :    0.300613
Sum of atomic charges:   -0.0000000

LOEWDIN ATOMIC CHARGES
----------------------
   0 C :   -0.121753
   1 C :   -0.082821
   2 H :    0.105667
   3 C :   -0.066825
   4 H :    0.124405
   5 C :   -0.084723
   6 H :    0.099172
   7 C :   -0.106089
   8 H :    0.105179
   9 C :    0.016220
  10 H :    0.101683
  11 O :   -0.149262
  12 O :   -0.301284
  13 O :   -0.310941
  14 O :   -0.310366
  15 O :   -0.311136
  16 O :   -0.327833
  17 H :    0.120124
  18 H :    0.100904
  19 H :    0.271757
  20 H :    0.292164
  21 H :    0.288077
  22 H :    0.267070
  23 H :    0.280611

  Mayer bond orders larger than 0.100000
B(  0-C ,  1-C ) :   1.0521 B(  0-C , 16-O ) :   1.0693 B(  0-C , 17-H ) :   0.9209
B(  0-C , 18-H ) :   0.9091 B(  1-C ,  2-H ) :   0.8718 B(  1-C ,  3-C ) :   0.9903
B(  1-C , 11-O ) :   1.0038 B(  3-C ,  4-H ) :   0.8672 B(  3-C ,  5-C ) :   0.9777
B(  3-C , 15-O ) :   1.0345 B(  5-C ,  6-H ) :   0.8986 B(  5-C ,  7-C ) :   0.9973
B(  5-C , 14-O ) :   1.0403 B(  7-C ,  8-H ) :   0.9037 B(  7-C ,  9-C ) :   0.9393
B(  7-C , 13-O ) :   1.0346 B(  9-C , 10-H ) :   0.9009 B(  9-C , 11-O ) :   1.0325
B(  9-C , 12-O ) :   1.1223 B( 12-O , 19-H ) :   0.8314 B( 13-O , 20-H ) :   0.8403
B( 14-O , 21-H ) :   0.8408 B( 15-O , 22-H ) :   0.8322 B( 16-O , 23-H ) :   0.8391

Dispersion correction           -0.025412026
FINAL SINGLE POINT ENERGY      -685.691399506308

DIPOLE MOMENT
-------------

Method             : SCF
Type of density    : Electron Density
Multiplicity       :   1
Irrep              :   0
Energy             :  -685.8237838032480340 Eh
Relativity type    :
Basis              : AO
                                X                 Y                 Z
Electronic contribution:      1.292986354      -0.689034602      -1.450020959
Nuclear contribution   :      0.096682596       1.385722067       1.625035817
                        -----------------------------------------
Total Dipole Moment    :      1.389668950       0.696687465       0.175014858
                        -----------------------------------------
Magnitude (a.u.)       :      1.564347601
Magnitude (Debye)      :      3.976255603

Rotational constants in cm-1:             0.039078             0.029214             0.023729
Rotational constants in MHz :          1171.530631           875.821745           711.392067

                             ****ORCA TERMINATED NORMALLY****
TOTAL RUN TIME: 0 days 0 hours 0 minutes 9 seconds 601 msec
