                         Program Version 6.0.1  -  RELEASE   -
|  1> ! pbe def2-sv(p) def2/J RI DEFGRID1 loosescf d4 GCP(DFT/SV(P)) printgap
|  2> %output
|  3>     printlevel normal
|  4> end
|  5> * xyz 0 1
|  6> C -2.6269028769 -0.834960454 -0.6379164293
|  7> C -1.6738008834 0.0764318218 0.0985553488
|  8> O -1.9510475963 0.5626973246 1.1651472547
|  9> C -0.3440170908 0.311127737 -0.6029822503
| 10> C 0.3937743572 -1.0336810217 -0.7587435548
| 11> C 1.8879843697 -0.7888051076 -0.9391191493
| 12> C 2.4972369022 -0.2101542197 0.3434837101
| 13> C 1.4759636616 0.636844451 1.1111241674
| 14> C 0.5208260682 1.3332460444 0.1493547127
| 15> H -3.6284935379 -0.7268053736 -0.2296652986
| 16> H -2.6326139627 -0.619347972 -1.702644044
| 17> H -2.3085661027 -1.8666027984 -0.4993009615
| 18> H -0.5722862307 0.7016211938 -1.6009506228
| 19> H 0.241648652 -1.6483439777 0.1308333509
| 20> H -0.0035261974 -1.5791396575 -1.6161275917
| 21> H 2.3882502018 -1.7230030519 -1.2005533676
| 22> H 2.0326739296 -0.0962559746 -1.7705529846
| 23> H 2.8477229212 -1.0198109779 0.9862501602
| 24> H 3.3652004225 0.3988352361 0.0842108145
| 25> H 0.8922196441 0.0098974185 1.786554018
| 26> H 1.9941240879 1.3774952619 1.7219107143
| 27> H -0.1353845256 2.0039288742 0.7065709395
| 28> H 1.0943606991 1.9322871004 -0.5599411921
| 29> *
| 30>
| 31>                          ****END OF INPUT****

CARTESIAN COORDINATES (ANGSTROEM)
---------------------------------
  C     -2.626903   -0.834960   -0.637916
  C     -1.673801    0.076432    0.098555
  O     -1.951048    0.562697    1.165147
  C     -0.344017    0.311128   -0.602982
  C      0.393774   -1.033681   -0.758744
  C      1.887984   -0.788805   -0.939119
  C      2.497237   -0.210154    0.343484
  C      1.475964    0.636844    1.111124
  C      0.520826    1.333246    0.149355
  H     -3.628494   -0.726805   -0.229665
  H     -2.632614   -0.619348   -1.702644
  H     -2.308566   -1.866603   -0.499301
  H     -0.572286    0.701621   -1.600951
  H      0.241649   -1.648344    0.130833
  H     -0.003526   -1.579140   -1.616128
  H      2.388250   -1.723003   -1.200553
  H      2.032674   -0.096256   -1.770553
  H      2.847723   -1.019811    0.986250
  H      3.365200    0.398835    0.084211
  H      0.892220    0.009897    1.786554
  H      1.994124    1.377495    1.721911
  H     -0.135385    2.003929    0.706571
  H      1.094361    1.932287   -0.559941

 Total Charge           Charge          ....    0
 Multiplicity           Mult            ....    1
 Number of Electrons    NEL             ....   70
 Basis Dimension        Dim             ....  154

ORBITAL ENERGIES
----------------

  NO   OCC          E(Eh)            E(eV)
   0   2.0000     -18.738382      -509.8973
   1   2.0000      -9.971156      -271.3289
   2   2.0000      -9.899465      -269.3781
   3   2.0000      -9.896315      -269.2924
   4   2.0000      -9.887281      -269.0466
   5   2.0000      -9.885494      -268.9980
   6   2.0000      -9.881608      -268.8922
   7   2.0000      -9.877823      -268.7892
   8   2.0000      -9.877461      -268.7794
   9   2.0000      -0.940968       -25.6051
  10   2.0000      -0.761288       -20.7157
  11   2.0000      -0.692123       -18.8336
  12   2.0000      -0.665616       -18.1123
  13   2.0000      -0.651571       -17.7301
  14   2.0000      -0.560288       -15.2462
  15   2.0000      -0.554919       -15.1001
  16   2.0000      -0.482580       -13.1317
  17   2.0000      -0.459375       -12.5002
  18   2.0000      -0.444068       -12.0837
  19   2.0000      -0.434158       -11.8141
  20   2.0000      -0.412455       -11.2235
  21   2.0000      -0.391102       -10.6424
  22   2.0000      -0.380587       -10.3563
  23   2.0000      -0.364976        -9.9315
  24   2.0000      -0.354531        -9.6473
  25   2.0000      -0.339922        -9.2498
  26   2.0000      -0.333152        -9.0655
  27   2.0000      -0.325735        -8.8637
  28   2.0000      -0.323800        -8.8110
  29   2.0000      -0.317831        -8.6486
  30   2.0000      -0.305908        -8.3242
  31   2.0000      -0.270250        -7.3539
  32   2.0000      -0.265322        -7.2198
  33   2.0000      -0.261499        -7.1157
  34   2.0000      -0.195009        -5.3065
  35   0.0000      -0.045638        -1.2419
  36   0.0000       0.022757         0.6193
  37   0.0000       0.045694         1.2434
  38   0.0000       0.050186         1.3656
  39   0.0000       0.082599         2.2476

MULLIKEN ATOMIC CHARGES
-----------------------
   0 C :   -0.248788
   1 C :    0.001653
   2 O :   -0.153535
   3 C :   -0.189194
   4 C :   -0.160029
   5 C :   -0.129362
   6 C :   -0.163452
   7 C :   -0.161650
   8 C :   -0.091338
   9 H :    0.118323
  10 H :    0.114090
  11 H :    0.133880
  12 H :    0.084688
  13 H :    0.088675
  14 H :    0.091109
  15 H :    0.087533
  16 H :    0.076586
  17 H :    0.082358
  18 H :    0.082049
  19 H :    0.083572
  20 H :    0.087723
  21 H :    0.094730
  22 H :    0.070378
Sum of atomic charges:    0.0000000

LOEWDIN ATOMIC CHARGES
----------------------
   0 C :   -0.363152
   1 C :    0.047083
   2 O :   -0.119059
   3 C :   -0.172254
   4 C :   -0.213898
   5 C :   -0.226416
   6 C :   -0.229876
   7 C :   -0.227871
   8 C :   -0.222388
   9 H :    0.135153
  10 H :    0.133229
  11 H :    0.146257
  12 H :    0.129857
  13 H :    0.118888
  14 H :    0.118920
  15 H :    0.119176
  16 H :    0.116049
  17 H :    0.116371
  18 H :    0.116404
  19 H :    0.117082
  20 H :    0.119872
  21 H :    0.126041
  22 H :    0.114534

  Mayer bond orders larger than 0.100000
B(  0-C ,  1-C ) :   1.0640 B(  0-C ,  9-H ) :   0.9328 B(  0-C , 10-H ) :   0.9340
B(  0-C , 11-H ) :   0.9191 B(  1-C ,  2-O ) :   2.1995 B(  1-C ,  3-C ) :   0.9224
B(  3-C ,  4-C ) :   1.0825 B(  3-C ,  8-C ) :   1.1075 B(  3-C , 12-H ) :   0.8667
B(  4-C ,  5-C ) :   1.1842 B(  4-C , 13-H ) :   0.9045 B(  4-C , 14-H ) :   0.9088
B(  5-C ,  6-C ) :   1.1419 B(  5-C , 15-H ) :   0.9208 B(  5-C , 16-H ) :   0.9052
B(  6-C ,  7-C ) :   1.1408 B(  6-C , 17-H ) :   0.9219 B(  6-C , 18-H ) :   0.9223
B(  7-C ,  8-C ) :   1.1843 B(  7-C , 19-H ) :   0.9071 B(  7-C , 20-H ) :   0.9218
B(  8-C , 21-H ) :   0.8962 B(  8-C , 22-H ) :   0.9032

Dispersion correction           -0.022245592
FINAL SINGLE POINT ENERGY      -387.601416120092

DIPOLE MOMENT
-------------

Method             : SCF
Type of density    : Electron Density
Multiplicity       :   1
Irrep              :   0
Energy             :  -387.6791619055855449 Eh
Relativity type    :
Basis              : AO
                                X                 Y                 Z
Electronic contribution:     -4.905585514       2.221744244       2.687986090
Nuclear contribution   :      5.201649089      -2.670348139      -3.513419332
                        -----------------------------------------
Total Dipole Moment    :      0.296063575      -0.448603894      -0.825433242
                        -----------------------------------------
Magnitude (a.u.)       :      0.985007173
Magnitude (Debye)      :      2.503689264

Rotational constants in cm-1:             0.098003             0.039668             0.032052
Rotational constants in MHz :          2938.059310          1189.228444           960.893503

                             ****ORCA TERMINATED NORMALLY****
TOTAL RUN TIME: 0 days 0 hours 0 minutes 10 seconds 929 msec
