                         Program Version 6.0.1  -  RELEASE   -
|  1> ! r2scan-3c def2/J RI DEFGRID2 scfconv6 printgap
|  2> %output
|  3>     printlevel normal
|  4> end
|  5> * xyz 0 1
|  6> C 1.5920857255 1.523500161 1.3143884244
|  7> C 0.2567616885 0.7792778685 1.4234165927
|  8> H -0.2064251382 1.1333729245 2.3487858494
|  9> C 0.2561793492 -0.7785628846 1.4239016838
| 10> H -0.2067969043 -1.1318986382 2.3496553892
| 11> C 1.5911637057 -1.5233943395 1.3145582474
| 12> O 2.3069472475 -1.2551380048 0.1428504162
| 13> S 3.4004021199 -0.0005924179 0.2158213812
| 14> O 3.9029320192 -0.000671181 1.5623011439
| 15> O 2.3079003052 1.255028165 0.1427762203
| 16> C -0.7114568082 -1.1150883338 0.2548878069
| 17> C -0.0754724849 -0.6712301573 -1.0483962999
| 18> C -0.0747699728 0.6700895216 -1.0489029231
| 19> C -0.7104637276 1.1155584203 0.2539950846
| 20> C -1.7709790808 0.0007547978 0.4117907308
| 21> Cl -2.984578314 0.0005760932 -0.8724756113
| 22> Cl -2.6083280356 0.0015684247 1.9602228717
| 23> Cl -1.3085496768 2.7600559352 0.2735815295
| 24> Cl 0.4913019655 1.7341065799 -2.2286952058
| 25> Cl 0.4894969244 -1.7367894453 -2.2274004545
| 26> Cl -1.3111269179 -2.7589786641 0.2758592973
| 27> H 2.2188226032 1.2740367762 2.1817265504
| 28> H 1.3877843768 2.598560175 1.3280311372
| 29> H 2.2182211351 -1.2741677859 2.1817609672
| 30> H 1.3864109576 -2.5984035817 1.3282589538
| 31> *
| 32>
| 33>                          ****END OF INPUT****

CARTESIAN COORDINATES (ANGSTROEM)
---------------------------------
  C      1.592086    1.523500    1.314388
  C      0.256762    0.779278    1.423417
  H     -0.206425    1.133373    2.348786
  C      0.256179   -0.778563    1.423902
  H     -0.206797   -1.131899    2.349655
  C      1.591164   -1.523394    1.314558
  O      2.306947   -1.255138    0.142850
  S      3.400402   -0.000592    0.215821
  O      3.902932   -0.000671    1.562301
  O      2.307900    1.255028    0.142776
  C     -0.711457   -1.115088    0.254888
  C     -0.075472   -0.671230   -1.048396
  C     -0.074770    0.670090   -1.048903
  C     -0.710464    1.115558    0.253995
  C     -1.770979    0.000755    0.411791
  Cl    -2.984578    0.000576   -0.872476
  Cl    -2.608328    0.001568    1.960223
  Cl    -1.308550    2.760056    0.273582
  Cl     0.491302    1.734107   -2.228695
  Cl     0.489497   -1.736789   -2.227400
  Cl    -1.311127   -2.758979    0.275859
  H      2.218823    1.274037    2.181727
  H      1.387784    2.598560    1.328031
  H      2.218221   -1.274168    2.181761
  H      1.386411   -2.598404    1.328259

 Total Charge           Charge          ....    0
 Multiplicity           Mult            ....    1
 Number of Electrons    NEL             ....  202
 Basis Dimension        Dim             ....  462

ORBITAL ENERGIES
----------------

  NO   OCC          E(Eh)            E(eV)
   0   2.0000    -101.246106     -2755.0466
   1   2.0000    -101.246101     -2755.0465
   2   2.0000    -101.244618     -2755.0061
   3   2.0000    -101.237877     -2754.8227
   4   2.0000    -101.237868     -2754.8224
   5   2.0000    -101.233901     -2754.7145
   6   2.0000     -88.754466     -2415.1318
   7   2.0000     -19.010979      -517.3150
   8   2.0000     -19.010937      -517.3139
   9   2.0000     -18.976748      -516.3836
  10   2.0000     -10.197691      -277.4933
  11   2.0000     -10.159202      -276.4459
  12   2.0000     -10.159192      -276.4457
  13   2.0000     -10.127624      -275.5867
  14   2.0000     -10.126944      -275.5682
  15   2.0000     -10.116588      -275.2864
  16   2.0000     -10.116573      -275.2859
  17   2.0000     -10.092932      -274.6427
  18   2.0000     -10.092829      -274.6398
  19   2.0000      -9.401662      -255.8322
  20   2.0000      -9.401658      -255.8321
  21   2.0000      -9.400830      -255.8096
  22   2.0000      -9.393799      -255.6183
  23   2.0000      -9.393791      -255.6180
  24   2.0000      -9.389893      -255.5120
  25   2.0000      -8.029930      -218.5055
  26   2.0000      -7.148259      -194.5140
  27   2.0000      -7.148256      -194.5139
  28   2.0000      -7.147467      -194.4925
  29   2.0000      -7.140392      -194.2999
  30   2.0000      -7.140384      -194.2997
  31   2.0000      -7.137818      -194.2299
  32   2.0000      -7.137815      -194.2298
  33   2.0000      -7.137214      -194.2135
  34   2.0000      -7.137210      -194.2134
  35   2.0000      -7.136877      -194.2043
  36   2.0000      -7.136667      -194.1986
  37   2.0000      -7.136578      -194.1962
  38   2.0000      -7.129722      -194.0096
  39   2.0000      -7.129714      -194.0094
  40   2.0000      -7.129533      -194.0045
  41   2.0000      -7.129525      -194.0042
  42   2.0000      -7.125603      -193.8975
  43   2.0000      -7.125443      -193.8932
  44   2.0000      -5.977158      -162.6467
  45   2.0000      -5.976677      -162.6336
  46   2.0000      -5.967346      -162.3797
  47   2.0000      -1.116217       -30.3738
  48   2.0000      -1.032288       -28.0900
  49   2.0000      -1.017507       -27.6878
  50   2.0000      -0.966927       -26.3114
  51   2.0000      -0.886121       -24.1126
  52   2.0000      -0.874841       -23.8056
  53   2.0000      -0.850469       -23.1424
  54   2.0000      -0.836924       -22.7739
  55   2.0000      -0.818024       -22.2596
  56   2.0000      -0.809937       -22.0395
  57   2.0000      -0.775963       -21.1150
  58   2.0000      -0.735377       -20.0106
  59   2.0000      -0.717876       -19.5344
  60   2.0000      -0.669170       -18.2090
  61   2.0000      -0.665651       -18.1133
  62   2.0000      -0.596987       -16.2448
  63   2.0000      -0.585927       -15.9439
  64   2.0000      -0.560959       -15.2645
  65   2.0000      -0.532675       -14.4948
  66   2.0000      -0.524832       -14.2814
  67   2.0000      -0.523585       -14.2475
  68   2.0000      -0.506463       -13.7816
  69   2.0000      -0.497779       -13.5453
  70   2.0000      -0.488354       -13.2888
  71   2.0000      -0.475790       -12.9469
  72   2.0000      -0.448233       -12.1970
  73   2.0000      -0.446102       -12.1391
  74   2.0000      -0.445994       -12.1361
  75   2.0000      -0.434145       -11.8137
  76   2.0000      -0.419349       -11.4111
  77   2.0000      -0.416765       -11.3407
  78   2.0000      -0.410199       -11.1621
  79   2.0000      -0.408756       -11.1228
  80   2.0000      -0.382645       -10.4123
  81   2.0000      -0.375393       -10.2150
  82   2.0000      -0.362788        -9.8720
  83   2.0000      -0.360860        -9.8195
  84   2.0000      -0.343437        -9.3454
  85   2.0000      -0.337087        -9.1726
  86   2.0000      -0.331856        -9.0303
  87   2.0000      -0.322184        -8.7671
  88   2.0000      -0.313845        -8.5402
  89   2.0000      -0.310187        -8.4406
  90   2.0000      -0.308077        -8.3832
  91   2.0000      -0.304561        -8.2875
  92   2.0000      -0.304096        -8.2749
  93   2.0000      -0.298582        -8.1248
  94   2.0000      -0.298532        -8.1235
  95   2.0000      -0.294151        -8.0043
  96   2.0000      -0.289463        -7.8767
  97   2.0000      -0.289381        -7.8745
  98   2.0000      -0.284132        -7.7316
  99   2.0000      -0.269974        -7.3464
 100   2.0000      -0.231978        -6.3124
 101   0.0000      -0.065090        -1.7712
 102   0.0000      -0.064017        -1.7420
 103   0.0000      -0.042237        -1.1493
 104   0.0000      -0.025145        -0.6842
 105   0.0000      -0.018597        -0.5060

MULLIKEN ATOMIC CHARGES
-----------------------
   0 C :   -0.288487
   1 C :   -0.152043
   2 H :    0.223965
   3 C :   -0.152301
   4 H :    0.223941
   5 C :   -0.288505
   6 O :   -0.240223
   7 S :    0.691043
   8 O :   -0.516273
   9 O :   -0.240468
  10 C :    0.213796
  11 C :   -0.091247
  12 C :   -0.091139
  13 C :    0.213603
  14 C :    0.122505
  15 Cl:   -0.065619
  16 Cl:   -0.074629
  17 Cl:   -0.089476
  18 Cl:   -0.031085
  19 Cl:   -0.031109
  20 Cl:   -0.089423
  21 H :    0.200968
  22 H :    0.175611
  23 H :    0.200972
  24 H :    0.175625
Sum of atomic charges:    0.0000000

LOEWDIN ATOMIC CHARGES
----------------------
   0 C :    0.024063
   1 C :   -0.177032
   2 H :    0.194261
   3 C :   -0.177017
   4 H :    0.194258
   5 C :    0.024092
   6 O :   -0.698202
   7 S :    1.117243
   8 O :   -0.577358
   9 O :   -0.698162
  10 C :   -0.227951
  11 C :   -0.231712
  12 C :   -0.231751
  13 C :   -0.227895
  14 C :   -0.292470
  15 Cl:    0.174213
  16 Cl:    0.168070
  17 Cl:    0.171014
  18 Cl:    0.246286
  19 Cl:    0.246248
  20 Cl:    0.171025
  21 H :    0.204095
  22 H :    0.200286
  23 H :    0.204118
  24 H :    0.200279

  Mayer bond orders larger than 0.100000
B(  0-C ,  1-C ) :   0.8623 B(  0-C ,  9-O ) :   0.8913 B(  0-C , 21-H ) :   0.9656
B(  0-C , 22-H ) :   0.9487 B(  1-C ,  2-H ) :   0.9307 B(  1-C ,  3-C ) :   0.9065
B(  1-C , 13-C ) :   0.9681 B(  3-C ,  4-H ) :   0.9307 B(  3-C ,  5-C ) :   0.8624
B(  3-C , 10-C ) :   0.9684 B(  5-C ,  6-O ) :   0.8911 B(  5-C , 23-H ) :   0.9655
B(  5-C , 24-H ) :   0.9488 B(  6-O ,  7-S ) :   0.8360 B(  7-S ,  8-O ) :   1.6408
B(  7-S ,  9-O ) :   0.8359 B( 10-C , 11-C ) :   0.9830 B( 10-C , 14-C ) :   0.8599
B( 10-C , 20-Cl) :   0.9993 B( 11-C , 12-C ) :   1.6074 B( 11-C , 19-Cl) :   1.0882
B( 12-C , 13-C ) :   0.9830 B( 12-C , 18-Cl) :   1.0884 B( 13-C , 14-C ) :   0.8598
B( 13-C , 17-Cl) :   0.9994 B( 14-C , 15-Cl) :   1.0636 B( 14-C , 16-Cl) :   1.0148

Dispersion correction           -0.019484618
FINAL SINGLE POINT ENERGY     -3731.290666106368

DIPOLE MOMENT
-------------

Method             : SCF
Type of density    : Electron Density
Multiplicity       :   1
Irrep              :   0
Energy             : -3731.3019724714022232 Eh
Relativity type    :
Basis              : AO
                                X                 Y                 Z
Electronic contribution:    -15.748330157      -0.000952020     -14.025489388
Nuclear contribution   :     16.111810367       0.000689397      14.798399547
                        -----------------------------------------
Total Dipole Moment    :      0.363480210      -0.000262623       0.772910159
                        -----------------------------------------
Magnitude (a.u.)       :      0.854112432
Magnitude (Debye)      :      2.170981271

Rotational constants in cm-1:             0.010275             0.007288             0.006634
Rotational constants in MHz :           308.041500           218.496220           198.878796

                             ****ORCA TERMINATED NORMALLY****
TOTAL RUN TIME: 0 days 0 hours 1 minutes 11 seconds 419 msec
