                         Program Version 6.0.1  -  RELEASE   -
|  1> ! pbe def2-sv(p) def2/J RI DEFGRID1 loosescf d4 GCP(DFT/SV(P)) printgap
|  2> %output
|  3>     printlevel normal
|  4> end
|  5> * xyz 0 1
|  6> C -2.6377153893 -1.380031123 -0.4551511349
|  7> C -1.9427523288 -0.2345246292 0.2733737352
|  8> C -0.4456719145 -0.2162578501 0.1186651025
|  9> C 0.3150003388 -1.3672872332 -0.0098211699
| 10> C 1.6929084453 -1.3143291412 -0.1425014423
| 11> C 2.3374510291 -0.0921849774 -0.1485664802
| 12> C 1.600293503 1.0710371926 -0.0167180019
| 13> C 0.2205257759 1.0153929942 0.1198558324
| 14> O -0.5212753078 2.1548125011 0.2566497436
| 15> H -2.3291265718 -1.4109487392 -1.4977565259
| 16> H -3.7157029975 -1.2391376473 -0.4186308749
| 17> H -2.4105107728 -2.3394046546 0.0027856422
| 18> H -2.1831310695 -0.2850353978 1.3402739767
| 19> H -2.3287018749 0.7175011076 -0.0955253037
| 20> H -0.1745539811 -2.3284376781 -0.0063904678
| 21> H 2.2597500839 -2.2278032703 -0.2414445339
| 22> H 3.4106716048 -0.0378788473 -0.2540325713
| 23> H 2.0964566625 2.0336850619 -0.0187929834
| 24> H 0.063883752 2.9208236031 0.2241304698
| 25> *
| 26>
| 27>                          ****END OF INPUT****

CARTESIAN COORDINATES (ANGSTROEM)
---------------------------------
  C     -2.637715   -1.380031   -0.455151
  C     -1.942752   -0.234525    0.273374
  C     -0.445672   -0.216258    0.118665
  C      0.315000   -1.367287   -0.009821
  C      1.692908   -1.314329   -0.142501
  C      2.337451   -0.092185   -0.148566
  C      1.600294    1.071037   -0.016718
  C      0.220526    1.015393    0.119856
  O     -0.521275    2.154813    0.256650
  H     -2.329127   -1.410949   -1.497757
  H     -3.715703   -1.239138   -0.418631
  H     -2.410511   -2.339405    0.002786
  H     -2.183131   -0.285035    1.340274
  H     -2.328702    0.717501   -0.095525
  H     -0.174554   -2.328438   -0.006390
  H      2.259750   -2.227803   -0.241445
  H      3.410672   -0.037879   -0.254033
  H      2.096457    2.033685   -0.018793
  H      0.063884    2.920824    0.224130

 Total Charge           Charge          ....    0
 Multiplicity           Mult            ....    1
 Number of Electrons    NEL             ....   66
 Basis Dimension        Dim             ....  146

ORBITAL ENERGIES
----------------

  NO   OCC          E(Eh)            E(eV)
   0   2.0000     -18.779911      -511.0274
   1   2.0000      -9.946253      -270.6513
   2   2.0000      -9.892364      -269.1849
   3   2.0000      -9.888363      -269.0760
   4   2.0000      -9.887948      -269.0647
   5   2.0000      -9.885508      -268.9983
   6   2.0000      -9.883256      -268.9371
   7   2.0000      -9.880984      -268.8753
   8   2.0000      -9.873559      -268.6732
   9   2.0000      -0.962024       -26.1780
  10   2.0000      -0.770509       -20.9666
  11   2.0000      -0.706544       -19.2260
  12   2.0000      -0.659218       -17.9382
  13   2.0000      -0.645636       -17.5686
  14   2.0000      -0.572289       -15.5728
  15   2.0000      -0.552132       -15.0243
  16   2.0000      -0.510892       -13.9021
  17   2.0000      -0.488466       -13.2918
  18   2.0000      -0.437724       -11.9111
  19   2.0000      -0.417731       -11.3670
  20   2.0000      -0.396669       -10.7939
  21   2.0000      -0.383751       -10.4424
  22   2.0000      -0.380578       -10.3560
  23   2.0000      -0.357520        -9.7286
  24   2.0000      -0.340639        -9.2693
  25   2.0000      -0.330514        -8.9937
  26   2.0000      -0.322162        -8.7665
  27   2.0000      -0.308837        -8.4039
  28   2.0000      -0.292865        -7.9693
  29   2.0000      -0.289240        -7.8706
  30   2.0000      -0.281150        -7.6505
  31   2.0000      -0.219226        -5.9654
  32   2.0000      -0.190293        -5.1781
  33   0.0000      -0.029172        -0.7938
  34   0.0000      -0.014396        -0.3917
  35   0.0000       0.023499         0.6394
  36   0.0000       0.048246         1.3128
  37   0.0000       0.056137         1.5276

MULLIKEN ATOMIC CHARGES
-----------------------
   0 C :   -0.289492
   1 C :   -0.122112
   2 C :   -0.005656
   3 C :   -0.152460
   4 C :   -0.040240
   5 C :   -0.052985
   6 C :   -0.161951
   7 C :    0.176475
   8 O :   -0.337920
   9 H :    0.107838
  10 H :    0.102208
  11 H :    0.109507
  12 H :    0.102426
  13 H :    0.098802
  14 H :    0.036008
  15 H :    0.043783
  16 H :    0.049059
  17 H :    0.021350
  18 H :    0.315360
Sum of atomic charges:   -0.0000000

LOEWDIN ATOMIC CHARGES
----------------------
   0 C :   -0.338135
   1 C :   -0.220286
   2 C :   -0.064508
   3 C :   -0.118097
   4 C :   -0.146226
   5 C :   -0.123134
   6 C :   -0.176119
   7 C :    0.025248
   8 O :   -0.236250
   9 H :    0.121167
  10 H :    0.120810
  11 H :    0.116384
  12 H :    0.130578
  13 H :    0.127310
  14 H :    0.122894
  15 H :    0.120997
  16 H :    0.122631
  17 H :    0.117839
  18 H :    0.296897

  Mayer bond orders larger than 0.100000
B(  0-C ,  1-C ) :   1.1646 B(  0-C ,  9-H ) :   0.9580 B(  0-C , 10-H ) :   0.9502
B(  0-C , 11-H ) :   0.9413 B(  1-C ,  2-C ) :   1.0789 B(  1-C , 12-H ) :   0.8988
B(  1-C , 13-H ) :   0.9044 B(  2-C ,  3-C ) :   1.4124 B(  2-C ,  7-C ) :   1.3853
B(  3-C ,  4-C ) :   1.3425 B(  3-C , 14-H ) :   0.9620 B(  4-C ,  5-C ) :   1.3771
B(  4-C , 15-H ) :   0.9659 B(  5-C ,  6-C ) :   1.3597 B(  5-C , 16-H ) :   0.9634
B(  6-C ,  7-C ) :   1.3328 B(  6-C , 17-H ) :   0.9540 B(  7-C ,  8-O ) :   1.1932
B(  8-O , 18-H ) :   0.8417

Dispersion correction           -0.018934738
FINAL SINGLE POINT ENERGY      -385.234292101474

DIPOLE MOMENT
-------------

Method             : SCF
Type of density    : Electron Density
Multiplicity       :   1
Irrep              :   0
Energy             :  -385.2944053130106568 Eh
Relativity type    :
Basis              : AO
                                X                 Y                 Z
Electronic contribution:      5.205470815       4.318164952       0.907940645
Nuclear contribution   :     -4.990306749      -3.905218618      -0.901888734
                        -----------------------------------------
Total Dipole Moment    :      0.215164066       0.412946333       0.006051911
                        -----------------------------------------
Magnitude (a.u.)       :      0.465678940
Magnitude (Debye)      :      1.183661799

Rotational constants in cm-1:             0.083455             0.049495             0.031896
Rotational constants in MHz :          2501.929729          1483.819304           956.220053

                             ****ORCA TERMINATED NORMALLY****
TOTAL RUN TIME: 0 days 0 hours 0 minutes 8 seconds 564 msec
