                         Program Version 6.0.1  -  RELEASE   -
|  1> ! r2scan-3c def2/J RI DEFGRID2 scfconv6 printgap
|  2> %output
|  3>     printlevel normal
|  4> end
|  5> * xyz 0 1
|  6> C 0.1685115268 0.6547882063 -0.5104095124
|  7> H 0.2042801462 0.7403766437 -1.6030367319
|  8> C 1.3332594607 -0.212584313 -0.0143978362
|  9> F 1.3309614182 -0.373099722 1.3026710961
| 10> F 2.5036619711 0.3327315339 -0.3565773921
| 11> F 1.2810099797 -1.4214713864 -0.577477883
| 12> F 0.2517156051 1.8821738576 0.031389707
| 13> Br -1.5044892376 -0.1757510941 0.0040010108
| 14> *
| 15>
| 16>                          ****END OF INPUT****

CARTESIAN COORDINATES (ANGSTROEM)
---------------------------------
  C      0.168512    0.654788   -0.510410
  H      0.204280    0.740377   -1.603037
  C      1.333259   -0.212584   -0.014398
  F      1.330961   -0.373100    1.302671
  F      2.503662    0.332732   -0.356577
  F      1.281010   -1.421471   -0.577478
  F      0.251716    1.882174    0.031390
  Br    -1.504489   -0.175751    0.004001

 Total Charge           Charge          ....    0
 Multiplicity           Mult            ....    1
 Number of Electrons    NEL             ....   84
 Basis Dimension        Dim             ....  175

ORBITAL ENERGIES
----------------

  NO   OCC          E(Eh)            E(eV)
   0   2.0000    -482.253056    -13122.7728
   1   2.0000     -62.324741     -1695.9424
   2   2.0000     -56.105306     -1526.7030
   3   2.0000     -56.102468     -1526.6258
   4   2.0000     -56.102402     -1526.6240
   5   2.0000     -24.542979      -667.8484
   6   2.0000     -24.541784      -667.8159
   7   2.0000     -24.541672      -667.8128
   8   2.0000     -24.536561      -667.6738
   9   2.0000     -10.309934      -280.5476
  10   2.0000     -10.213378      -277.9202
  11   2.0000      -8.656488      -235.5550
  12   2.0000      -6.464798      -175.9161
  13   2.0000      -6.450058      -175.5150
  14   2.0000      -6.449610      -175.5028
  15   2.0000      -2.562177       -69.7204
  16   2.0000      -2.558602       -69.6231
  17   2.0000      -2.558262       -69.6139
  18   2.0000      -2.547289       -69.3153
  19   2.0000      -2.547276       -69.3149
  20   2.0000      -1.305530       -35.5253
  21   2.0000      -1.231583       -33.5131
  22   2.0000      -1.214068       -33.0365
  23   2.0000      -1.212373       -32.9904
  24   2.0000      -0.817487       -22.2450
  25   2.0000      -0.729980       -19.8638
  26   2.0000      -0.652047       -17.7431
  27   2.0000      -0.587152       -15.9772
  28   2.0000      -0.583625       -15.8812
  29   2.0000      -0.572033       -15.5658
  30   2.0000      -0.524123       -14.2621
  31   2.0000      -0.484153       -13.1745
  32   2.0000      -0.451340       -12.2816
  33   2.0000      -0.448861       -12.2141
  34   2.0000      -0.437063       -11.8931
  35   2.0000      -0.412340       -11.2204
  36   2.0000      -0.411206       -11.1895
  37   2.0000      -0.390130       -10.6160
  38   2.0000      -0.365412        -9.9434
  39   2.0000      -0.356851        -9.7104
  40   2.0000      -0.293373        -7.9831
  41   2.0000      -0.286837        -7.8052
  42   0.0000      -0.062111        -1.6901
  43   0.0000       0.018561         0.5051
  44   0.0000       0.074980         2.0403
  45   0.0000       0.118864         3.2345
  46   0.0000       0.121998         3.3197

MULLIKEN ATOMIC CHARGES
-----------------------
   0 C :    0.104254
   1 H :    0.180141
   2 C :    0.536196
   3 F :   -0.186215
   4 F :   -0.191594
   5 F :   -0.196014
   6 F :   -0.175254
   7 Br:   -0.071514
Sum of atomic charges:    0.0000000

LOEWDIN ATOMIC CHARGES
----------------------
   0 C :    0.008268
   1 H :    0.186374
   2 C :    0.470384
   3 F :   -0.186327
   4 F :   -0.191940
   5 F :   -0.200595
   6 F :   -0.299050
   7 Br:    0.212885

  Mayer bond orders larger than 0.100000
B(  0-C ,  1-H ) :   0.9298 B(  0-C ,  2-C ) :   0.9637 B(  0-C ,  6-F ) :   0.9224
B(  0-C ,  7-Br) :   1.0711 B(  2-C ,  3-F ) :   1.0475 B(  2-C ,  4-F ) :   1.0252
B(  2-C ,  5-F ) :   1.0242

Dispersion correction           -0.001903630
FINAL SINGLE POINT ENERGY     -3050.310566737509

DIPOLE MOMENT
-------------

Method             : SCF
Type of density    : Electron Density
Multiplicity       :   1
Irrep              :   0
Energy             : -3050.3194851689340794 Eh
Relativity type    :
Basis              : AO
                                X                 Y                 Z
Electronic contribution:     -9.309623869      -1.848389712       1.404575002
Nuclear contribution   :      9.188069126       1.937040242      -1.911721697
                        -----------------------------------------
Total Dipole Moment    :     -0.121554744       0.088650530      -0.507146695
                        -----------------------------------------
Magnitude (a.u.)       :      0.528991722
Magnitude (Debye)      :      1.344590102

Rotational constants in cm-1:             0.101625             0.038803             0.033259
Rotational constants in MHz :          3046.632485          1163.297900           997.088725

                             ****ORCA TERMINATED NORMALLY****
TOTAL RUN TIME: 0 days 0 hours 0 minutes 23 seconds 424 msec
