                         Program Version 6.0.1  -  RELEASE   -
|  1> ! pbe def2-sv(p) def2/J RI DEFGRID1 loosescf d4 GCP(DFT/SV(P)) printgap
|  2> %output
|  3>     printlevel normal
|  4> end
|  5> * xyz 0 1
|  6> C -0.6289715362 -0.3994014999 0.4432067195
|  7> C 0.6314564388 -0.4149451554 -0.4249675005
|  8> O 1.6189235594 0.3740243733 0.2016680024
|  9> O -1.6211926198 0.3546317195 -0.2180207372
| 10> H -0.3637972136 0.0530819996 1.406248768
| 11> H -0.9865946752 -1.4235732289 0.6176067048
| 12> H 0.3633921931 -0.0075115693 -1.4072740225
| 13> H 0.9953408182 -1.4437430375 -0.5537239982
| 14> H 2.3667706356 0.4772490243 -0.395523465
| 15> H -2.3687049324 0.4822658221 0.3748950888
| 16> *
| 17>
| 18>                          ****END OF INPUT****

CARTESIAN COORDINATES (ANGSTROEM)
---------------------------------
  C     -0.628972   -0.399401    0.443207
  C      0.631456   -0.414945   -0.424968
  O      1.618924    0.374024    0.201668
  O     -1.621193    0.354632   -0.218021
  H     -0.363797    0.053082    1.406249
  H     -0.986595   -1.423573    0.617607
  H      0.363392   -0.007512   -1.407274
  H      0.995341   -1.443743   -0.553724
  H      2.366771    0.477249   -0.395523
  H     -2.368705    0.482266    0.374895

 Total Charge           Charge          ....    0
 Multiplicity           Mult            ....    1
 Number of Electrons    NEL             ....   34
 Basis Dimension        Dim             ....   68

ORBITAL ENERGIES
----------------

  NO   OCC          E(Eh)            E(eV)
   0   2.0000     -18.738644      -509.9044
   1   2.0000     -18.738593      -509.9031
   2   2.0000      -9.925883      -270.0970
   3   2.0000      -9.925805      -270.0949
   4   2.0000      -0.922567       -25.1043
   5   2.0000      -0.909448       -24.7473
   6   2.0000      -0.657919       -17.9029
   7   2.0000      -0.537610       -14.6291
   8   2.0000      -0.477708       -12.9991
   9   2.0000      -0.456343       -12.4177
  10   2.0000      -0.384756       -10.4697
  11   2.0000      -0.365541        -9.9469
  12   2.0000      -0.358015        -9.7421
  13   2.0000      -0.292213        -7.9515
  14   2.0000      -0.267028        -7.2662
  15   2.0000      -0.212503        -5.7825
  16   2.0000      -0.206110        -5.6085
  17   0.0000       0.032620         0.8876
  18   0.0000       0.033091         0.9005
  19   0.0000       0.081709         2.2234
  20   0.0000       0.104458         2.8425
  21   0.0000       0.108788         2.9603

MULLIKEN ATOMIC CHARGES
-----------------------
   0 C :   -0.007138
   1 C :   -0.007195
   2 O :   -0.444064
   3 O :   -0.444085
   4 H :    0.088710
   5 H :    0.066997
   6 H :    0.088683
   7 H :    0.066981
   8 H :    0.295557
   9 H :    0.295555
Sum of atomic charges:    0.0000000

LOEWDIN ATOMIC CHARGES
----------------------
   0 C :   -0.132981
   1 C :   -0.132960
   2 O :   -0.349036
   3 O :   -0.349052
   4 H :    0.105490
   5 H :    0.093585
   6 H :    0.105455
   7 H :    0.093559
   8 H :    0.282969
   9 H :    0.282972

  Mayer bond orders larger than 0.100000
B(  0-C ,  1-C ) :   1.0960 B(  0-C ,  3-O ) :   1.0827 B(  0-C ,  4-H ) :   0.9267
B(  0-C ,  5-H ) :   0.9236 B(  1-C ,  2-O ) :   1.0828 B(  1-C ,  6-H ) :   0.9266
B(  1-C ,  7-H ) :   0.9236 B(  2-O ,  8-H ) :   0.8545 B(  3-O ,  9-H ) :   0.8545

Dispersion correction           -0.004699286
FINAL SINGLE POINT ENERGY      -229.717450416456

DIPOLE MOMENT
-------------

Method             : SCF
Type of density    : Electron Density
Multiplicity       :   1
Irrep              :   0
Energy             :  -229.7680796314212728 Eh
Relativity type    :
Basis              : AO
                                X                 Y                 Z
Electronic contribution:     -0.004273105       1.416013575      -0.031468665
Nuclear contribution   :      0.005977034      -1.736281334       0.039375496
                        -----------------------------------------
Total Dipole Moment    :      0.001703929      -0.320267759       0.007906832
                        -----------------------------------------
Magnitude (a.u.)       :      0.320369879
Magnitude (Debye)      :      0.814315517

Rotational constants in cm-1:             0.709328             0.142870             0.140577
Rotational constants in MHz :         21265.131496          4283.130216          4214.390653

                             ****ORCA TERMINATED NORMALLY****
TOTAL RUN TIME: 0 days 0 hours 0 minutes 5 seconds 795 msec
