                         Program Version 6.0.1  -  RELEASE   -
|  1> ! r2scan-3c def2/J RI DEFGRID2 scfconv6 printgap
|  2> %output
|  3>     printlevel normal
|  4> end
|  5> * xyz 0 1
|  6> C -2.5096734952 -0.9784715032 0.4125651664
|  7> C -1.0807588077 -0.4667056273 0.6430651425
|  8> H -0.9048211739 -0.3488218781 1.7245314993
|  9> C -0.8233897064 0.8778654516 -0.0585098487
| 10> H -0.9625579235 0.7419756314 -1.141064933
| 11> C 0.6273491619 1.2840737673 0.2066594139
| 12> H 0.7506520212 1.4345708428 1.2923903778
| 13> C 1.5910159249 0.1824849647 -0.2521372651
| 14> H 1.571510156 0.1263678235 -1.3506123422
| 15> C 1.1655933706 -1.1848614724 0.3011469819
| 16> H 1.3905129862 -1.198861899 1.3877088963
| 17> O -0.2114681841 -1.444750844 0.1110549908
| 18> O 1.8599968538 -2.1614649511 -0.3782168536
| 19> O 2.8855275096 0.4433057356 0.2121286783
| 20> O 0.9703613786 2.4627326251 -0.4798088589
| 21> O -1.6476683417 1.9146118664 0.4205906252
| 22> O -2.8462116417 -1.0034434217 -0.9468404853
| 23> H -3.2274456981 -0.3183274698 0.9044781893
| 24> H -2.5904965511 -1.9793464227 0.8566112043
| 25> H 1.5470957307 -3.0267305164 -0.0876396809
| 26> H 3.1267467141 1.3240216127 -0.1022141642
| 27> H 0.2728139972 3.1065057186 -0.3044706519
| 28> H -2.5510350004 1.744749487 0.13156541
| 29> H -2.1915075993 -1.5517471177 -1.3968299654
| 30> *
| 31>
| 32>                          ****END OF INPUT****

CARTESIAN COORDINATES (ANGSTROEM)
---------------------------------
  C     -2.509673   -0.978472    0.412565
  C     -1.080759   -0.466706    0.643065
  H     -0.904821   -0.348822    1.724531
  C     -0.823390    0.877865   -0.058510
  H     -0.962558    0.741976   -1.141065
  C      0.627349    1.284074    0.206659
  H      0.750652    1.434571    1.292390
  C      1.591016    0.182485   -0.252137
  H      1.571510    0.126368   -1.350612
  C      1.165593   -1.184861    0.301147
  H      1.390513   -1.198862    1.387709
  O     -0.211468   -1.444751    0.111055
  O      1.859997   -2.161465   -0.378217
  O      2.885528    0.443306    0.212129
  O      0.970361    2.462733   -0.479809
  O     -1.647668    1.914612    0.420591
  O     -2.846212   -1.003443   -0.946840
  H     -3.227446   -0.318327    0.904478
  H     -2.590497   -1.979346    0.856611
  H      1.547096   -3.026731   -0.087640
  H      3.126747    1.324022   -0.102214
  H      0.272814    3.106506   -0.304471
  H     -2.551035    1.744749    0.131565
  H     -2.191508   -1.551747   -1.396830

 Total Charge           Charge          ....    0
 Multiplicity           Mult            ....    1
 Number of Electrons    NEL             ....   96
 Basis Dimension        Dim             ....  318

ORBITAL ENERGIES
----------------

  NO   OCC          E(Eh)            E(eV)
   0   2.0000     -18.978675      -516.4360
   1   2.0000     -18.974767      -516.3297
   2   2.0000     -18.967885      -516.1424
   3   2.0000     -18.964291      -516.0446
   4   2.0000     -18.960950      -515.9537
   5   2.0000     -18.953869      -515.7610
   6   2.0000     -10.143831      -276.0277
   7   2.0000     -10.099904      -274.8323
   8   2.0000     -10.094284      -274.6794
   9   2.0000     -10.093969      -274.6709
  10   2.0000     -10.091802      -274.6119
  11   2.0000     -10.090182      -274.5678
  12   2.0000      -1.057840       -28.7853
  13   2.0000      -1.021609       -27.7994
  14   2.0000      -1.010469       -27.4962
  15   2.0000      -1.002189       -27.2709
  16   2.0000      -0.988788       -26.9063
  17   2.0000      -0.984390       -26.7866
  18   2.0000      -0.755964       -20.5708
  19   2.0000      -0.740986       -20.1633
  20   2.0000      -0.670964       -18.2579
  21   2.0000      -0.617088       -16.7918
  22   2.0000      -0.600484       -16.3400
  23   2.0000      -0.556265       -15.1367
  24   2.0000      -0.526814       -14.3353
  25   2.0000      -0.521400       -14.1880
  26   2.0000      -0.497285       -13.5318
  27   2.0000      -0.490948       -13.3594
  28   2.0000      -0.480043       -13.0626
  29   2.0000      -0.466915       -12.7054
  30   2.0000      -0.440615       -11.9897
  31   2.0000      -0.421699       -11.4750
  32   2.0000      -0.408906       -11.1269
  33   2.0000      -0.408286       -11.1100
  34   2.0000      -0.389447       -10.5974
  35   2.0000      -0.383086       -10.4243
  36   2.0000      -0.358650        -9.7594
  37   2.0000      -0.343980        -9.3602
  38   2.0000      -0.335305        -9.1241
  39   2.0000      -0.321860        -8.7583
  40   2.0000      -0.307323        -8.3627
  41   2.0000      -0.304747        -8.2926
  42   2.0000      -0.281775        -7.6675
  43   2.0000      -0.267733        -7.2854
  44   2.0000      -0.254504        -6.9254
  45   2.0000      -0.251991        -6.8570
  46   2.0000      -0.241620        -6.5748
  47   2.0000      -0.234290        -6.3754
  48   0.0000       0.030781         0.8376
  49   0.0000       0.038765         1.0549
  50   0.0000       0.058103         1.5811
  51   0.0000       0.072209         1.9649
  52   0.0000       0.086018         2.3407

MULLIKEN ATOMIC CHARGES
-----------------------
   0 C :   -0.248989
   1 C :    0.025857
   2 H :    0.169591
   3 C :   -0.083441
   4 H :    0.190218
   5 C :   -0.016947
   6 H :    0.168865
   7 C :    0.045787
   8 H :    0.173174
   9 C :   -0.107782
  10 H :    0.146814
  11 O :   -0.207740
  12 O :   -0.376427
  13 O :   -0.422353
  14 O :   -0.443857
  15 O :   -0.448019
  16 O :   -0.422274
  17 H :    0.143434
  18 H :    0.145657
  19 H :    0.306143
  20 H :    0.314474
  21 H :    0.313939
  22 H :    0.316059
  23 H :    0.317818
Sum of atomic charges:    0.0000000

LOEWDIN ATOMIC CHARGES
----------------------
   0 C :    0.036371
   1 C :    0.103518
   2 H :    0.185653
   3 C :    0.103859
   4 H :    0.191328
   5 C :    0.108332
   6 H :    0.185646
   7 C :    0.127968
   8 H :    0.192529
   9 C :    0.310314
  10 H :    0.183293
  11 O :   -0.695420
  12 O :   -0.477902
  13 O :   -0.554303
  14 O :   -0.573522
  15 O :   -0.579259
  16 O :   -0.595992
  17 H :    0.180509
  18 H :    0.172994
  19 H :    0.279575
  20 H :    0.281317
  21 H :    0.281902
  22 H :    0.276442
  23 H :    0.274847

  Mayer bond orders larger than 0.100000
B(  0-C ,  1-C ) :   0.9103 B(  0-C , 16-O ) :   1.0038 B(  0-C , 17-H ) :   0.9799
B(  0-C , 18-H ) :   0.9799 B(  1-C ,  2-H ) :   0.9317 B(  1-C ,  3-C ) :   0.7505
B(  1-C , 11-O ) :   0.7657 B(  1-C , 16-O ) :  -0.1058 B(  3-C ,  4-H ) :   1.0311
B(  3-C ,  5-C ) :   0.8147 B(  3-C , 15-O ) :   0.8986 B(  5-C ,  6-H ) :   0.9776
B(  5-C ,  7-C ) :   0.8701 B(  5-C , 14-O ) :   0.9001 B(  7-C ,  8-H ) :   0.9628
B(  7-C ,  9-C ) :   0.8718 B(  7-C , 13-O ) :   0.8961 B(  9-C , 10-H ) :   1.0205
B(  9-C , 11-O ) :   0.9300 B(  9-C , 12-O ) :   1.0856 B( 12-O , 19-H ) :   0.8826
B( 13-O , 20-H ) :   0.8800 B( 14-O , 21-H ) :   0.8748 B( 15-O , 22-H ) :   0.8854
B( 16-O , 23-H ) :   0.8743

Dispersion correction           -0.008071555
FINAL SINGLE POINT ENERGY      -687.076980887531

DIPOLE MOMENT
-------------

Method             : SCF
Type of density    : Electron Density
Multiplicity       :   1
Irrep              :   0
Energy             :  -687.0883925428693146 Eh
Relativity type    :
Basis              : AO
                                X                 Y                 Z
Electronic contribution:      2.704734893      -0.220498302      -1.344282452
Nuclear contribution   :     -3.520553831       0.054120723       1.780363848
                        -----------------------------------------
Total Dipole Moment    :     -0.815818938      -0.166377579       0.436081396
                        -----------------------------------------
Magnitude (a.u.)       :      0.939898410
Magnitude (Debye)      :      2.389031900

Rotational constants in cm-1:             0.039914             0.027029             0.017695
Rotational constants in MHz :          1196.581918           810.306773           530.491942

                             ****ORCA TERMINATED NORMALLY****
TOTAL RUN TIME: 0 days 0 hours 0 minutes 36 seconds 764 msec
