                         Program Version 6.0.1  -  RELEASE   -
|  1> ! r2scan-3c def2/J RI DEFGRID2 scfconv6 printgap
|  2> %output
|  3>     printlevel normal
|  4> end
|  5> * xyz 0 1
|  6> C -1.3988410804 -0.5831944751 -2.74922e-05
|  7> S 0.0018775252 0.5866015735 -3.58673e-05
|  8> C 1.3935146027 -0.5806232049 -3.11182e-05
|  9> H -1.9880201049 -0.424945031 -0.8982115493
| 10> H -2.0078930626 -0.3976840328 0.8794586622
| 11> H -1.0106901403 -1.594721141 0.0202060817
| 12> H 1.3560166047 -1.1942767121 0.8957116477
| 13> H 2.2986548598 0.0174147399 -0.0006309207
| 14> H 1.3556850599 -1.1957791838 -0.8946945786
| 15> *
| 16>
| 17>                          ****END OF INPUT****

CARTESIAN COORDINATES (ANGSTROEM)
---------------------------------
  C     -1.398841   -0.583194   -0.000027
  S      0.001878    0.586602   -0.000036
  C      1.393515   -0.580623   -0.000031
  H     -1.988020   -0.424945   -0.898212
  H     -2.007893   -0.397684    0.879459
  H     -1.010690   -1.594721    0.020206
  H      1.356017   -1.194277    0.895712
  H      2.298655    0.017415   -0.000631
  H      1.355685   -1.195779   -0.894695

 Total Charge           Charge          ....    0
 Multiplicity           Mult            ....    1
 Number of Electrons    NEL             ....   34
 Basis Dimension        Dim             ....   95

ORBITAL ENERGIES
----------------

  NO   OCC          E(Eh)            E(eV)
   0   2.0000     -88.545618     -2409.4488
   1   2.0000     -10.054826      -273.6057
   2   2.0000     -10.053641      -273.5735
   3   2.0000      -7.839370      -213.3201
   4   2.0000      -5.787176      -157.4771
   5   2.0000      -5.783111      -157.3664
   6   2.0000      -5.775645      -157.1633
   7   2.0000      -0.759873       -20.6772
   8   2.0000      -0.674004       -18.3406
   9   2.0000      -0.562000       -15.2928
  10   2.0000      -0.416519       -11.3340
  11   2.0000      -0.406644       -11.0653
  12   2.0000      -0.393452       -10.7064
  13   2.0000      -0.382161       -10.3991
  14   2.0000      -0.337624        -9.1872
  15   2.0000      -0.283407        -7.7119
  16   2.0000      -0.188081        -5.1179
  17   0.0000       0.020299         0.5524
  18   0.0000       0.048653         1.3239
  19   0.0000       0.090174         2.4538
  20   0.0000       0.144704         3.9376
  21   0.0000       0.151302         4.1171

MULLIKEN ATOMIC CHARGES
-----------------------
   0 C :   -0.411717
   1 S :   -0.123896
   2 C :   -0.417608
   3 H :    0.164820
   4 H :    0.164527
   5 H :    0.152488
   6 H :    0.158219
   7 H :    0.154886
   8 H :    0.158281
Sum of atomic charges:   -0.0000000

LOEWDIN ATOMIC CHARGES
----------------------
   0 C :   -0.463292
   1 S :   -0.020374
   2 C :   -0.467482
   3 H :    0.157904
   4 H :    0.158356
   5 H :    0.162577
   6 H :    0.152905
   7 H :    0.166481
   8 H :    0.152924

  Mayer bond orders larger than 0.100000
B(  0-C ,  1-S ) :   0.9526 B(  0-C ,  3-H ) :   0.9557 B(  0-C ,  4-H ) :   0.9559
B(  0-C ,  5-H ) :   0.9587 B(  1-S ,  2-C ) :   0.9767 B(  2-C ,  6-H ) :   0.9545
B(  2-C ,  7-H ) :   0.9523 B(  2-C ,  8-H ) :   0.9544

Dispersion correction           -0.001591379
FINAL SINGLE POINT ENERGY      -477.950757479709

DIPOLE MOMENT
-------------

Method             : SCF
Type of density    : Electron Density
Multiplicity       :   1
Irrep              :   0
Energy             :  -477.9578110886869240 Eh
Relativity type    :
Basis              : AO
                                X                 Y                 Z
Electronic contribution:     -0.002811058       3.808335734      -0.001279704
Nuclear contribution   :      0.003466792      -4.510795438       0.001726650
                        -----------------------------------------
Total Dipole Moment    :      0.000655735      -0.702459704       0.000446946
                        -----------------------------------------
Magnitude (a.u.)       :      0.702460152
Magnitude (Debye)      :      1.785511810

Rotational constants in cm-1:             0.598667             0.247376             0.187543
Rotational constants in MHz :         17947.588719          7416.145693          5622.405670

                             ****ORCA TERMINATED NORMALLY****
TOTAL RUN TIME: 0 days 0 hours 0 minutes 10 seconds 727 msec
