                         Program Version 6.0.1  -  RELEASE   -
|  1> ! r2scan-3c def2/J RI DEFGRID2 scfconv6 printgap
|  2> %output
|  3>     printlevel normal
|  4> end
|  5> * xyz 0 1
|  6> C 2.2984670701 -0.3709120958 -0.3355345003
|  7> C 1.0455541682 -0.2454298214 0.5333066958
|  8> H 1.2735144874 -0.623135181 1.5387970742
|  9> C 0.5066080198 1.1901792917 0.5734376569
| 10> C -0.5034500016 1.1904211649 -0.5714596792
| 11> C -1.0433882839 -0.2450734772 -0.5325343471
| 12> H -1.2649118665 -0.6239493629 -1.539103268
| 13> O -0.0012915598 -1.0485100749 0.0051255055
| 14> C -2.3020829852 -0.3686444627 0.3279826859
| 15> H 3.1276852529 0.1621302968 0.1225575927
| 16> H 2.5644451322 -1.41937175 -0.4378287796
| 17> H 2.1149606138 0.0361337332 -1.3266783562
| 18> H 0.0051565784 1.3810955744 1.5226221685
| 19> H 1.2973608318 1.925294103 0.4419069931
| 20> H -1.2940312126 1.9255351778 -0.4393546397
| 21> H -0.0019919379 1.382425634 -1.5204702973
| 22> H -3.1281031423 0.1638546858 -0.1366644229
| 23> H -2.1248386408 0.0401493112 1.3195806124
| 24> H -2.5690977228 -1.4169456826 0.4304917175
| 25> *
| 26>
| 27>                          ****END OF INPUT****

CARTESIAN COORDINATES (ANGSTROEM)
---------------------------------
  C      2.298467   -0.370912   -0.335535
  C      1.045554   -0.245430    0.533307
  H      1.273514   -0.623135    1.538797
  C      0.506608    1.190179    0.573438
  C     -0.503450    1.190421   -0.571460
  C     -1.043388   -0.245073   -0.532534
  H     -1.264912   -0.623949   -1.539103
  O     -0.001292   -1.048510    0.005126
  C     -2.302083   -0.368644    0.327983
  H      3.127685    0.162130    0.122558
  H      2.564445   -1.419372   -0.437829
  H      2.114961    0.036134   -1.326678
  H      0.005157    1.381096    1.522622
  H      1.297361    1.925294    0.441907
  H     -1.294031    1.925535   -0.439355
  H     -0.001992    1.382426   -1.520470
  H     -3.128103    0.163855   -0.136664
  H     -2.124839    0.040149    1.319581
  H     -2.569098   -1.416946    0.430492

 Total Charge           Charge          ....    0
 Multiplicity           Mult            ....    1
 Number of Electrons    NEL             ....   56
 Basis Dimension        Dim             ....  198

ORBITAL ENERGIES
----------------

  NO   OCC          E(Eh)            E(eV)
   0   2.0000     -18.939002      -515.3564
   1   2.0000     -10.076800      -274.2037
   2   2.0000     -10.076794      -274.2035
   3   2.0000     -10.029864      -272.9265
   4   2.0000     -10.029728      -272.9228
   5   2.0000     -10.013751      -272.4880
   6   2.0000     -10.013738      -272.4877
   7   2.0000      -0.995560       -27.0906
   8   2.0000      -0.754527       -20.5317
   9   2.0000      -0.742994       -20.2179
  10   2.0000      -0.672575       -18.3017
  11   2.0000      -0.619623       -16.8608
  12   2.0000      -0.555187       -15.1074
  13   2.0000      -0.521476       -14.1901
  14   2.0000      -0.460294       -12.5252
  15   2.0000      -0.456170       -12.4130
  16   2.0000      -0.422820       -11.5055
  17   2.0000      -0.380194       -10.3456
  18   2.0000      -0.371293       -10.1034
  19   2.0000      -0.369308       -10.0494
  20   2.0000      -0.359429        -9.7806
  21   2.0000      -0.356621        -9.7042
  22   2.0000      -0.335923        -9.1409
  23   2.0000      -0.313340        -8.5264
  24   2.0000      -0.294311        -8.0086
  25   2.0000      -0.291090        -7.9210
  26   2.0000      -0.276409        -7.5215
  27   2.0000      -0.208713        -5.6794
  28   0.0000       0.071914         1.9569
  29   0.0000       0.104326         2.8388
  30   0.0000       0.109268         2.9733
  31   0.0000       0.110048         2.9946
  32   0.0000       0.123747         3.3673

MULLIKEN ATOMIC CHARGES
-----------------------
   0 C :   -0.498465
   1 C :    0.041434
   2 H :    0.146048
   3 C :   -0.343294
   4 C :   -0.343762
   5 C :    0.042488
   6 H :    0.145964
   7 O :   -0.241937
   8 C :   -0.499518
   9 H :    0.140721
  10 H :    0.156599
  11 H :    0.149585
  12 H :    0.171397
  13 H :    0.157123
  14 H :    0.157111
  15 H :    0.171597
  16 H :    0.140742
  17 H :    0.149545
  18 H :    0.156621
Sum of atomic charges:   -0.0000000

LOEWDIN ATOMIC CHARGES
----------------------
   0 C :   -0.391169
   1 C :    0.062838
   2 H :    0.172691
   3 C :   -0.268690
   4 C :   -0.268877
   5 C :    0.062912
   6 H :    0.172469
   7 O :   -0.746835
   8 C :   -0.391060
   9 H :    0.154048
  10 H :    0.161547
  11 H :    0.155905
  12 H :    0.161037
  13 H :    0.165319
  14 H :    0.165343
  15 H :    0.160984
  16 H :    0.154039
  17 H :    0.155932
  18 H :    0.161566

  Mayer bond orders larger than 0.100000
B(  0-C ,  1-C ) :   0.9790 B(  0-C ,  9-H ) :   0.9715 B(  0-C , 10-H ) :   0.9705
B(  0-C , 11-H ) :   0.9795 B(  1-C ,  2-H ) :   0.9382 B(  1-C ,  3-C ) :   0.8922
B(  1-C ,  7-O ) :   0.8555 B(  3-C ,  4-C ) :   0.8840 B(  3-C , 12-H ) :   0.9783
B(  3-C , 13-H ) :   0.9676 B(  4-C ,  5-C ) :   0.8913 B(  4-C , 14-H ) :   0.9672
B(  4-C , 15-H ) :   0.9787 B(  5-C ,  6-H ) :   0.9381 B(  5-C ,  7-O ) :   0.8549
B(  5-C ,  8-C ) :   0.9789 B(  8-C , 16-H ) :   0.9715 B(  8-C , 17-H ) :   0.9797
B(  8-C , 18-H ) :   0.9705

Dispersion correction           -0.005142385
FINAL SINGLE POINT ENERGY      -310.995246910482

DIPOLE MOMENT
-------------

Method             : SCF
Type of density    : Electron Density
Multiplicity       :   1
Irrep              :   0
Energy             :  -311.0002331488938694 Eh
Relativity type    :
Basis              : AO
                                X                 Y                 Z
Electronic contribution:      0.001697131      -2.132254282       0.019951008
Nuclear contribution   :      0.000120039       2.736287638      -0.022574656
                        -----------------------------------------
Total Dipole Moment    :      0.001817171       0.604033356      -0.002623648
                        -----------------------------------------
Magnitude (a.u.)       :      0.604041787
Magnitude (Debye)      :      1.535352207

Rotational constants in cm-1:             0.162583             0.070459             0.060054
Rotational constants in MHz :          4874.106062          2112.315412          1800.368230

                             ****ORCA TERMINATED NORMALLY****
TOTAL RUN TIME: 0 days 0 hours 0 minutes 29 seconds 441 msec
