                         Program Version 6.0.1  -  RELEASE   -
|  1> ! pbe def2-sv(p) def2/J RI DEFGRID1 loosescf d4 GCP(DFT/SV(P)) printgap
|  2> %output
|  3>     printlevel normal
|  4> end
|  5> * xyz 0 1
|  6> C -3.3616342112 -0.1237175011 -0.1120603116
|  7> C -2.1749117936 0.8042406619 0.1135912046
|  8> C -0.8165689306 0.1558440706 0.0305719137
|  9> C -0.6308877119 -1.21029176 -0.135935459
| 10> C 0.6463825463 -1.7400487463 -0.2005058096
| 11> C 1.7566638047 -0.9238406765 -0.0997204533
| 12> C 1.583186912 0.4446961043 0.0688307327
| 13> C 0.301633862 0.9733529644 0.1320598634
| 14> O 2.6387652142 1.3003722914 0.1745116626
| 15> H -3.3027365354 -0.5960306128 -1.0899687498
| 16> H -4.2871222625 0.4463204085 -0.0648044832
| 17> H -3.4020304761 -0.8971477483 0.6513941394
| 18> H -2.2693040223 1.269496469 1.0997535985
| 19> H -2.2101153844 1.6127403969 -0.6223727295
| 20> H -1.4764172579 -1.8734955307 -0.2168827456
| 21> H 0.7791699053 -2.8041424923 -0.3312521508
| 22> H 2.7537536695 -1.3415515746 -0.1513604559
| 23> H 0.192263134 2.0392644265 0.2623882846
| 24> H 3.4642532789 0.804948645 0.1140357279
| 25> *
| 26>
| 27>                          ****END OF INPUT****

CARTESIAN COORDINATES (ANGSTROEM)
---------------------------------
  C     -3.361634   -0.123718   -0.112060
  C     -2.174912    0.804241    0.113591
  C     -0.816569    0.155844    0.030572
  C     -0.630888   -1.210292   -0.135935
  C      0.646383   -1.740049   -0.200506
  C      1.756664   -0.923841   -0.099720
  C      1.583187    0.444696    0.068831
  C      0.301634    0.973353    0.132060
  O      2.638765    1.300372    0.174512
  H     -3.302737   -0.596031   -1.089969
  H     -4.287122    0.446320   -0.064804
  H     -3.402030   -0.897148    0.651394
  H     -2.269304    1.269496    1.099754
  H     -2.210115    1.612740   -0.622373
  H     -1.476417   -1.873496   -0.216883
  H      0.779170   -2.804142   -0.331252
  H      2.753754   -1.341552   -0.151360
  H      0.192263    2.039264    0.262388
  H      3.464253    0.804949    0.114036

 Total Charge           Charge          ....    0
 Multiplicity           Mult            ....    1
 Number of Electrons    NEL             ....   66
 Basis Dimension        Dim             ....  146

ORBITAL ENERGIES
----------------

  NO   OCC          E(Eh)            E(eV)
   0   2.0000     -18.777205      -510.9537
   1   2.0000      -9.947249      -270.6784
   2   2.0000      -9.898351      -269.3478
   3   2.0000      -9.889904      -269.1180
   4   2.0000      -9.889877      -269.1172
   5   2.0000      -9.886251      -269.0186
   6   2.0000      -9.879269      -268.8286
   7   2.0000      -9.878426      -268.8056
   8   2.0000      -9.876613      -268.7563
   9   2.0000      -0.959856       -26.1190
  10   2.0000      -0.771892       -21.0042
  11   2.0000      -0.707048       -19.2397
  12   2.0000      -0.664548       -18.0833
  13   2.0000      -0.644245       -17.5308
  14   2.0000      -0.577002       -15.7010
  15   2.0000      -0.538649       -14.6574
  16   2.0000      -0.533030       -14.5045
  17   2.0000      -0.470326       -12.7982
  18   2.0000      -0.443636       -12.0719
  19   2.0000      -0.415578       -11.3084
  20   2.0000      -0.405497       -11.0341
  21   2.0000      -0.392905       -10.6915
  22   2.0000      -0.373653       -10.1676
  23   2.0000      -0.358470        -9.7545
  24   2.0000      -0.342905        -9.3309
  25   2.0000      -0.332440        -9.0461
  26   2.0000      -0.316108        -8.6017
  27   2.0000      -0.311097        -8.4654
  28   2.0000      -0.302625        -8.2349
  29   2.0000      -0.284902        -7.7526
  30   2.0000      -0.284576        -7.7437
  31   2.0000      -0.216392        -5.8883
  32   2.0000      -0.192025        -5.2253
  33   0.0000      -0.031869        -0.8672
  34   0.0000      -0.011416        -0.3106
  35   0.0000       0.026346         0.7169
  36   0.0000       0.047571         1.2945
  37   0.0000       0.059558         1.6207

MULLIKEN ATOMIC CHARGES
-----------------------
   0 C :   -0.266947
   1 C :   -0.155855
   2 C :    0.077686
   3 C :   -0.135006
   4 C :   -0.045262
   5 C :   -0.162784
   6 C :    0.257666
   7 C :   -0.205389
   8 O :   -0.336010
   9 H :    0.107775
  10 H :    0.103294
  11 H :    0.108496
  12 H :    0.101763
  13 H :    0.098659
  14 H :    0.035352
  15 H :    0.047327
  16 H :    0.024936
  17 H :    0.030059
  18 H :    0.314239
Sum of atomic charges:    0.0000000

LOEWDIN ATOMIC CHARGES
----------------------
   0 C :   -0.341354
   1 C :   -0.220599
   2 C :   -0.031734
   3 C :   -0.155402
   4 C :   -0.113709
   5 C :   -0.182544
   6 C :    0.024036
   7 C :   -0.149133
   8 O :   -0.238444
   9 H :    0.120861
  10 H :    0.122141
  11 H :    0.120271
  12 H :    0.130619
  13 H :    0.128983
  14 H :    0.121726
  15 H :    0.122718
  16 H :    0.118236
  17 H :    0.127283
  18 H :    0.296044

  Mayer bond orders larger than 0.100000
B(  0-C ,  1-C ) :   1.2011 B(  0-C ,  9-H ) :   0.9461 B(  0-C , 10-H ) :   0.9464
B(  0-C , 11-H ) :   0.9419 B(  1-C ,  2-C ) :   1.0485 B(  1-C , 12-H ) :   0.9035
B(  1-C , 13-H ) :   0.9074 B(  2-C ,  3-C ) :   1.4048 B(  2-C ,  7-C ) :   1.3615
B(  3-C ,  4-C ) :   1.3504 B(  3-C , 14-H ) :   0.9533 B(  4-C ,  5-C ) :   1.3777
B(  4-C , 15-H ) :   0.9574 B(  5-C ,  6-C ) :   1.3087 B(  5-C , 16-H ) :   0.9570
B(  6-C ,  7-C ) :   1.3500 B(  6-C ,  8-O ) :   1.1811 B(  7-C , 17-H ) :   0.9698
B(  8-O , 18-H ) :   0.8447

Dispersion correction           -0.018622249
FINAL SINGLE POINT ENERGY      -385.234868466643

DIPOLE MOMENT
-------------

Method             : SCF
Type of density    : Electron Density
Multiplicity       :   1
Irrep              :   0
Energy             :  -385.2945789684501960 Eh
Relativity type    :
Basis              : AO
                                X                 Y                 Z
Electronic contribution:      9.373975811       0.973653383       0.297904512
Nuclear contribution   :     -9.115812017      -1.237496983      -0.324899874
                        -----------------------------------------
Total Dipole Moment    :      0.258163794      -0.263843601      -0.026995362
                        -----------------------------------------
Magnitude (a.u.)       :      0.370122601
Magnitude (Debye)      :      0.940776886

Rotational constants in cm-1:             0.119811             0.035956             0.027953
Rotational constants in MHz :          3591.851882          1077.937271           837.997330

                             ****ORCA TERMINATED NORMALLY****
TOTAL RUN TIME: 0 days 0 hours 0 minutes 7 seconds 699 msec
