                         Program Version 6.0.1  -  RELEASE   -
|  1> ! pbe def2-sv(p) def2/J RI DEFGRID1 loosescf d4 GCP(DFT/SV(P)) printgap
|  2> %output
|  3>     printlevel normal
|  4> end
|  5> * xyz 0 1
|  6> C 4.4848299134 -0.2806706454 0.0410216025
|  7> C 3.9388505974 0.8577917517 0.6111130058
|  8> C 2.5740220088 1.0679947822 0.5709342529
|  9> C 1.747583373 0.1354662433 -0.0470679331
| 10> C 2.2916708468 -0.9998921169 -0.6330757978
| 11> C 3.6595644688 -1.2028360332 -0.5792168531
| 12> N 0.3512149951 0.3908440512 -0.0841761498
| 13> C -0.5815084818 -0.6531094234 0.0742311178
| 14> O -0.2318168959 -1.8033608256 0.2489356003
| 15> C -1.9474256715 -0.1964915405 0.0276685793
| 16> C -2.2965795143 1.1235667423 -0.1284802237
| 17> C -1.2018983172 2.0360693499 -0.2357333386
| 18> N 0.0306603011 1.666354484 -0.2072724693
| 19> N -3.5805510675 1.5437471929 -0.2243539276
| 20> Cl -3.1664696653 -1.4123603041 0.2053573944
| 21> H 5.5509632793 -0.4472836382 0.079490002
| 22> H 4.5772934671 1.5825715061 1.0938457816
| 23> H 2.1342375184 1.9496331168 1.0102580087
| 24> H 1.6548567421 -1.7200618242 -1.1182408804
| 25> H 4.0815147335 -2.0875744048 -1.0316052135
| 26> H -1.3741230666 3.0949718469 -0.3504570144
| 27> H -3.7884810317 2.5209011333 -0.1258665287
| 28> H -4.2996991534 0.8735834318 -0.0059931618
| 29> *
| 30>
| 31>                          ****END OF INPUT****

CARTESIAN COORDINATES (ANGSTROEM)
---------------------------------
  C      4.484830   -0.280671    0.041022
  C      3.938851    0.857792    0.611113
  C      2.574022    1.067995    0.570934
  C      1.747583    0.135466   -0.047068
  C      2.291671   -0.999892   -0.633076
  C      3.659564   -1.202836   -0.579217
  N      0.351215    0.390844   -0.084176
  C     -0.581508   -0.653109    0.074231
  O     -0.231817   -1.803361    0.248936
  C     -1.947426   -0.196492    0.027669
  C     -2.296580    1.123567   -0.128480
  C     -1.201898    2.036069   -0.235733
  N      0.030660    1.666354   -0.207272
  N     -3.580551    1.543747   -0.224354
  Cl    -3.166470   -1.412360    0.205357
  H      5.550963   -0.447284    0.079490
  H      4.577293    1.582572    1.093846
  H      2.134238    1.949633    1.010258
  H      1.654857   -1.720062   -1.118241
  H      4.081515   -2.087574   -1.031605
  H     -1.374123    3.094972   -0.350457
  H     -3.788481    2.520901   -0.125867
  H     -4.299699    0.873583   -0.005993

 Total Charge           Charge          ....    0
 Multiplicity           Mult            ....    1
 Number of Electrons    NEL             ....  114
 Basis Dimension        Dim             ....  230

ORBITAL ENERGIES
----------------

  NO   OCC          E(Eh)            E(eV)
   0   2.0000    -100.649922     -2738.8236
   1   2.0000     -18.716062      -509.2899
   2   2.0000     -14.086887      -383.3237
   3   2.0000     -14.040678      -382.0663
   4   2.0000     -14.029711      -381.7678
   5   2.0000      -9.991066      -271.8707
   6   2.0000      -9.971267      -271.3320
   7   2.0000      -9.949430      -270.7378
   8   2.0000      -9.943889      -270.5870
   9   2.0000      -9.938375      -270.4369
  10   2.0000      -9.894795      -269.2511
  11   2.0000      -9.893299      -269.2104
  12   2.0000      -9.891846      -269.1708
  13   2.0000      -9.890938      -269.1461
  14   2.0000      -9.890487      -269.1338
  15   2.0000      -9.184996      -249.9365
  16   2.0000      -7.016373      -190.9252
  17   2.0000      -7.004963      -190.6147
  18   2.0000      -7.004534      -190.6030
  19   2.0000      -0.984592       -26.7921
  20   2.0000      -0.921942       -25.0873
  21   2.0000      -0.876168       -23.8418
  22   2.0000      -0.803822       -21.8731
  23   2.0000      -0.793972       -21.6051
  24   2.0000      -0.761539       -20.7225
  25   2.0000      -0.706986       -19.2381
  26   2.0000      -0.674307       -18.3488
  27   2.0000      -0.672563       -18.3014
  28   2.0000      -0.609652       -16.5895
  29   2.0000      -0.602936       -16.4067
  30   2.0000      -0.551843       -15.0164
  31   2.0000      -0.547304       -14.8929
  32   2.0000      -0.529678       -14.4133
  33   2.0000      -0.496855       -13.5201
  34   2.0000      -0.486118       -13.2280
  35   2.0000      -0.459488       -12.5033
  36   2.0000      -0.444334       -12.0910
  37   2.0000      -0.439637       -11.9631
  38   2.0000      -0.415683       -11.3113
  39   2.0000      -0.402016       -10.9394
  40   2.0000      -0.388195       -10.5633
  41   2.0000      -0.384894       -10.4735
  42   2.0000      -0.376175       -10.2363
  43   2.0000      -0.364469        -9.9177
  44   2.0000      -0.355529        -9.6744
  45   2.0000      -0.342264        -9.3135
  46   2.0000      -0.330172        -8.9844
  47   2.0000      -0.318245        -8.6599
  48   2.0000      -0.304986        -8.2991
  49   2.0000      -0.290391        -7.9019
  50   2.0000      -0.277722        -7.5572
  51   2.0000      -0.263946        -7.1823
  52   2.0000      -0.253692        -6.9033
  53   2.0000      -0.229278        -6.2390
  54   2.0000      -0.211358        -5.7513
  55   2.0000      -0.201156        -5.4737
  56   2.0000      -0.194418        -5.2904
  57   0.0000      -0.083252        -2.2654
  58   0.0000      -0.036064        -0.9814
  59   0.0000      -0.032849        -0.8939
  60   0.0000      -0.017752        -0.4831
  61   0.0000       0.011057         0.3009

MULLIKEN ATOMIC CHARGES
-----------------------
   0 C :   -0.028625
   1 C :   -0.061639
   2 C :   -0.084449
   3 C :    0.200357
   4 C :   -0.081146
   5 C :   -0.071722
   6 N :   -0.160171
   7 C :    0.165574
   8 O :   -0.172001
   9 C :   -0.133952
  10 C :    0.134875
  11 C :   -0.189612
  12 N :    0.026534
  13 N :   -0.297209
  14 Cl:   -0.048203
  15 H :    0.053980
  16 H :    0.054941
  17 H :    0.048758
  18 H :    0.065243
  19 H :    0.057525
  20 H :    0.050439
  21 H :    0.236812
  22 H :    0.233691
Sum of atomic charges:    0.0000000

LOEWDIN ATOMIC CHARGES
----------------------
   0 C :   -0.122455
   1 C :   -0.121053
   2 C :   -0.119981
   3 C :    0.003382
   4 C :   -0.113827
   5 C :   -0.118684
   6 N :    0.075337
   7 C :   -0.005686
   8 O :   -0.181774
   9 C :   -0.215539
  10 C :   -0.037683
  11 C :   -0.145747
  12 N :   -0.008294
  13 N :   -0.281477
  14 Cl:    0.161197
  15 H :    0.124055
  16 H :    0.125135
  17 H :    0.129584
  18 H :    0.137642
  19 H :    0.126471
  20 H :    0.124696
  21 H :    0.238500
  22 H :    0.226203

  Mayer bond orders larger than 0.100000
B(  0-C ,  1-C ) :   1.3703 B(  0-C ,  5-C ) :   1.3761 B(  0-C , 15-H ) :   0.9661
B(  1-C ,  2-C ) :   1.3596 B(  1-C , 16-H ) :   0.9627 B(  2-C ,  3-C ) :   1.3935
B(  2-C , 17-H ) :   0.9516 B(  3-C ,  4-C ) :   1.3963 B(  3-C ,  6-N ) :   0.9179
B(  4-C ,  5-C ) :   1.3610 B(  4-C , 18-H ) :   0.9540 B(  5-C , 19-H ) :   0.9621
B(  6-N ,  7-C ) :   0.9430 B(  6-N , 12-N ) :   1.1642 B(  7-C ,  8-O ) :   2.1284
B(  7-C ,  9-C ) :   1.0912 B(  9-C , 10-C ) :   1.5002 B(  9-C , 14-Cl) :   1.0411
B( 10-C , 11-C ) :   1.0652 B( 10-C , 13-N ) :   1.3494 B( 11-C , 12-N ) :   1.7539
B( 11-C , 20-H ) :   0.9668 B( 13-N , 21-H ) :   0.8700 B( 13-N , 22-H ) :   0.8471

Dispersion correction           -0.032195508
FINAL SINGLE POINT ENERGY     -1083.939998710971

DIPOLE MOMENT
-------------

Method             : SCF
Type of density    : Electron Density
Multiplicity       :   1
Irrep              :   0
Energy             : -1084.0021921033005583 Eh
Relativity type    :
Basis              : AO
                                X                 Y                 Z
Electronic contribution:    -13.213837213      -5.715395739       0.655624301
Nuclear contribution   :     12.237818731       7.298993333      -0.695619489
                        -----------------------------------------
Total Dipole Moment    :     -0.976018482       1.583597594      -0.039995188
                        -----------------------------------------
Magnitude (a.u.)       :      1.860643177
Magnitude (Debye)      :      4.729379105

Rotational constants in cm-1:             0.044550             0.010708             0.008877
Rotational constants in MHz :          1335.569147           321.027796           266.132528

                             ****ORCA TERMINATED NORMALLY****
TOTAL RUN TIME: 0 days 0 hours 0 minutes 24 seconds 447 msec
