                         Program Version 6.0.1  -  RELEASE   -
|  1> ! pbe def2-sv(p) def2/J RI DEFGRID1 loosescf d4 GCP(DFT/SV(P)) printgap
|  2> %output
|  3>     printlevel normal
|  4> end
|  5> * xyz 0 1
|  6> C -2.8540687388 0.7965209709 -0.9908889743
|  7> C -2.3664233455 -0.0172197226 0.2068161751
|  8> H -3.2554437453 -0.3973646804 0.7225821265
|  9> C -1.5697042471 0.8295040835 1.1998972778
| 10> C -0.3186069604 1.4281775435 0.562684344
| 11> C 0.4488340655 0.4192297512 -0.3189852717
| 12> H 0.1544712482 0.5933709752 -1.3623783344
| 13> C -0.0080486117 -1.0005093286 -0.0512116761
| 14> O 0.7239517737 -1.9258419145 0.1980442931
| 15> C -1.5010053153 -1.2163304527 -0.2077360174
| 16> C 1.9739887946 0.6374692723 -0.2453486965
| 17> C 2.5781395345 0.2219217796 1.0946711238
| 18> C 2.6775348109 -0.0996011251 -1.3841751476
| 19> H -2.0288338235 1.1427903416 -1.6060376068
| 20> H -3.5100232952 0.1908379432 -1.6128307241
| 21> H -3.416121453 1.6638828689 -0.6511264275
| 22> H -2.1941163721 1.6320122402 1.5973991795
| 23> H -1.277325166 0.1883007604 2.0354336549
| 24> H -0.5901550497 2.2972602291 -0.0388190659
| 25> H 0.3374588685 1.7842799343 1.3573911268
| 26> H -1.6719298217 -1.4640705707 -1.2590721251
| 27> H -1.7599443177 -2.1045550606 0.3722424934
| 28> H 2.1408454105 1.7147685644 -0.3802671082
| 29> H 3.6336748669 0.4836985165 1.1185571938
| 30> H 2.4847232114 -0.8506487285 1.2319561861
| 31> H 2.0880494826 0.7214731757 1.9272284977
| 32> H 3.745888642 0.101778996 -1.3585530128
| 33> H 2.2932475901 0.2203102181 -2.3513882863
| 34> H 2.5277453644 -1.1710564977 -1.2859138243
| 35> *
| 36>
| 37>                          ****END OF INPUT****

CARTESIAN COORDINATES (ANGSTROEM)
---------------------------------
  C     -2.854069    0.796521   -0.990889
  C     -2.366423   -0.017220    0.206816
  H     -3.255444   -0.397365    0.722582
  C     -1.569704    0.829504    1.199897
  C     -0.318607    1.428178    0.562684
  C      0.448834    0.419230   -0.318985
  H      0.154471    0.593371   -1.362378
  C     -0.008049   -1.000509   -0.051212
  O      0.723952   -1.925842    0.198044
  C     -1.501005   -1.216330   -0.207736
  C      1.973989    0.637469   -0.245349
  C      2.578140    0.221922    1.094671
  C      2.677535   -0.099601   -1.384175
  H     -2.028834    1.142790   -1.606038
  H     -3.510023    0.190838   -1.612831
  H     -3.416121    1.663883   -0.651126
  H     -2.194116    1.632012    1.597399
  H     -1.277325    0.188301    2.035434
  H     -0.590155    2.297260   -0.038819
  H      0.337459    1.784280    1.357391
  H     -1.671930   -1.464071   -1.259072
  H     -1.759944   -2.104555    0.372242
  H      2.140845    1.714769   -0.380267
  H      3.633675    0.483699    1.118557
  H      2.484723   -0.850649    1.231956
  H      2.088049    0.721473    1.927228
  H      3.745889    0.101779   -1.358553
  H      2.293248    0.220310   -2.351388
  H      2.527745   -1.171056   -1.285914

 Total Charge           Charge          ....    0
 Multiplicity           Mult            ....    1
 Number of Electrons    NEL             ....   86
 Basis Dimension        Dim             ....  190

ORBITAL ENERGIES
----------------

  NO   OCC          E(Eh)            E(eV)
   0   2.0000     -18.735566      -509.8207
   1   2.0000      -9.971743      -271.3449
   2   2.0000      -9.905361      -269.5386
   3   2.0000      -9.900770      -269.4136
   4   2.0000      -9.894070      -269.2313
   5   2.0000      -9.893616      -269.2190
   6   2.0000      -9.890617      -269.1374
   7   2.0000      -9.888893      -269.0904
   8   2.0000      -9.882265      -268.9101
   9   2.0000      -9.863185      -268.3909
  10   2.0000      -9.861448      -268.3436
  11   2.0000      -0.940138       -25.5825
  12   2.0000      -0.767659       -20.8891
  13   2.0000      -0.725858       -19.7516
  14   2.0000      -0.673149       -18.3173
  15   2.0000      -0.654018       -17.7967
  16   2.0000      -0.619464       -16.8565
  17   2.0000      -0.602509       -16.3951
  18   2.0000      -0.554353       -15.0847
  19   2.0000      -0.527729       -14.3602
  20   2.0000      -0.496353       -13.5065
  21   2.0000      -0.448145       -12.1947
  22   2.0000      -0.441885       -12.0243
  23   2.0000      -0.424669       -11.5558
  24   2.0000      -0.421281       -11.4636
  25   2.0000      -0.398892       -10.8544
  26   2.0000      -0.385626       -10.4934
  27   2.0000      -0.375939       -10.2298
  28   2.0000      -0.363767        -9.8986
  29   2.0000      -0.356685        -9.7059
  30   2.0000      -0.349954        -9.5227
  31   2.0000      -0.347257        -9.4493
  32   2.0000      -0.336403        -9.1540
  33   2.0000      -0.327492        -8.9115
  34   2.0000      -0.317248        -8.6328
  35   2.0000      -0.311268        -8.4700
  36   2.0000      -0.302326        -8.2267
  37   2.0000      -0.288271        -7.8442
  38   2.0000      -0.285521        -7.7694
  39   2.0000      -0.281710        -7.6657
  40   2.0000      -0.272485        -7.4147
  41   2.0000      -0.266972        -7.2647
  42   2.0000      -0.187803        -5.1104
  43   0.0000      -0.051354        -1.3974
  44   0.0000       0.024572         0.6687
  45   0.0000       0.038595         1.0502
  46   0.0000       0.053416         1.4535
  47   0.0000       0.066018         1.7964

MULLIKEN ATOMIC CHARGES
-----------------------
   0 C :   -0.269919
   1 C :   -0.176659
   2 H :    0.076491
   3 C :   -0.103724
   4 C :   -0.135675
   5 C :   -0.135126
   6 H :    0.088610
   7 C :   -0.035181
   8 O :   -0.146013
   9 C :   -0.071299
  10 C :   -0.129461
  11 C :   -0.266373
  12 C :   -0.251217
  13 H :    0.109361
  14 H :    0.105836
  15 H :    0.102460
  16 H :    0.086243
  17 H :    0.088484
  18 H :    0.084591
  19 H :    0.097752
  20 H :    0.107796
  21 H :    0.094282
  22 H :    0.064730
  23 H :    0.094225
  24 H :    0.126082
  25 H :    0.092878
  26 H :    0.095144
  27 H :    0.087747
  28 H :    0.117935
Sum of atomic charges:   -0.0000000

LOEWDIN ATOMIC CHARGES
----------------------
   0 C :   -0.333647
   1 C :   -0.151583
   2 H :    0.120728
   3 C :   -0.220154
   4 C :   -0.212479
   5 C :   -0.162423
   6 H :    0.136663
   7 C :    0.054217
   8 O :   -0.115273
   9 C :   -0.239011
  10 C :   -0.141160
  11 C :   -0.339516
  12 C :   -0.335142
  13 H :    0.115836
  14 H :    0.121192
  15 H :    0.120195
  16 H :    0.118830
  17 H :    0.119966
  18 H :    0.119862
  19 H :    0.124034
  20 H :    0.142673
  21 H :    0.134018
  22 H :    0.113308
  23 H :    0.117430
  24 H :    0.127061
  25 H :    0.111113
  26 H :    0.117041
  27 H :    0.111232
  28 H :    0.124991

  Mayer bond orders larger than 0.100000
B(  0-C ,  1-C ) :   1.0956 B(  0-C , 13-H ) :   0.9413 B(  0-C , 14-H ) :   0.9465
B(  0-C , 15-H ) :   0.9477 B(  1-C ,  2-H ) :   0.8998 B(  1-C ,  3-C ) :   1.1343
B(  1-C ,  9-C ) :   1.0365 B(  3-C ,  4-C ) :   1.1677 B(  3-C , 16-H ) :   0.9150
B(  3-C , 17-H ) :   0.8957 B(  4-C ,  5-C ) :   1.0679 B(  4-C , 18-H ) :   0.9010
B(  4-C , 19-H ) :   0.9016 B(  5-C ,  6-H ) :   0.8414 B(  5-C ,  7-C ) :   0.9695
B(  5-C , 10-C ) :   1.0365 B(  7-C ,  8-O ) :   2.1628 B(  7-C ,  9-C ) :   1.0373
B(  9-C , 20-H ) :   0.8827 B(  9-C , 21-H ) :   0.8926 B( 10-C , 11-C ) :   1.1049
B( 10-C , 12-C ) :   1.1061 B( 10-C , 22-H ) :   0.9022 B( 11-C , 23-H ) :   0.9472
B( 11-C , 24-H ) :   0.9348 B( 11-C , 25-H ) :   0.9423 B( 12-C , 26-H ) :   0.9498
B( 12-C , 27-H ) :   0.9465 B( 12-C , 28-H ) :   0.9421

Dispersion correction           -0.030814114
FINAL SINGLE POINT ENERGY      -466.026370022852

DIPOLE MOMENT
-------------

Method             : SCF
Type of density    : Electron Density
Multiplicity       :   1
Irrep              :   0
Energy             :  -466.1230702495557807 Eh
Relativity type    :
Basis              : AO
                                X                 Y                 Z
Electronic contribution:     -0.437754735      -5.565943479       1.265152551
Nuclear contribution   :     -0.268636285       6.301301039      -1.445210887
                        -----------------------------------------
Total Dipole Moment    :     -0.706391020       0.735357561      -0.180058336
                        -----------------------------------------
Magnitude (a.u.)       :      1.035451601
Magnitude (Debye)      :      2.631908810

Rotational constants in cm-1:             0.062149             0.025529             0.023357
Rotational constants in MHz :          1863.185684           765.342739           700.236307

                             ****ORCA TERMINATED NORMALLY****
TOTAL RUN TIME: 0 days 0 hours 0 minutes 19 seconds 239 msec
