                         Program Version 6.0.0  -   RELEASE  -
|  1> ! r2SCAN-3c DEF2-TZVP FREQ
|  2> * xyzfile 0 1 censo.xyz
|  3>
|  4>                          ****END OF INPUT****

CARTESIAN COORDINATES (ANGSTROEM)
---------------------------------
  C     -0.637747   -0.911932    0.397317
  C      0.391872   -0.126157   -0.378486
  Cl     2.015094   -0.834306    0.014096
  Cl     0.373369    1.627312    0.050126
  Cl    -2.312087   -0.369441   -0.059435
  H     -0.563470   -1.967118    0.127620
  H     -0.524818   -0.781360    1.474336
  H      0.262612   -0.196987   -1.458648

 Total Charge           Charge          ....    0
 Multiplicity           Mult            ....    1
 Number of Electrons    NEL             ....   66
 Basis Dimension        Dim             ....  191

ORBITAL ENERGIES
----------------

  NO   OCC          E(Eh)            E(eV)
   0   2.0000    -101.207709     -2754.0018
   1   2.0000    -101.202244     -2753.8531
   2   2.0000    -101.196883     -2753.7072
   3   2.0000     -10.183211      -277.0993
   4   2.0000     -10.127476      -275.5826
   5   2.0000      -9.383711      -255.3438
   6   2.0000      -9.378232      -255.1947
   7   2.0000      -9.372505      -255.0388
   8   2.0000      -7.128808      -193.9847
   9   2.0000      -7.123432      -193.8384
  10   2.0000      -7.118494      -193.7041
  11   2.0000      -7.118254      -193.6975
  12   2.0000      -7.117674      -193.6818
  13   2.0000      -7.112981      -193.5541
  14   2.0000      -7.112692      -193.5462
  15   2.0000      -7.107247      -193.3980
  16   2.0000      -7.107087      -193.3937
  17   2.0000      -0.887830       -24.1591
  18   2.0000      -0.821965       -22.3668
  19   2.0000      -0.793540       -21.5933
  20   2.0000      -0.699111       -19.0238
  21   2.0000      -0.599983       -16.3264
  22   2.0000      -0.487559       -13.2672
  23   2.0000      -0.457070       -12.4375
  24   2.0000      -0.446600       -12.1526
  25   2.0000      -0.404969       -11.0198
  26   2.0000      -0.390902       -10.6370
  27   2.0000      -0.317402        -8.6369
  28   2.0000      -0.307525        -8.3682
  29   2.0000      -0.301342        -8.1999
  30   2.0000      -0.291010        -7.9188
  31   2.0000      -0.288181        -7.8418
  32   2.0000      -0.282618        -7.6904
  33   0.0000      -0.054695        -1.4883
  34   0.0000      -0.039874        -1.0850
  35   0.0000       0.001178         0.0321
  36   0.0000       0.051721         1.4074
  37   0.0000       0.067270         1.8305

MULLIKEN ATOMIC CHARGES
-----------------------
   0 C :   -0.098541
   1 C :    0.047757
   2 Cl:   -0.120267
   3 Cl:   -0.107578
   4 Cl:   -0.151551
   5 H :    0.141371
   6 H :    0.142764
   7 H :    0.146044
Sum of atomic charges:    0.0000000

LOEWDIN ATOMIC CHARGES
----------------------
   0 C :   -0.513195
   1 C :   -0.745624
   2 Cl:    0.298599
   3 Cl:    0.302778
   4 Cl:    0.261612
   5 H :    0.133858
   6 H :    0.131738
   7 H :    0.130234

  Mayer bond orders larger than 0.100000
B(  0-C ,  1-C ) :   0.9949 B(  0-C ,  4-Cl) :   1.0258 B(  0-C ,  5-H ) :   0.9446
B(  0-C ,  6-H ) :   0.9494 B(  1-C ,  2-Cl) :   1.0462 B(  1-C ,  3-Cl) :   1.0791
B(  1-C ,  7-H ) :   0.9493

Dispersion correction           -0.002501242
FINAL SINGLE POINT ENERGY     -1458.543257172686

DIPOLE MOMENT
-------------

Method             : SCF
Type of density    : Electron Density
Multiplicity       :   1
Irrep              :   0
Energy             : -1458.5499622117167746 Eh
Relativity type    :
Basis              : AO
                                X                 Y                 Z
Electronic contribution:      0.940155697       2.784082485      -0.193043727
Nuclear contribution   :     -0.886934328      -3.335703023       0.132932746
                        -----------------------------------------
Total Dipole Moment    :      0.053221369      -0.551620538      -0.060110980
                        -----------------------------------------
Magnitude (a.u.)       :      0.557432563
Magnitude (Debye)      :      1.416880974

VIBRATIONAL FREQUENCIES
-----------------------

Scaling factor for frequencies =  1.000000000  (already applied!)

     0:       0.00 cm**-1
     1:       0.00 cm**-1
     2:       0.00 cm**-1
     3:       0.00 cm**-1
     4:       0.00 cm**-1
     5:       0.00 cm**-1
     6:     130.55 cm**-1
     7:     187.05 cm**-1
     8:     252.21 cm**-1
     9:     320.46 cm**-1
    10:     391.33 cm**-1
    11:     622.00 cm**-1
    12:     673.38 cm**-1
    13:     722.80 cm**-1
    14:     934.34 cm**-1
    15:    1060.66 cm**-1
    16:    1169.94 cm**-1
    17:    1212.28 cm**-1
    18:    1273.54 cm**-1
    19:    1321.30 cm**-1
    20:    1458.86 cm**-1
    21:    3073.39 cm**-1
    22:    3122.88 cm**-1
    23:    3152.58 cm**-1

IR SPECTRUM
-----------

 Mode   freq       eps      Int      T**2         TX        TY        TZ
       cm**-1   L/(mol*cm) km/mol    a.u.
----------------------------------------------------------------------------
  6:    130.55   0.000550    2.78  0.001315  (-0.004686  0.019426  0.030255)
  7:    187.05   0.000842    4.26  0.001405  (-0.016068 -0.006668  0.033204)
  8:    252.21   0.000171    0.87  0.000212  ( 0.011361  0.006990 -0.005828)
  9:    320.46   0.000295    1.49  0.000287  (-0.000068 -0.016932  0.000842)
 10:    391.33   0.002037   10.29  0.001624  ( 0.020888  0.032646 -0.011055)
 11:    622.00   0.013322   67.32  0.006684  ( 0.019301 -0.079209 -0.006105)
 12:    673.38   0.027009  136.49  0.012517  ( 0.105307 -0.036604  0.009339)
 13:    722.80   0.001859    9.40  0.000803  (-0.001600 -0.027971 -0.004228)
 14:    934.34   0.003917   19.79  0.001308  (-0.002602  0.035454  0.006666)
 15:   1060.66   0.000841    4.25  0.000248  (-0.004524 -0.014848  0.002568)
 16:   1169.94   0.000764    3.86  0.000204  (-0.010507 -0.001185 -0.009586)
 17:   1212.28   0.003247   16.41  0.000836  (-0.019796  0.020318 -0.005569)
 18:   1273.54   0.002922   14.77  0.000716  ( 0.016001  0.019366  0.009214)
 19:   1321.30   0.001279    6.46  0.000302  ( 0.007813 -0.015450  0.001491)
 20:   1458.86   0.001397    7.06  0.000299  (-0.006800 -0.009263  0.012918)
 21:   3073.39   0.000907    4.58  0.000092  (-0.007753  0.005191 -0.002236)
 22:   3122.88   0.000136    0.69  0.000014  ( 0.002611  0.002553 -0.000462)
 23:   3152.58   0.000018    0.09  0.000002  (-0.000946 -0.000943  0.000149)

--------------------------
THERMOCHEMISTRY AT 298.15K
--------------------------

Temperature         ...   298.15 K
Pressure            ...     1.00 atm
Total Mass          ...   133.41 AMU
Quasi RRHO          ...     True
Cut-Off Frequency   ...     1.00 cm^-1

Throughout the following assumptions are being made:
  (1) The electronic state is orbitally nondegenerate
  (2) There are no thermally accessible electronically excited states
  (3) Hindered rotations indicated by low frequency modes are not
      treated as such but are treated as vibrations and this may
      cause some error
  (4) All equations used are the standard statistical mechanics
      equations for an ideal gas
  (5) All vibrations are strictly harmonic

freq.     130.55  E(vib)   ...       0.43
freq.     187.05  E(vib)   ...       0.36
freq.     252.21  E(vib)   ...       0.30
freq.     320.46  E(vib)   ...       0.25
freq.     391.33  E(vib)   ...       0.20
freq.     622.00  E(vib)   ...       0.09
freq.     673.38  E(vib)   ...       0.08
freq.     722.80  E(vib)   ...       0.07
freq.     934.34  E(vib)   ...       0.03
freq.    1060.66  E(vib)   ...       0.02
freq.    1169.94  E(vib)   ...       0.01
freq.    1212.28  E(vib)   ...       0.01
freq.    1273.54  E(vib)   ...       0.01
freq.    1321.30  E(vib)   ...       0.01
freq.    1458.86  E(vib)   ...       0.00
freq.    3073.39  E(vib)   ...       0.00
freq.    3122.88  E(vib)   ...       0.00
freq.    3152.58  E(vib)   ...       0.00

------------
INNER ENERGY
------------

The inner energy is: U= E(el) + E(ZPE) + E(vib) + E(rot) + E(trans)
    E(el)   - is the total energy from the electronic structure calculation
              = E(kin-el) + E(nuc-el) + E(el-el) + E(nuc-nuc)
    E(ZPE)  - the the zero temperature vibrational energy from the frequency calculation
    E(vib)  - the the finite temperature correction to E(ZPE) due to population
              of excited vibrational states
    E(rot)  - is the rotational thermal energy
    E(trans)- is the translational thermal energy

Summary of contributions to the inner energy U:
Electronic energy                ...  -1458.54325717 Eh
Zero point energy                ...      0.04802273 Eh      30.13 kcal/mol
Thermal vibrational correction   ...      0.00297153 Eh       1.86 kcal/mol
Thermal rotational correction    ...      0.00141627 Eh       0.89 kcal/mol
Thermal translational correction ...      0.00141627 Eh       0.89 kcal/mol
-----------------------------------------------------------------------
Total thermal energy                  -1458.48943037 Eh

Summary of corrections to the electronic energy:
(perhaps to be used in another calculation)
Total thermal correction                  0.00580407 Eh       3.64 kcal/mol
Non-thermal (ZPE) correction              0.04802273 Eh      30.13 kcal/mol
-----------------------------------------------------------------------
Total correction                          0.05382680 Eh      33.78 kcal/mol

--------
ENTHALPY
--------

The enthalpy is H = U + kB*T
                kB is Boltzmann's constant
Total thermal energy              ...  -1458.48943037 Eh
Thermal Enthalpy correction       ...      0.00094421 Eh       0.59 kcal/mol
-----------------------------------------------------------------------
Total Enthalpy                    ...  -1458.48848616 Eh

Note: Only C1 symmetry has been detected, increase convergence thresholds
      if your molecule has a higher symmetry. Symmetry factor of 1.0 is
      used for the rotational entropy correction.

Note: Rotational entropy computed according to Herzberg
Infrared and Raman Spectra, Chapter V,1, Van Nostrand Reinhold, 1945
Point Group:  C1, Symmetry Number:   1
Rotational constants in cm-1:     0.115209     0.047623     0.034832

Vibrational entropy computed according to the QRRHO of S. Grimme
Chem.Eur.J. 2012 18 9955 using a reference frequency of 100.0 cm-1

-------
ENTROPY
-------

The entropy contributions are T*S = T*(S(el)+S(vib)+S(rot)+S(trans))
     S(el)   - electronic entropy
     S(vib)  - vibrational entropy
     S(rot)  - rotational entropy
     S(trans)- translational entropy
The entropies will be listed as multiplied by the temperature to get
units of energy

Electronic entropy                ...      0.00000000 Eh      0.00 kcal/mol
Vibrational entropy               ...      0.00499724 Eh      3.14 kcal/mol
Rotational entropy                ...      0.01355316 Eh      8.50 kcal/mol
Translational entropy             ...      0.01927944 Eh     12.10 kcal/mol
-----------------------------------------------------------------------
Final entropy term                ...      0.03782984 Eh     23.74 kcal/mol

In case the symmetry of your molecule has not been determined correctly
or in case you have a reason to use a different symmetry number we print
out the resulting rotational entropy values for sn=1,12:

 non-linear molecules -----------------------------------
|  sn= 1 | S(rot)=       0.01355316 Eh      8.50 kcal/mol|
|  sn= 2 | S(rot)=       0.01289870 Eh      8.09 kcal/mol|
|  sn= 3 | S(rot)=       0.01251587 Eh      7.85 kcal/mol|
|  sn= 4 | S(rot)=       0.01224425 Eh      7.68 kcal/mol|
|  sn= 5 | S(rot)=       0.01203356 Eh      7.55 kcal/mol|
|  sn= 6 | S(rot)=       0.01186142 Eh      7.44 kcal/mol|
|  sn= 7 | S(rot)=       0.01171587 Eh      7.35 kcal/mol|
|  sn= 8 | S(rot)=       0.01158979 Eh      7.27 kcal/mol|
|  sn= 9 | S(rot)=       0.01147858 Eh      7.20 kcal/mol|
|  sn=10 | S(rot)=       0.01137910 Eh      7.14 kcal/mol|
|  sn=11 | S(rot)=       0.01128911 Eh      7.08 kcal/mol|
|  sn=12 | S(rot)=       0.01120696 Eh      7.03 kcal/mol|
 linear molecules ---------------------------------------
|  Dinfh | S(rot)=       0.00849563 Eh      5.33 kcal/mol|
|  Cinfv | S(rot)=       0.00915008 Eh      5.74 kcal/mol|
 --------------------------------------------------------

-------------------
GIBBS FREE ENERGY
-------------------

The Gibbs free energy is G = H - T*S

Total enthalpy                    ...  -1458.48848616 Eh
Total entropy correction          ...     -0.03782984 Eh    -23.74 kcal/mol
-----------------------------------------------------------------------
Final Gibbs free energy         ...  -1458.52631600 Eh

For completeness - the Gibbs free energy minus the electronic energy
G-E(el)                           ...      0.01694117 Eh     10.63 kcal/mol

                             ****ORCA TERMINATED NORMALLY****
TOTAL RUN TIME: 0 days 0 hours 2 minutes 42 seconds 216 msec
