                         Program Version 6.0.0  -   RELEASE  -
|  1> ! r2SCAN-3c DEF2-TZVP FREQ
|  2> * xyzfile 0 1 vacuum_censo.xyz
|  3>
|  4>                          ****END OF INPUT****

CARTESIAN COORDINATES (ANGSTROEM)
---------------------------------
  C     -0.649859    0.882804    0.418217
  C      0.392297    0.114397   -0.366704
  Cl     0.393882   -1.629740    0.052447
  Cl     2.001932    0.857769    0.002743
  Cl    -2.313989    0.372836   -0.071211
  H     -0.537252    0.709257    1.489778
  H     -0.556316    1.947677    0.195155
  H      0.242715    0.190479   -1.444672

 Total Charge           Charge          ....    0
 Multiplicity           Mult            ....    1
 Number of Electrons    NEL             ....   66
 Basis Dimension        Dim             ....  191

ORBITAL ENERGIES
----------------

  NO   OCC          E(Eh)            E(eV)
   0   2.0000    -101.207456     -2753.9949
   1   2.0000    -101.203204     -2753.8792
   2   2.0000    -101.197491     -2753.7237
   3   2.0000     -10.181985      -277.0659
   4   2.0000     -10.126179      -275.5473
   5   2.0000      -9.383498      -255.3380
   6   2.0000      -9.379316      -255.2242
   7   2.0000      -9.373205      -255.0579
   8   2.0000      -7.128583      -193.9786
   9   2.0000      -7.124477      -193.8669
  10   2.0000      -7.118351      -193.7002
  11   2.0000      -7.118283      -193.6983
  12   2.0000      -7.118038      -193.6917
  13   2.0000      -7.114086      -193.5841
  14   2.0000      -7.113761      -193.5753
  15   2.0000      -7.107948      -193.4171
  16   2.0000      -7.107783      -193.4126
  17   2.0000      -0.889129       -24.1944
  18   2.0000      -0.823824       -22.4174
  19   2.0000      -0.795237       -21.6395
  20   2.0000      -0.697715       -18.9858
  21   2.0000      -0.599430       -16.3113
  22   2.0000      -0.486922       -13.2498
  23   2.0000      -0.458155       -12.4670
  24   2.0000      -0.445467       -12.1218
  25   2.0000      -0.405170       -11.0252
  26   2.0000      -0.392865       -10.6904
  27   2.0000      -0.317638        -8.6434
  28   2.0000      -0.307833        -8.3765
  29   2.0000      -0.301675        -8.2090
  30   2.0000      -0.290883        -7.9153
  31   2.0000      -0.288119        -7.8401
  32   2.0000      -0.283690        -7.7196
  33   0.0000      -0.053561        -1.4575
  34   0.0000      -0.035205        -0.9580
  35   0.0000       0.002291         0.0623
  36   0.0000       0.053859         1.4656
  37   0.0000       0.067862         1.8466

MULLIKEN ATOMIC CHARGES
-----------------------
   0 C :   -0.099237
   1 C :    0.047217
   2 Cl:   -0.103839
   3 Cl:   -0.120559
   4 Cl:   -0.148132
   5 H :    0.140010
   6 H :    0.140913
   7 H :    0.143627
Sum of atomic charges:   -0.0000000

LOEWDIN ATOMIC CHARGES
----------------------
   0 C :   -0.522171
   1 C :   -0.757602
   2 Cl:    0.314463
   3 Cl:    0.300436
   4 Cl:    0.270867
   5 H :    0.131345
   6 H :    0.132799
   7 H :    0.129864

  Mayer bond orders larger than 0.100000
B(  0-C ,  1-C ) :   0.9913 B(  0-C ,  4-Cl) :   1.0305 B(  0-C ,  5-H ) :   0.9501
B(  0-C ,  6-H ) :   0.9450 B(  1-C ,  2-Cl) :   1.0850 B(  1-C ,  3-Cl) :   1.0471
B(  1-C ,  7-H ) :   0.9503

Dispersion correction           -0.002502239
FINAL SINGLE POINT ENERGY     -1458.543656927725

DIPOLE MOMENT
-------------

Method             : SCF
Type of density    : Electron Density
Multiplicity       :   1
Irrep              :   0
Energy             : -1458.5504578235231747 Eh
Relativity type    :
Basis              : AO
                                X                 Y                 Z
Electronic contribution:      0.957068243      -2.698475625      -0.288713002
Nuclear contribution   :     -0.917619216       3.213431600       0.249571613
                        -----------------------------------------
Total Dipole Moment    :      0.039449027       0.514955975      -0.039141389
                        -----------------------------------------
Magnitude (a.u.)       :      0.517945876
Magnitude (Debye)      :      1.316513791

VIBRATIONAL FREQUENCIES
-----------------------

Scaling factor for frequencies =  1.000000000  (already applied!)

     0:       0.00 cm**-1
     1:       0.00 cm**-1
     2:       0.00 cm**-1
     3:       0.00 cm**-1
     4:       0.00 cm**-1
     5:       0.00 cm**-1
     6:     123.72 cm**-1
     7:     186.75 cm**-1
     8:     252.22 cm**-1
     9:     322.33 cm**-1
    10:     393.05 cm**-1
    11:     638.13 cm**-1
    12:     682.13 cm**-1
    13:     735.19 cm**-1
    14:     936.52 cm**-1
    15:    1054.85 cm**-1
    16:    1175.05 cm**-1
    17:    1220.74 cm**-1
    18:    1281.12 cm**-1
    19:    1326.09 cm**-1
    20:    1459.87 cm**-1
    21:    3068.74 cm**-1
    22:    3113.67 cm**-1
    23:    3145.31 cm**-1

IR SPECTRUM
-----------

 Mode   freq       eps      Int      T**2         TX        TY        TZ
       cm**-1   L/(mol*cm) km/mol    a.u.
----------------------------------------------------------------------------
  6:    123.72   0.000553    2.80  0.001395  ( 0.005999  0.020971 -0.030326)
  7:    186.75   0.000838    4.24  0.001401  ( 0.016073 -0.006457 -0.033179)
  8:    252.22   0.000196    0.99  0.000243  (-0.011644  0.007979  0.006579)
  9:    322.33   0.000298    1.50  0.000288  ( 0.000614  0.016947  0.000750)
 10:    393.05   0.001796    9.08  0.001426  ( 0.020282 -0.029797 -0.011269)
 11:    638.13   0.012770   64.54  0.006245  (-0.016249 -0.077122  0.005767)
 12:    682.13   0.026892  135.90  0.012303  (-0.102821 -0.040714 -0.008531)
 13:    735.19   0.001887    9.54  0.000801  ( 0.010654 -0.025549  0.005888)
 14:    936.52   0.004513   22.81  0.001504  (-0.003603 -0.038045  0.006588)
 15:   1054.85   0.000750    3.79  0.000222  ( 0.004334 -0.013998 -0.002676)
 16:   1175.05   0.000819    4.14  0.000218  ( 0.010740 -0.000673  0.010089)
 17:   1220.74   0.003286   16.61  0.000840  ( 0.019887  0.020247  0.005889)
 18:   1281.12   0.002968   15.00  0.000723  ( 0.014870 -0.020220  0.009642)
 19:   1326.09   0.001333    6.73  0.000314  ( 0.009550  0.014684  0.002597)
 20:   1459.87   0.001485    7.50  0.000317  (-0.007491  0.009026  0.013412)
 21:   3068.74   0.000994    5.02  0.000101  (-0.007878 -0.005483 -0.002999)
 22:   3113.67   0.000143    0.73  0.000014  (-0.002860  0.002488  0.000092)
 23:   3145.31   0.000028    0.14  0.000003  (-0.000870  0.001303 -0.000588)

--------------------------
THERMOCHEMISTRY AT 298.15K
--------------------------

Temperature         ...   298.15 K
Pressure            ...     1.00 atm
Total Mass          ...   133.41 AMU
Quasi RRHO          ...     True
Cut-Off Frequency   ...     1.00 cm^-1

Throughout the following assumptions are being made:
  (1) The electronic state is orbitally nondegenerate
  (2) There are no thermally accessible electronically excited states
  (3) Hindered rotations indicated by low frequency modes are not
      treated as such but are treated as vibrations and this may
      cause some error
  (4) All equations used are the standard statistical mechanics
      equations for an ideal gas
  (5) All vibrations are strictly harmonic

freq.     123.72  E(vib)   ...       0.43
freq.     186.75  E(vib)   ...       0.37
freq.     252.22  E(vib)   ...       0.30
freq.     322.33  E(vib)   ...       0.25
freq.     393.05  E(vib)   ...       0.20
freq.     638.13  E(vib)   ...       0.09
freq.     682.13  E(vib)   ...       0.08
freq.     735.19  E(vib)   ...       0.06
freq.     936.52  E(vib)   ...       0.03
freq.    1054.85  E(vib)   ...       0.02
freq.    1175.05  E(vib)   ...       0.01
freq.    1220.74  E(vib)   ...       0.01
freq.    1281.12  E(vib)   ...       0.01
freq.    1326.09  E(vib)   ...       0.01
freq.    1459.87  E(vib)   ...       0.00
freq.    3068.74  E(vib)   ...       0.00
freq.    3113.67  E(vib)   ...       0.00
freq.    3145.31  E(vib)   ...       0.00

------------
INNER ENERGY
------------

The inner energy is: U= E(el) + E(ZPE) + E(vib) + E(rot) + E(trans)
    E(el)   - is the total energy from the electronic structure calculation
              = E(kin-el) + E(nuc-el) + E(el-el) + E(nuc-nuc)
    E(ZPE)  - the the zero temperature vibrational energy from the frequency calculation
    E(vib)  - the the finite temperature correction to E(ZPE) due to population
              of excited vibrational states
    E(rot)  - is the rotational thermal energy
    E(trans)- is the translational thermal energy

Summary of contributions to the inner energy U:
Electronic energy                ...  -1458.54365693 Eh
Zero point energy                ...      0.04810456 Eh      30.19 kcal/mol
Thermal vibrational correction   ...      0.00296286 Eh       1.86 kcal/mol
Thermal rotational correction    ...      0.00141627 Eh       0.89 kcal/mol
Thermal translational correction ...      0.00141627 Eh       0.89 kcal/mol
-----------------------------------------------------------------------
Total thermal energy                  -1458.48975697 Eh

Summary of corrections to the electronic energy:
(perhaps to be used in another calculation)
Total thermal correction                  0.00579540 Eh       3.64 kcal/mol
Non-thermal (ZPE) correction              0.04810456 Eh      30.19 kcal/mol
-----------------------------------------------------------------------
Total correction                          0.05389996 Eh      33.82 kcal/mol

--------
ENTHALPY
--------

The enthalpy is H = U + kB*T
                kB is Boltzmann's constant
Total thermal energy              ...  -1458.48975697 Eh
Thermal Enthalpy correction       ...      0.00094421 Eh       0.59 kcal/mol
-----------------------------------------------------------------------
Total Enthalpy                    ...  -1458.48881276 Eh

Note: Only C1 symmetry has been detected, increase convergence thresholds
      if your molecule has a higher symmetry. Symmetry factor of 1.0 is
      used for the rotational entropy correction.

Note: Rotational entropy computed according to Herzberg
Infrared and Raman Spectra, Chapter V,1, Van Nostrand Reinhold, 1945
Point Group:  C1, Symmetry Number:   1
Rotational constants in cm-1:     0.114342     0.047707     0.034825

Vibrational entropy computed according to the QRRHO of S. Grimme
Chem.Eur.J. 2012 18 9955 using a reference frequency of 100.0 cm-1

-------
ENTROPY
-------

The entropy contributions are T*S = T*(S(el)+S(vib)+S(rot)+S(trans))
     S(el)   - electronic entropy
     S(vib)  - vibrational entropy
     S(rot)  - rotational entropy
     S(trans)- translational entropy
The entropies will be listed as multiplied by the temperature to get
units of energy

Electronic entropy                ...      0.00000000 Eh      0.00 kcal/mol
Vibrational entropy               ...      0.00500097 Eh      3.14 kcal/mol
Rotational entropy                ...      0.01355599 Eh      8.51 kcal/mol
Translational entropy             ...      0.01927944 Eh     12.10 kcal/mol
-----------------------------------------------------------------------
Final entropy term                ...      0.03783640 Eh     23.74 kcal/mol

In case the symmetry of your molecule has not been determined correctly
or in case you have a reason to use a different symmetry number we print
out the resulting rotational entropy values for sn=1,12:

 non-linear molecules -----------------------------------
|  sn= 1 | S(rot)=       0.01355599 Eh      8.51 kcal/mol|
|  sn= 2 | S(rot)=       0.01290153 Eh      8.10 kcal/mol|
|  sn= 3 | S(rot)=       0.01251870 Eh      7.86 kcal/mol|
|  sn= 4 | S(rot)=       0.01224708 Eh      7.69 kcal/mol|
|  sn= 5 | S(rot)=       0.01203639 Eh      7.55 kcal/mol|
|  sn= 6 | S(rot)=       0.01186425 Eh      7.44 kcal/mol|
|  sn= 7 | S(rot)=       0.01171870 Eh      7.35 kcal/mol|
|  sn= 8 | S(rot)=       0.01159262 Eh      7.27 kcal/mol|
|  sn= 9 | S(rot)=       0.01148141 Eh      7.20 kcal/mol|
|  sn=10 | S(rot)=       0.01138193 Eh      7.14 kcal/mol|
|  sn=11 | S(rot)=       0.01129194 Eh      7.09 kcal/mol|
|  sn=12 | S(rot)=       0.01120979 Eh      7.03 kcal/mol|
 linear molecules ---------------------------------------
|  Dinfh | S(rot)=       0.00849582 Eh      5.33 kcal/mol|
|  Cinfv | S(rot)=       0.00915028 Eh      5.74 kcal/mol|
 --------------------------------------------------------

-------------------
GIBBS FREE ENERGY
-------------------

The Gibbs free energy is G = H - T*S

Total enthalpy                    ...  -1458.48881276 Eh
Total entropy correction          ...     -0.03783640 Eh    -23.74 kcal/mol
-----------------------------------------------------------------------
Final Gibbs free energy         ...  -1458.52664916 Eh

For completeness - the Gibbs free energy minus the electronic energy
G-E(el)                           ...      0.01700777 Eh     10.67 kcal/mol

                             ****ORCA TERMINATED NORMALLY****
TOTAL RUN TIME: 0 days 0 hours 2 minutes 44 seconds 103 msec
