                         Program Version 6.0.1  -  RELEASE   -
|  1> ! pbe def2-sv(p) def2/J RI DEFGRID1 loosescf d4 GCP(DFT/SV(P)) printgap
|  2> %output
|  3>     printlevel normal
|  4> end
|  5> * xyz 0 1
|  6> C -2.0421486226 -1.1313790896 -0.1722071975
|  7> C -1.0497884262 -0.4600016051 0.804382399
|  8> H -1.5201256772 -0.4766566471 1.7949641377
|  9> C -0.7558612763 1.0294499731 0.4938296458
| 10> H -1.6498704305 1.4639013713 0.0303279671
| 11> C 0.4481480084 1.2351761845 -0.4456488766
| 12> H 0.7586443597 2.2859212883 -0.3426927846
| 13> C 1.6276315524 0.3482960028 0.0008922637
| 14> H 2.4291138366 0.4305744374 -0.7489342588
| 15> C 1.1586066147 -1.1168306923 0.063621483
| 16> H 1.9478368525 -1.7554628207 0.488469785
| 17> O 0.1137773302 -1.2461993097 1.0000613019
| 18> O 0.864228993 -1.6234199007 -1.1907554069
| 19> O 2.0607638748 0.8043129821 1.2622848193
| 20> O 0.1712944338 0.9813405479 -1.804205644
| 21> O -0.5601196136 1.7441255268 1.6840303237
| 22> O -2.026184942 -0.5317277418 -1.458692774
| 23> H -3.0543290015 -1.0504010226 0.2434262487
| 24> H -1.766172372 -2.188874834 -0.2374093687
| 25> H 0.4833413751 -0.9089276781 -1.7331566993
| 26> H 2.6991898495 0.1788094195 1.6229566541
| 27> H -0.759502294 0.7153097885 -1.8869101741
| 28> H 0.3198982169 1.51636976 2.0214766426
| 29> H -2.4796445538 -1.1137456342 -2.0765051149
| 30> *
| 31>
| 32>                          ****END OF INPUT****

CARTESIAN COORDINATES (ANGSTROEM)
---------------------------------
  C     -2.042149   -1.131379   -0.172207
  C     -1.049788   -0.460002    0.804382
  H     -1.520126   -0.476657    1.794964
  C     -0.755861    1.029450    0.493830
  H     -1.649870    1.463901    0.030328
  C      0.448148    1.235176   -0.445649
  H      0.758644    2.285921   -0.342693
  C      1.627632    0.348296    0.000892
  H      2.429114    0.430574   -0.748934
  C      1.158607   -1.116831    0.063621
  H      1.947837   -1.755463    0.488470
  O      0.113777   -1.246199    1.000061
  O      0.864229   -1.623420   -1.190755
  O      2.060764    0.804313    1.262285
  O      0.171294    0.981341   -1.804206
  O     -0.560120    1.744126    1.684030
  O     -2.026185   -0.531728   -1.458693
  H     -3.054329   -1.050401    0.243426
  H     -1.766172   -2.188875   -0.237409
  H      0.483341   -0.908928   -1.733157
  H      2.699190    0.178809    1.622957
  H     -0.759502    0.715310   -1.886910
  H      0.319898    1.516370    2.021477
  H     -2.479645   -1.113746   -2.076505

 Total Charge           Charge          ....    0
 Multiplicity           Mult            ....    1
 Number of Electrons    NEL             ....   96
 Basis Dimension        Dim             ....  192

ORBITAL ENERGIES
----------------

  NO   OCC          E(Eh)            E(eV)
   0   2.0000     -18.787730      -511.2401
   1   2.0000     -18.774668      -510.8847
   2   2.0000     -18.758970      -510.4575
   3   2.0000     -18.758168      -510.4357
   4   2.0000     -18.746841      -510.1275
   5   2.0000     -18.736254      -509.8394
   6   2.0000      -9.981897      -271.6212
   7   2.0000      -9.946959      -270.6705
   8   2.0000      -9.946434      -270.6562
   9   2.0000      -9.946305      -270.6527
  10   2.0000      -9.946172      -270.6491
  11   2.0000      -9.945580      -270.6330
  12   2.0000      -0.979484       -26.6531
  13   2.0000      -0.956744       -26.0343
  14   2.0000      -0.944724       -25.7073
  15   2.0000      -0.935087       -25.4450
  16   2.0000      -0.921029       -25.0625
  17   2.0000      -0.901831       -24.5401
  18   2.0000      -0.702363       -19.1123
  19   2.0000      -0.691944       -18.8287
  20   2.0000      -0.621525       -16.9125
  21   2.0000      -0.599014       -16.3000
  22   2.0000      -0.569392       -15.4940
  23   2.0000      -0.528318       -14.3763
  24   2.0000      -0.501737       -13.6530
  25   2.0000      -0.496283       -13.5046
  26   2.0000      -0.480230       -13.0677
  27   2.0000      -0.463977       -12.6255
  28   2.0000      -0.442021       -12.0280
  29   2.0000      -0.433549       -11.7975
  30   2.0000      -0.418753       -11.3948
  31   2.0000      -0.409173       -11.1342
  32   2.0000      -0.400093       -10.8871
  33   2.0000      -0.377081       -10.2609
  34   2.0000      -0.361729        -9.8432
  35   2.0000      -0.350620        -9.5409
  36   2.0000      -0.332881        -9.0581
  37   2.0000      -0.330216        -8.9856
  38   2.0000      -0.317173        -8.6307
  39   2.0000      -0.302233        -8.2242
  40   2.0000      -0.283584        -7.7167
  41   2.0000      -0.271143        -7.3782
  42   2.0000      -0.257678        -7.0118
  43   2.0000      -0.245890        -6.6910
  44   2.0000      -0.235507        -6.4085
  45   2.0000      -0.226474        -6.1627
  46   2.0000      -0.216208        -5.8833
  47   2.0000      -0.202669        -5.5149
  48   0.0000       0.002117         0.0576
  49   0.0000       0.013544         0.3685
  50   0.0000       0.047729         1.2988
  51   0.0000       0.056702         1.5429
  52   0.0000       0.070815         1.9270

MULLIKEN ATOMIC CHARGES
-----------------------
   0 C :    0.028977
   1 C :    0.037090
   2 H :    0.083446
   3 C :    0.030538
   4 H :    0.084038
   5 C :    0.023183
   6 H :    0.088089
   7 C :    0.030617
   8 H :    0.086970
   9 C :    0.168928
  10 H :    0.055983
  11 O :   -0.304144
  12 O :   -0.401268
  13 O :   -0.420289
  14 O :   -0.428000
  15 O :   -0.428234
  16 O :   -0.456844
  17 H :    0.083747
  18 H :    0.100770
  19 H :    0.283440
  20 H :    0.310832
  21 H :    0.317423
  22 H :    0.303306
  23 H :    0.321402
Sum of atomic charges:    0.0000000

LOEWDIN ATOMIC CHARGES
----------------------
   0 C :   -0.136264
   1 C :   -0.071046
   2 H :    0.127968
   3 C :   -0.071745
   4 H :    0.118445
   5 C :   -0.067417
   6 H :    0.114696
   7 C :   -0.092102
   8 H :    0.110960
   9 C :   -0.013752
  10 H :    0.098301
  11 O :   -0.148141
  12 O :   -0.312120
  13 O :   -0.307333
  14 O :   -0.320352
  15 O :   -0.317931
  16 O :   -0.334323
  17 H :    0.106061
  18 H :    0.115330
  19 H :    0.262435
  20 H :    0.292061
  21 H :    0.273317
  22 H :    0.273932
  23 H :    0.299019

  Mayer bond orders larger than 0.100000
B(  0-C ,  1-C ) :   1.0494 B(  0-C , 16-O ) :   1.0114 B(  0-C , 17-H ) :   0.9167
B(  0-C , 18-H ) :   0.9153 B(  1-C ,  2-H ) :   0.8927 B(  1-C ,  3-C ) :   0.9748
B(  1-C , 11-O ) :   1.0320 B(  3-C ,  4-H ) :   0.8936 B(  3-C ,  5-C ) :   1.0084
B(  3-C , 15-O ) :   1.0548 B(  5-C ,  6-H ) :   0.9022 B(  5-C ,  7-C ) :   0.9782
B(  5-C , 14-O ) :   1.0566 B(  7-C ,  8-H ) :   0.8981 B(  7-C ,  9-C ) :   0.9819
B(  7-C , 13-O ) :   1.0144 B(  9-C , 10-H ) :   0.9091 B(  9-C , 11-O ) :   1.0360
B(  9-C , 12-O ) :   1.1578 B( 12-O , 19-H ) :   0.7806 B( 13-O , 20-H ) :   0.8405
B( 14-O , 19-H ) :   0.1428 B( 14-O , 21-H ) :   0.7794 B( 15-O , 22-H ) :   0.8157
B( 16-O , 21-H ) :   0.1180 B( 16-O , 23-H ) :   0.8375

Dispersion correction           -0.026743570
FINAL SINGLE POINT ENERGY      -685.698690632989

DIPOLE MOMENT
-------------

Method             : SCF
Type of density    : Electron Density
Multiplicity       :   1
Irrep              :   0
Energy             :  -685.8353179723779931 Eh
Relativity type    :
Basis              : AO
                                X                 Y                 Z
Electronic contribution:      2.029020560       0.226549749       0.540122274
Nuclear contribution   :     -2.422139602      -0.845436244      -0.780555005
                        -----------------------------------------
Total Dipole Moment    :     -0.393119041      -0.618886495      -0.240432731
                        -----------------------------------------
Magnitude (a.u.)       :      0.771602859
Magnitude (Debye)      :      1.961258605

Rotational constants in cm-1:             0.040619             0.031410             0.027837
Rotational constants in MHz :          1217.740709           941.641621           834.528686

                             ****ORCA TERMINATED NORMALLY****
TOTAL RUN TIME: 0 days 0 hours 0 minutes 17 seconds 633 msec
