                         Program Version 6.0.1  -  RELEASE   -
|  1> ! pbe def2-sv(p) def2/J RI DEFGRID1 loosescf d4 GCP(DFT/SV(P)) printgap
|  2> %output
|  3>     printlevel normal
|  4> end
|  5> * xyz 0 1
|  6> C -1.9171512603 0.5357197678 -0.2530654632
|  7> C -1.3088859299 -0.3769839659 0.4820523978
|  8> C 0.0293448434 -0.9582033496 0.1555032144
|  9> Cl 1.2452105316 0.3278949648 -0.1436169273
| 10> H -2.8813763071 0.9299182423 0.0156044778
| 11> H -1.4641880145 0.9344018787 -1.1456779318
| 12> H -1.7697814578 -0.7533558775 1.3849258416
| 13> H 0.4160589191 -1.5639226197 0.9734180811
| 14> H -0.006613724 -1.5536449299 -0.7584423669
| 15> *
| 16>
| 17>                          ****END OF INPUT****

CARTESIAN COORDINATES (ANGSTROEM)
---------------------------------
  C     -1.917151    0.535720   -0.253065
  C     -1.308886   -0.376984    0.482052
  C      0.029345   -0.958203    0.155503
  Cl     1.245211    0.327895   -0.143617
  H     -2.881376    0.929918    0.015604
  H     -1.464188    0.934402   -1.145678
  H     -1.769781   -0.753356    1.384926
  H      0.416059   -1.563923    0.973418
  H     -0.006614   -1.553645   -0.758442

 Total Charge           Charge          ....    0
 Multiplicity           Mult            ....    1
 Number of Electrons    NEL             ....   40
 Basis Dimension        Dim             ....   70

ORBITAL ENERGIES
----------------

  NO   OCC          E(Eh)            E(eV)
   0   2.0000    -100.617466     -2737.9404
   1   2.0000      -9.945552      -270.6322
   2   2.0000      -9.903601      -269.4907
   3   2.0000      -9.891493      -269.1612
   4   2.0000      -9.153454      -249.0782
   5   2.0000      -6.985257      -190.0785
   6   2.0000      -6.973019      -189.7455
   7   2.0000      -6.972862      -189.7412
   8   2.0000      -0.779668       -21.2158
   9   2.0000      -0.696066       -18.9409
  10   2.0000      -0.606439       -16.5020
  11   2.0000      -0.502568       -13.6756
  12   2.0000      -0.442995       -12.0545
  13   2.0000      -0.408043       -11.1034
  14   2.0000      -0.385470       -10.4892
  15   2.0000      -0.357268        -9.7218
  16   2.0000      -0.324131        -8.8200
  17   2.0000      -0.259318        -7.0564
  18   2.0000      -0.244208        -6.6452
  19   2.0000      -0.232679        -6.3315
  20   0.0000      -0.048060        -1.3078
  21   0.0000       0.028275         0.7694
  22   0.0000       0.044474         1.2102
  23   0.0000       0.082997         2.2585
  24   0.0000       0.090905         2.4737

MULLIKEN ATOMIC CHARGES
-----------------------
   0 C :   -0.176986
   1 C :   -0.131014
   2 C :   -0.135372
   3 Cl:   -0.148202
   4 H :    0.108384
   5 H :    0.106520
   6 H :    0.089448
   7 H :    0.134335
   8 H :    0.152887
Sum of atomic charges:   -0.0000000

LOEWDIN ATOMIC CHARGES
----------------------
   0 C :   -0.227991
   1 C :   -0.168812
   2 C :   -0.272453
   3 Cl:    0.028290
   4 H :    0.127047
   5 H :    0.123343
   6 H :    0.126444
   7 H :    0.127800
   8 H :    0.136332

  Mayer bond orders larger than 0.100000
B(  0-C ,  1-C ) :   2.0698 B(  0-C ,  4-H ) :   0.9256 B(  0-C ,  5-H ) :   0.9240
B(  1-C ,  2-C ) :   1.0634 B(  1-C ,  6-H ) :   0.9339 B(  2-C ,  3-Cl) :   1.0345
B(  2-C ,  7-H ) :   0.9288 B(  2-C ,  8-H ) :   0.9186

Dispersion correction           -0.006145942
FINAL SINGLE POINT ENERGY      -576.869924261127

DIPOLE MOMENT
-------------

Method             : SCF
Type of density    : Electron Density
Multiplicity       :   1
Irrep              :   0
Energy             :  -576.8969865702590596 Eh
Relativity type    :
Basis              : AO
                                X                 Y                 Z
Electronic contribution:      6.552992779       1.866941452      -0.528696305
Nuclear contribution   :     -7.024447243      -2.322642182       0.633543298
                        -----------------------------------------
Total Dipole Moment    :     -0.471454463      -0.455700729       0.104846994
                        -----------------------------------------
Magnitude (a.u.)       :      0.664022106
Magnitude (Debye)      :      1.687810062

Rotational constants in cm-1:             0.471103             0.121119             0.101953
Rotational constants in MHz :         14123.308016          3631.065999          3056.477832

                             ****ORCA TERMINATED NORMALLY****
TOTAL RUN TIME: 0 days 0 hours 0 minutes 3 seconds 681 msec
