                         Program Version 6.0.1  -  RELEASE   -
|  1> ! r2scan-3c def2/J RI DEFGRID2 scfconv6 printgap
|  2> %output
|  3>     printlevel normal
|  4> end
|  5> * xyz 0 1
|  6> C -0.6110628771 0.0111860443 0.4650710593
|  7> C 0.6110935907 -0.0118184235 -0.4651550613
|  8> O 1.8232114614 0.0132478695 0.2449614842
|  9> O -1.8232398497 -0.0127193728 -0.2449751354
| 10> H -0.5500835008 0.8916874804 1.1205039963
| 11> H -0.6194584698 -0.8861712375 1.0912835833
| 12> H 0.6191703383 0.884963133 -1.0921509478
| 13> H 0.5505757148 -0.8929616603 -1.11987479
| 14> H 1.8739097363 -0.7681335288 0.8067441986
| 15> H -1.8740291919 0.7697624311 -0.8052883025
| 16> *
| 17>
| 18>                          ****END OF INPUT****

CARTESIAN COORDINATES (ANGSTROEM)
---------------------------------
  C     -0.611063    0.011186    0.465071
  C      0.611094   -0.011818   -0.465155
  O      1.823211    0.013248    0.244961
  O     -1.823240   -0.012719   -0.244975
  H     -0.550084    0.891687    1.120504
  H     -0.619458   -0.886171    1.091284
  H      0.619170    0.884963   -1.092151
  H      0.550576   -0.892962   -1.119875
  H      1.873910   -0.768134    0.806744
  H     -1.874029    0.769762   -0.805288

 Total Charge           Charge          ....    0
 Multiplicity           Mult            ....    1
 Number of Electrons    NEL             ....   34
 Basis Dimension        Dim             ....  116

ORBITAL ENERGIES
----------------

  NO   OCC          E(Eh)            E(eV)
   0   2.0000     -18.957214      -515.8520
   1   2.0000     -18.957203      -515.8517
   2   2.0000     -10.080623      -274.3077
   3   2.0000     -10.080503      -274.3044
   4   2.0000      -1.001510       -27.2525
   5   2.0000      -0.990735       -26.9593
   6   2.0000      -0.700064       -19.0497
   7   2.0000      -0.603784       -16.4298
   8   2.0000      -0.485896       -13.2219
   9   2.0000      -0.483928       -13.1683
  10   2.0000      -0.436587       -11.8801
  11   2.0000      -0.390137       -10.6162
  12   2.0000      -0.371453       -10.1077
  13   2.0000      -0.338715        -9.2169
  14   2.0000      -0.292498        -7.9593
  15   2.0000      -0.264176        -7.1886
  16   2.0000      -0.231493        -6.2992
  17   0.0000       0.037121         1.0101
  18   0.0000       0.072859         1.9826
  19   0.0000       0.116121         3.1598
  20   0.0000       0.141028         3.8376
  21   0.0000       0.147276         4.0076

MULLIKEN ATOMIC CHARGES
-----------------------
   0 C :   -0.146814
   1 C :   -0.146536
   2 O :   -0.415034
   3 O :   -0.415046
   4 H :    0.138970
   5 H :    0.126757
   6 H :    0.126724
   7 H :    0.138941
   8 H :    0.296002
   9 H :    0.296035
Sum of atomic charges:    0.0000000

LOEWDIN ATOMIC CHARGES
----------------------
   0 C :    0.011576
   1 C :    0.011594
   2 O :   -0.608867
   3 O :   -0.608852
   4 H :    0.159930
   5 H :    0.172673
   6 H :    0.172675
   7 H :    0.159923
   8 H :    0.264661
   9 H :    0.264687

  Mayer bond orders larger than 0.100000
B(  0-C ,  1-C ) :   0.9173 B(  0-C ,  3-O ) :   0.9458 B(  0-C ,  4-H ) :   0.9712
B(  0-C ,  5-H ) :   0.9673 B(  1-C ,  2-O ) :   0.9456 B(  1-C ,  6-H ) :   0.9673
B(  1-C ,  7-H ) :   0.9711 B(  2-O ,  8-H ) :   0.8970 B(  3-O ,  9-H ) :   0.8970

Dispersion correction           -0.001550949
FINAL SINGLE POINT ENERGY      -230.206619885740

DIPOLE MOMENT
-------------

Method             : SCF
Type of density    : Electron Density
Multiplicity       :   1
Irrep              :   0
Energy             :  -230.2124018814312478 Eh
Relativity type    :
Basis              : AO
                                X                 Y                 Z
Electronic contribution:     -0.000186425       0.001046051      -0.000330511
Nuclear contribution   :      0.000078973      -0.000792780       0.001142240
                        -----------------------------------------
Total Dipole Moment    :     -0.000107452       0.000253271       0.000811728
                        -----------------------------------------
Magnitude (a.u.)       :      0.000857085
Magnitude (Debye)      :      0.002178537

Rotational constants in cm-1:             0.983493             0.131009             0.122801
Rotational constants in MHz :         29484.386648          3927.551644          3681.493326

                             ****ORCA TERMINATED NORMALLY****
TOTAL RUN TIME: 0 days 0 hours 0 minutes 11 seconds 551 msec
