                         Program Version 6.0.1  -  RELEASE   -
|  1> ! r2scan-3c def2/J RI DEFGRID2 scfconv6 printgap
|  2> %output
|  3>     printlevel normal
|  4> end
|  5> * xyz 0 1
|  6> C -1.8418321202 1.4421062909 -0.0001276136
|  7> C -0.5330797954 0.7176979519 -4.79629e-05
|  8> C 0.6718122413 1.4056807196 0.0001222663
|  9> C 1.8665830563 0.7033766965 0.0001331776
| 10> C 1.8046305313 -0.6792164328 -6.50619e-05
| 11> N 0.6659726644 -1.3495160606 -0.0001351786
| 12> C -0.4785489846 -0.6829408905 -8.73525e-05
| 13> C -1.7244341961 -1.5118312536 0.000193002
| 14> H -1.6855921513 2.5183040548 -2.95227e-05
| 15> H -2.4267151839 1.174770152 -0.8797650534
| 16> H -2.4269572888 1.1746275952 0.8793069718
| 17> H 0.6743406736 2.4875187516 0.0002233681
| 18> H 2.8153529583 1.2173025278 0.0001830112
| 19> H 2.7015999351 -1.284926623 -0.0003503858
| 20> H -2.3274565312 -1.2964854684 -0.8807060201
| 21> H -1.4533806039 -2.563205552 0.0002980796
| 22> H -2.3272534669 -1.2962991112 0.881282672
| 23> *
| 24>
| 25>                          ****END OF INPUT****

CARTESIAN COORDINATES (ANGSTROEM)
---------------------------------
  C     -1.841832    1.442106   -0.000128
  C     -0.533080    0.717698   -0.000048
  C      0.671812    1.405681    0.000122
  C      1.866583    0.703377    0.000133
  C      1.804631   -0.679216   -0.000065
  N      0.665973   -1.349516   -0.000135
  C     -0.478549   -0.682941   -0.000087
  C     -1.724434   -1.511831    0.000193
  H     -1.685592    2.518304   -0.000030
  H     -2.426715    1.174770   -0.879765
  H     -2.426957    1.174628    0.879307
  H      0.674341    2.487519    0.000223
  H      2.815353    1.217303    0.000183
  H      2.701600   -1.284927   -0.000350
  H     -2.327457   -1.296485   -0.880706
  H     -1.453381   -2.563206    0.000298
  H     -2.327253   -1.296299    0.881283

 Total Charge           Charge          ....    0
 Multiplicity           Mult            ....    1
 Number of Electrons    NEL             ....   58
 Basis Dimension        Dim             ....  202

ORBITAL ENERGIES
----------------

  NO   OCC          E(Eh)            E(eV)
   0   2.0000     -14.144903      -384.9024
   1   2.0000     -10.068386      -273.9747
   2   2.0000     -10.057610      -273.6815
   3   2.0000     -10.047435      -273.4046
   4   2.0000     -10.045401      -273.3493
   5   2.0000     -10.036546      -273.1083
   6   2.0000     -10.035687      -273.0849
   7   2.0000     -10.023141      -272.7435
   8   2.0000      -0.911082       -24.7918
   9   2.0000      -0.782966       -21.3056
  10   2.0000      -0.756862       -20.5953
  11   2.0000      -0.688264       -18.7286
  12   2.0000      -0.654339       -17.8055
  13   2.0000      -0.580533       -15.7971
  14   2.0000      -0.567318       -15.4375
  15   2.0000      -0.474720       -12.9178
  16   2.0000      -0.464369       -12.6361
  17   2.0000      -0.417871       -11.3709
  18   2.0000      -0.413852       -11.2615
  19   2.0000      -0.379024       -10.3138
  20   2.0000      -0.378937       -10.3114
  21   2.0000      -0.374497       -10.1906
  22   2.0000      -0.369388       -10.0516
  23   2.0000      -0.349655        -9.5146
  24   2.0000      -0.343740        -9.3536
  25   2.0000      -0.318793        -8.6748
  26   2.0000      -0.261553        -7.1172
  27   2.0000      -0.228037        -6.2052
  28   2.0000      -0.216411        -5.8888
  29   0.0000      -0.044397        -1.2081
  30   0.0000      -0.032493        -0.8842
  31   0.0000       0.077244         2.1019
  32   0.0000       0.095353         2.5947
  33   0.0000       0.111283         3.0282

MULLIKEN ATOMIC CHARGES
-----------------------
   0 C :   -0.540661
   1 C :    0.133745
   2 C :   -0.223950
   3 C :   -0.110097
   4 C :   -0.103794
   5 N :   -0.171527
   6 C :    0.247018
   7 C :   -0.627440
   8 H :    0.150183
   9 H :    0.165477
  10 H :    0.165442
  11 H :    0.146565
  12 H :    0.147051
  13 H :    0.132852
  14 H :    0.153591
  15 H :    0.181939
  16 H :    0.153607
Sum of atomic charges:   -0.0000000

LOEWDIN ATOMIC CHARGES
----------------------
   0 C :   -0.385424
   1 C :   -0.077270
   2 C :   -0.126572
   3 C :   -0.153801
   4 C :    0.075937
   5 N :   -0.624355
   6 C :    0.130346
   7 C :   -0.358843
   8 H :    0.160059
   9 H :    0.166038
  10 H :    0.166034
  11 H :    0.168910
  12 H :    0.168944
  13 H :    0.183300
  14 H :    0.164467
  15 H :    0.177756
  16 H :    0.164475

  Mayer bond orders larger than 0.100000
B(  0-C ,  1-C ) :   0.7661 B(  0-C ,  8-H ) :   0.9857 B(  0-C ,  9-H ) :   0.9804
B(  0-C , 10-H ) :   0.9803 B(  1-C ,  2-C ) :   1.3980 B(  1-C ,  6-C ) :   1.3790
B(  2-C ,  3-C ) :   1.4335 B(  2-C , 11-H ) :   0.9453 B(  3-C ,  4-C ) :   1.3668
B(  3-C , 12-H ) :   0.9346 B(  4-C ,  5-N ) :   1.4474 B(  4-C , 13-H ) :   0.9817
B(  5-N ,  6-C ) :   1.3489 B(  5-N ,  7-C ) :   0.1027 B(  6-C ,  7-C ) :   0.8241
B(  7-C , 14-H ) :   0.9728 B(  7-C , 15-H ) :   0.9919 B(  7-C , 16-H ) :   0.9728

Dispersion correction           -0.005382969
FINAL SINGLE POINT ENERGY      -326.823597041236

DIPOLE MOMENT
-------------

Method             : SCF
Type of density    : Electron Density
Multiplicity       :   1
Irrep              :   0
Energy             :  -326.8260881174738870 Eh
Relativity type    :
Basis              : AO
                                X                 Y                 Z
Electronic contribution:      5.722697578      -1.225605243      -0.000381070
Nuclear contribution   :     -6.053222359       1.992406582       0.000414981
                        -----------------------------------------
Total Dipole Moment    :     -0.330524780       0.766801339       0.000033911
                        -----------------------------------------
Magnitude (a.u.)       :      0.835003548
Magnitude (Debye)      :      2.122410349

Rotational constants in cm-1:             0.107613             0.075956             0.045275
Rotational constants in MHz :          3226.149269          2277.109431          1357.300986

                             ****ORCA TERMINATED NORMALLY****
TOTAL RUN TIME: 0 days 0 hours 0 minutes 17 seconds 546 msec
