                         Program Version 6.0.1  -  RELEASE   -
|  1> ! r2scan-3c def2/J RI DEFGRID2 scfconv6 printgap
|  2> %output
|  3>     printlevel normal
|  4> end
|  5> * xyz 0 1
|  6> C -2.1788860232 -0.9097778291 -0.1373689416
|  7> C -1.1104094162 -0.3328546668 0.8136886499
|  8> H -1.5659329783 -0.3098747024 1.811693426
|  9> C -0.72139208 1.1282005667 0.4785354868
| 10> H -1.5805251541 1.6099577925 -0.0041821029
| 11> C 0.4914592149 1.2409413351 -0.4738050353
| 12> H 0.84328262 2.2807561265 -0.4147462541
| 13> C 1.6116737873 0.3137477067 0.0097298295
| 14> H 2.4323246865 0.3208605742 -0.7260561358
| 15> C 1.0689297258 -1.1317658705 0.1041866618
| 16> H 1.8397959481 -1.7739066644 0.5635226357
| 17> O -0.006669578 -1.2221712722 0.9825408822
| 18> O 0.8251862572 -1.6271232751 -1.1813398584
| 19> O 2.0562216262 0.7786248065 1.2621476622
| 20> O 0.1273816942 0.976662778 -1.8102031032
| 21> O -0.4902888946 1.8617906746 1.6493223465
| 22> O -1.7837600285 -0.9999538028 -1.4844563348
| 23> H -3.0859465543 -0.3004922667 -0.0408672266
| 24> H -2.4053782324 -1.9324620599 0.1741793037
| 25> H -0.1465023802 -1.6861075186 -1.3269785883
| 26> H 2.6615633751 0.1336336782 1.6456980858
| 27> H 0.5872515213 0.1745007871 -2.106094944
| 28> H 0.3803147411 1.6089923466 1.9926191736
| 29> H -1.523872964 -0.1166370924 -1.8038098467
| 30> *
| 31>
| 32>                          ****END OF INPUT****

CARTESIAN COORDINATES (ANGSTROEM)
---------------------------------
  C     -2.178886   -0.909778   -0.137369
  C     -1.110409   -0.332855    0.813689
  H     -1.565933   -0.309875    1.811693
  C     -0.721392    1.128201    0.478535
  H     -1.580525    1.609958   -0.004182
  C      0.491459    1.240941   -0.473805
  H      0.843283    2.280756   -0.414746
  C      1.611674    0.313748    0.009730
  H      2.432325    0.320861   -0.726056
  C      1.068930   -1.131766    0.104187
  H      1.839796   -1.773907    0.563523
  O     -0.006670   -1.222171    0.982541
  O      0.825186   -1.627123   -1.181340
  O      2.056222    0.778625    1.262148
  O      0.127382    0.976663   -1.810203
  O     -0.490289    1.861791    1.649322
  O     -1.783760   -0.999954   -1.484456
  H     -3.085947   -0.300492   -0.040867
  H     -2.405378   -1.932462    0.174179
  H     -0.146502   -1.686108   -1.326979
  H      2.661563    0.133634    1.645698
  H      0.587252    0.174501   -2.106095
  H      0.380315    1.608992    1.992619
  H     -1.523873   -0.116637   -1.803810

 Total Charge           Charge          ....    0
 Multiplicity           Mult            ....    1
 Number of Electrons    NEL             ....   96
 Basis Dimension        Dim             ....  318

ORBITAL ENERGIES
----------------

  NO   OCC          E(Eh)            E(eV)
   0   2.0000     -18.988091      -516.6922
   1   2.0000     -18.978223      -516.4237
   2   2.0000     -18.973859      -516.3050
   3   2.0000     -18.972748      -516.2747
   4   2.0000     -18.959273      -515.9080
   5   2.0000     -18.948428      -515.6129
   6   2.0000     -10.146717      -276.1062
   7   2.0000     -10.106795      -275.0199
   8   2.0000     -10.103026      -274.9173
   9   2.0000     -10.097654      -274.7711
  10   2.0000     -10.096887      -274.7503
  11   2.0000     -10.092625      -274.6343
  12   2.0000      -1.058847       -28.8127
  13   2.0000      -1.025114       -27.8948
  14   2.0000      -1.016068       -27.6486
  15   2.0000      -1.006183       -27.3796
  16   2.0000      -0.995053       -27.0768
  17   2.0000      -0.977610       -26.6021
  18   2.0000      -0.754649       -20.5350
  19   2.0000      -0.746169       -20.3043
  20   2.0000      -0.670765       -18.2525
  21   2.0000      -0.637577       -17.3493
  22   2.0000      -0.620328       -16.8800
  23   2.0000      -0.557021       -15.1573
  24   2.0000      -0.524789       -14.2802
  25   2.0000      -0.519036       -14.1237
  26   2.0000      -0.500767       -13.6265
  27   2.0000      -0.485745       -13.2178
  28   2.0000      -0.471415       -12.8279
  29   2.0000      -0.463199       -12.6043
  30   2.0000      -0.452447       -12.3117
  31   2.0000      -0.445918       -12.1340
  32   2.0000      -0.415989       -11.3196
  33   2.0000      -0.405998       -11.0478
  34   2.0000      -0.397394       -10.8136
  35   2.0000      -0.369840       -10.0639
  36   2.0000      -0.366651        -9.9771
  37   2.0000      -0.354197        -9.6382
  38   2.0000      -0.341377        -9.2893
  39   2.0000      -0.333911        -9.0862
  40   2.0000      -0.325003        -8.8438
  41   2.0000      -0.308342        -8.3904
  42   2.0000      -0.284434        -7.7398
  43   2.0000      -0.275434        -7.4949
  44   2.0000      -0.271061        -7.3760
  45   2.0000      -0.249224        -6.7817
  46   2.0000      -0.240308        -6.5391
  47   2.0000      -0.225823        -6.1449
  48   0.0000       0.016570         0.4509
  49   0.0000       0.044829         1.2199
  50   0.0000       0.068682         1.8689
  51   0.0000       0.074804         2.0355
  52   0.0000       0.082062         2.2330

MULLIKEN ATOMIC CHARGES
-----------------------
   0 C :   -0.223589
   1 C :    0.058498
   2 H :    0.177083
   3 C :   -0.176023
   4 H :    0.175142
   5 C :    0.052155
   6 H :    0.171162
   7 C :   -0.107176
   8 H :    0.167993
   9 C :   -0.094077
  10 H :    0.137029
  11 O :   -0.172275
  12 O :   -0.453074
  13 O :   -0.404596
  14 O :   -0.452204
  15 O :   -0.401616
  16 O :   -0.482920
  17 H :    0.142200
  18 H :    0.157373
  19 H :    0.411632
  20 H :    0.301332
  21 H :    0.340275
  22 H :    0.330880
  23 H :    0.344798
Sum of atomic charges:    0.0000000

LOEWDIN ATOMIC CHARGES
----------------------
   0 C :    0.026070
   1 C :    0.102288
   2 H :    0.212539
   3 C :    0.106579
   4 H :    0.197653
   5 C :    0.124987
   6 H :    0.199210
   7 C :    0.118147
   8 H :    0.185331
   9 C :    0.282264
  10 H :    0.199738
  11 O :   -0.645047
  12 O :   -0.541286
  13 O :   -0.576978
  14 O :   -0.588587
  15 O :   -0.573676
  16 O :   -0.614679
  17 H :    0.171762
  18 H :    0.188839
  19 H :    0.294195
  20 H :    0.277254
  21 H :    0.285915
  22 H :    0.283697
  23 H :    0.283785

  Mayer bond orders larger than 0.100000
B(  0-C ,  1-C ) :   0.8821 B(  0-C , 16-O ) :   0.9736 B(  0-C , 17-H ) :   0.9780
B(  0-C , 18-H ) :   0.9749 B(  1-C ,  2-H ) :   0.9510 B(  1-C ,  3-C ) :   0.7982
B(  1-C , 11-O ) :   0.8828 B(  3-C ,  4-H ) :   1.0034 B(  3-C ,  5-C ) :   0.8490
B(  3-C , 15-O ) :   0.9777 B(  5-C ,  6-H ) :   0.9710 B(  5-C ,  7-C ) :   0.8927
B(  5-C , 14-O ) :   0.9463 B(  7-C ,  8-H ) :   0.9725 B(  7-C ,  9-C ) :   0.9170
B(  7-C , 13-O ) :   0.9229 B(  9-C , 10-H ) :   0.9825 B(  9-C , 11-O ) :   1.0056
B(  9-C , 12-O ) :   0.9787 B( 12-O , 19-H ) :   0.7626 B( 13-O , 20-H ) :   0.8934
B( 14-O , 21-H ) :   0.8285 B( 15-O , 22-H ) :   0.8374 B( 16-O , 23-H ) :   0.8261

Dispersion correction           -0.008946743
FINAL SINGLE POINT ENERGY      -687.073875350835

DIPOLE MOMENT
-------------

Method             : SCF
Type of density    : Electron Density
Multiplicity       :   1
Irrep              :   0
Energy             :  -687.0883482979884320 Eh
Relativity type    :
Basis              : AO
                                X                 Y                 Z
Electronic contribution:      1.892811428      -0.213800161       0.476108316
Nuclear contribution   :     -1.456160596       0.005211385      -0.229112924
                        -----------------------------------------
Total Dipole Moment    :      0.436650832      -0.208588775       0.246995392
                        -----------------------------------------
Magnitude (a.u.)       :      0.543304657
Magnitude (Debye)      :      1.380970690

Rotational constants in cm-1:             0.041055             0.031876             0.027727
Rotational constants in MHz :          1230.808299           955.604071           831.235413

                             ****ORCA TERMINATED NORMALLY****
TOTAL RUN TIME: 0 days 0 hours 0 minutes 41 seconds 439 msec
