                         Program Version 6.0.1  -  RELEASE   -
|  1> ! pbe def2-sv(p) def2/J RI DEFGRID1 loosescf d4 GCP(DFT/SV(P)) printgap
|  2> %output
|  3>     printlevel normal
|  4> end
|  5> * xyz 0 1
|  6> C -2.0938501073 -0.9852937139 -0.1927445398
|  7> C -1.0980546607 -0.370193442 0.8112750767
|  8> H -1.593301427 -0.3789312774 1.7897696656
|  9> C -0.7578498081 1.1090003406 0.5024229616
| 10> H -1.6459044964 1.5577486279 0.0400403161
| 11> C 0.4348350143 1.2822116175 -0.4563491493
| 12> H 0.8374977062 2.2940006154 -0.3017886461
| 13> C 1.572552609 0.3074233608 -0.0559764491
| 14> H 2.3551758964 0.3501486031 -0.8192324524
| 15> C 1.0955786544 -1.1391011861 0.1092550131
| 16> H 1.9065336547 -1.7065433627 0.5951798858
| 17> O 0.0424952319 -1.2085365261 1.0319305979
| 18> O 0.7894941518 -1.7240108538 -1.12660126
| 19> O 2.1312274015 0.7151681195 1.1778275914
| 20> O 0.0982523072 1.2082199979 -1.8062875783
| 21> O -0.5479189653 1.8191243046 1.7016962728
| 22> O -1.7454760571 -0.8488013874 -1.5460174119
| 23> H -3.0536896573 -0.4780410061 -0.0757633547
| 24> H -2.2233831649 -2.0448107089 0.0675477011
| 25> H 0.7240414221 -2.6807129274 -1.0184396417
| 26> H 1.7170360874 0.1985026245 1.8833170471
| 27> H -0.6248770456 0.5677978879 -1.9318446209
| 28> H 0.3954880524 1.814183119 1.9121210886
| 29> H -0.8959663933 -1.308452837 -1.688087793
| 30> *
| 31>
| 32>                          ****END OF INPUT****

CARTESIAN COORDINATES (ANGSTROEM)
---------------------------------
  C     -2.093850   -0.985294   -0.192745
  C     -1.098055   -0.370193    0.811275
  H     -1.593301   -0.378931    1.789770
  C     -0.757850    1.109000    0.502423
  H     -1.645904    1.557749    0.040040
  C      0.434835    1.282212   -0.456349
  H      0.837498    2.294001   -0.301789
  C      1.572553    0.307423   -0.055976
  H      2.355176    0.350149   -0.819232
  C      1.095579   -1.139101    0.109255
  H      1.906534   -1.706543    0.595180
  O      0.042495   -1.208537    1.031931
  O      0.789494   -1.724011   -1.126601
  O      2.131227    0.715168    1.177828
  O      0.098252    1.208220   -1.806288
  O     -0.547919    1.819124    1.701696
  O     -1.745476   -0.848801   -1.546017
  H     -3.053690   -0.478041   -0.075763
  H     -2.223383   -2.044811    0.067548
  H      0.724041   -2.680713   -1.018440
  H      1.717036    0.198503    1.883317
  H     -0.624877    0.567798   -1.931845
  H      0.395488    1.814183    1.912121
  H     -0.895966   -1.308453   -1.688088

 Total Charge           Charge          ....    0
 Multiplicity           Mult            ....    1
 Number of Electrons    NEL             ....   96
 Basis Dimension        Dim             ....  192

ORBITAL ENERGIES
----------------

  NO   OCC          E(Eh)            E(eV)
   0   2.0000     -18.807263      -511.7717
   1   2.0000     -18.790492      -511.3153
   2   2.0000     -18.774749      -510.8869
   3   2.0000     -18.766188      -510.6539
   4   2.0000     -18.747053      -510.1332
   5   2.0000     -18.734270      -509.7854
   6   2.0000     -10.012399      -272.4512
   7   2.0000      -9.952642      -270.8252
   8   2.0000      -9.951022      -270.7811
   9   2.0000      -9.946980      -270.6711
  10   2.0000      -9.946342      -270.6537
  11   2.0000      -9.941244      -270.5150
  12   2.0000      -1.010721       -27.5031
  13   2.0000      -0.958288       -26.0763
  14   2.0000      -0.944740       -25.7077
  15   2.0000      -0.938934       -25.5497
  16   2.0000      -0.926982       -25.2244
  17   2.0000      -0.913500       -24.8576
  18   2.0000      -0.711260       -19.3544
  19   2.0000      -0.695364       -18.9218
  20   2.0000      -0.631685       -17.1890
  21   2.0000      -0.604201       -16.4411
  22   2.0000      -0.586365       -15.9558
  23   2.0000      -0.544298       -14.8111
  24   2.0000      -0.503467       -13.7000
  25   2.0000      -0.500401       -13.6166
  26   2.0000      -0.485949       -13.2233
  27   2.0000      -0.470441       -12.8014
  28   2.0000      -0.458733       -12.4827
  29   2.0000      -0.440599       -11.9893
  30   2.0000      -0.422853       -11.5064
  31   2.0000      -0.416143       -11.3238
  32   2.0000      -0.396038       -10.7767
  33   2.0000      -0.377832       -10.2813
  34   2.0000      -0.369930       -10.0663
  35   2.0000      -0.360331        -9.8051
  36   2.0000      -0.348407        -9.4806
  37   2.0000      -0.330394        -8.9905
  38   2.0000      -0.314312        -8.5529
  39   2.0000      -0.309094        -8.4109
  40   2.0000      -0.297119        -8.0850
  41   2.0000      -0.278897        -7.5892
  42   2.0000      -0.272961        -7.4276
  43   2.0000      -0.264488        -7.1971
  44   2.0000      -0.253134        -6.8881
  45   2.0000      -0.235231        -6.4010
  46   2.0000      -0.214741        -5.8434
  47   2.0000      -0.200769        -5.4632
  48   0.0000      -0.007931        -0.2158
  49   0.0000       0.017029         0.4634
  50   0.0000       0.041166         1.1202
  51   0.0000       0.051474         1.4007
  52   0.0000       0.063880         1.7383

MULLIKEN ATOMIC CHARGES
-----------------------
   0 C :    0.020717
   1 C :    0.032664
   2 H :    0.084222
   3 C :    0.015248
   4 H :    0.085170
   5 C :    0.053299
   6 H :    0.084833
   7 C :    0.054712
   8 H :    0.091492
   9 C :    0.126246
  10 H :    0.085073
  11 O :   -0.318946
  12 O :   -0.396023
  13 O :   -0.418659
  14 O :   -0.415335
  15 O :   -0.417477
  16 O :   -0.440400
  17 H :    0.099942
  18 H :    0.082120
  19 H :    0.321103
  20 H :    0.300003
  21 H :    0.282747
  22 H :    0.286171
  23 H :    0.301077
Sum of atomic charges:   -0.0000000

LOEWDIN ATOMIC CHARGES
----------------------
   0 C :   -0.136298
   1 C :   -0.081770
   2 H :    0.128386
   3 C :   -0.071167
   4 H :    0.121908
   5 C :   -0.078693
   6 H :    0.118169
   7 C :   -0.078845
   8 H :    0.125019
   9 C :   -0.017860
  10 H :    0.106019
  11 O :   -0.149858
  12 O :   -0.294222
  13 O :   -0.308753
  14 O :   -0.322559
  15 O :   -0.319702
  16 O :   -0.334143
  17 H :    0.123683
  18 H :    0.102741
  19 H :    0.297441
  20 H :    0.275266
  21 H :    0.262900
  22 H :    0.267469
  23 H :    0.264869

  Mayer bond orders larger than 0.100000
B(  0-C ,  1-C ) :   1.0361 B(  0-C , 16-O ) :   1.0659 B(  0-C , 17-H ) :   0.9175
B(  0-C , 18-H ) :   0.9161 B(  1-C ,  2-H ) :   0.8817 B(  1-C ,  3-C ) :   0.9616
B(  1-C , 11-O ) :   0.9598 B(  3-C ,  4-H ) :   0.8956 B(  3-C ,  5-C ) :   0.9964
B(  3-C , 15-O ) :   1.0631 B(  5-C ,  6-H ) :   0.9025 B(  5-C ,  7-C ) :   0.9358
B(  5-C , 14-O ) :   1.1184 B(  7-C ,  8-H ) :   0.8876 B(  7-C ,  9-C ) :   1.0211
B(  7-C , 13-O ) :   1.0314 B(  9-C , 10-H ) :   0.9058 B(  9-C , 11-O ) :   1.0571
B(  9-C , 12-O ) :   1.0687 B( 12-O , 19-H ) :   0.8279 B( 12-O , 23-H ) :   0.1344
B( 13-O , 20-H ) :   0.8187 B( 14-O , 21-H ) :   0.7807 B( 15-O , 22-H ) :   0.8196
B( 16-O , 21-H ) :   0.1604 B( 16-O , 23-H ) :   0.7645

Dispersion correction           -0.026761068
FINAL SINGLE POINT ENERGY      -685.699599464663

DIPOLE MOMENT
-------------

Method             : SCF
Type of density    : Electron Density
Multiplicity       :   1
Irrep              :   0
Energy             :  -685.8370464532305277 Eh
Relativity type    :
Basis              : AO
                                X                 Y                 Z
Electronic contribution:      2.135429804       0.105774560       0.083279746
Nuclear contribution   :     -1.960044555      -1.703457906       0.416414929
                        -----------------------------------------
Total Dipole Moment    :      0.175385248      -1.597683345       0.499694674
                        -----------------------------------------
Magnitude (a.u.)       :      1.683165715
Magnitude (Debye)      :      4.278267249

Rotational constants in cm-1:             0.039327             0.031747             0.028033
Rotational constants in MHz :          1178.997996           951.752899           840.402464

                             ****ORCA TERMINATED NORMALLY****
TOTAL RUN TIME: 0 days 0 hours 25 minutes 24 seconds 302 msec
