                         Program Version 6.0.1  -  RELEASE   -
|  1> ! pbe def2-sv(p) def2/J RI DEFGRID1 loosescf d4 GCP(DFT/SV(P)) printgap
|  2> %output
|  3>     printlevel normal
|  4> end
|  5> * xyz 0 1
|  6> C -2.3177829965 -1.0008301492 -0.3572282154
|  7> C -0.9659104845 -0.5591041169 0.2208258119
|  8> H -0.9414357895 -0.7733921315 1.3043077409
|  9> C -0.7448759902 0.9586543568 0.050168342
| 10> H -1.4680414358 1.3548257687 -0.6747009985
| 11> C 0.6826383372 1.2319514839 -0.4859359404
| 12> H 0.9215453258 2.2917603511 -0.3310594434
| 13> C 1.6850089967 0.3768202642 0.3102615488
| 14> H 2.6930036363 0.5082607629 -0.0966527137
| 15> C 1.3251628601 -1.1214489568 0.1306479297
| 16> H 1.355327905 -1.6074810429 1.1283238984
| 17> O 0.0335628755 -1.3094778339 -0.4287498017
| 18> O 2.2325077803 -1.6892172221 -0.7426656625
| 19> O 1.7365919156 0.7508629981 1.657694686
| 20> O 0.7640607598 1.0132190726 -1.8632135732
| 21> O -0.9463342574 1.5468821694 1.3241753912
| 22> O -3.3748288751 -0.1978256814 0.0854061964
| 23> H -2.4809542641 -2.0583254329 -0.1084850513
| 24> H -2.2889451147 -0.9007069644 -1.4445156834
| 25> H 1.9458764015 -2.5862906795 -0.9537747712
| 26> H 0.8334278407 0.9267938872 1.9675168201
| 27> H 0.7120601231 0.0608064913 -2.0231262094
| 28> H -0.9752036524 2.5054013527 1.2284856753
| 29> H -3.3782862992 -0.1803173433 1.0496515218
| 30> *
| 31>
| 32>                          ****END OF INPUT****

CARTESIAN COORDINATES (ANGSTROEM)
---------------------------------
  C     -2.317783   -1.000830   -0.357228
  C     -0.965910   -0.559104    0.220826
  H     -0.941436   -0.773392    1.304308
  C     -0.744876    0.958654    0.050168
  H     -1.468041    1.354826   -0.674701
  C      0.682638    1.231951   -0.485936
  H      0.921545    2.291760   -0.331059
  C      1.685009    0.376820    0.310262
  H      2.693004    0.508261   -0.096653
  C      1.325163   -1.121449    0.130648
  H      1.355328   -1.607481    1.128324
  O      0.033563   -1.309478   -0.428750
  O      2.232508   -1.689217   -0.742666
  O      1.736592    0.750863    1.657695
  O      0.764061    1.013219   -1.863214
  O     -0.946334    1.546882    1.324175
  O     -3.374829   -0.197826    0.085406
  H     -2.480954   -2.058325   -0.108485
  H     -2.288945   -0.900707   -1.444516
  H      1.945876   -2.586291   -0.953775
  H      0.833428    0.926794    1.967517
  H      0.712060    0.060806   -2.023126
  H     -0.975204    2.505401    1.228486
  H     -3.378286   -0.180317    1.049652

 Total Charge           Charge          ....    0
 Multiplicity           Mult            ....    1
 Number of Electrons    NEL             ....   96
 Basis Dimension        Dim             ....  192

ORBITAL ENERGIES
----------------

  NO   OCC          E(Eh)            E(eV)
   0   2.0000     -18.787616      -511.2370
   1   2.0000     -18.783974      -511.1379
   2   2.0000     -18.770565      -510.7731
   3   2.0000     -18.760362      -510.4954
   4   2.0000     -18.747332      -510.1408
   5   2.0000     -18.741922      -509.9936
   6   2.0000      -9.990273      -271.8491
   7   2.0000      -9.957559      -270.9590
   8   2.0000      -9.950087      -270.7556
   9   2.0000      -9.944049      -270.5913
  10   2.0000      -9.943180      -270.5677
  11   2.0000      -9.936935      -270.3977
  12   2.0000      -0.997786       -27.1511
  13   2.0000      -0.959289       -26.1036
  14   2.0000      -0.939822       -25.5739
  15   2.0000      -0.932047       -25.3623
  16   2.0000      -0.926012       -25.1981
  17   2.0000      -0.919473       -25.0201
  18   2.0000      -0.707975       -19.2650
  19   2.0000      -0.685883       -18.6638
  20   2.0000      -0.627332       -17.0706
  21   2.0000      -0.596290       -16.2259
  22   2.0000      -0.572516       -15.5790
  23   2.0000      -0.526627       -14.3302
  24   2.0000      -0.512429       -13.9439
  25   2.0000      -0.497746       -13.5444
  26   2.0000      -0.489295       -13.3144
  27   2.0000      -0.466479       -12.6935
  28   2.0000      -0.463585       -12.6148
  29   2.0000      -0.437288       -11.8992
  30   2.0000      -0.418981       -11.4010
  31   2.0000      -0.408122       -11.1056
  32   2.0000      -0.380102       -10.3431
  33   2.0000      -0.377737       -10.2788
  34   2.0000      -0.357502        -9.7281
  35   2.0000      -0.354299        -9.6410
  36   2.0000      -0.338979        -9.2241
  37   2.0000      -0.326758        -8.8915
  38   2.0000      -0.319311        -8.6889
  39   2.0000      -0.309598        -8.4246
  40   2.0000      -0.287600        -7.8260
  41   2.0000      -0.274646        -7.4735
  42   2.0000      -0.265812        -7.2331
  43   2.0000      -0.253771        -6.9055
  44   2.0000      -0.242776        -6.6063
  45   2.0000      -0.231472        -6.2987
  46   2.0000      -0.214536        -5.8378
  47   2.0000      -0.202168        -5.5013
  48   0.0000       0.005924         0.1612
  49   0.0000       0.022650         0.6163
  50   0.0000       0.025773         0.7013
  51   0.0000       0.039336         1.0704
  52   0.0000       0.052404         1.4260

MULLIKEN ATOMIC CHARGES
-----------------------
   0 C :    0.074724
   1 C :   -0.019440
   2 H :    0.058580
   3 C :    0.017770
   4 H :    0.085932
   5 C :    0.025753
   6 H :    0.067555
   7 C :    0.047744
   8 H :    0.092449
   9 C :    0.177233
  10 H :    0.056287
  11 O :   -0.318616
  12 O :   -0.376356
  13 O :   -0.425623
  14 O :   -0.411672
  15 O :   -0.420115
  16 O :   -0.423231
  17 H :    0.085093
  18 H :    0.092059
  19 H :    0.304506
  20 H :    0.294901
  21 H :    0.300481
  22 H :    0.312975
  23 H :    0.301012
Sum of atomic charges:    0.0000000

LOEWDIN ATOMIC CHARGES
----------------------
   0 C :   -0.122755
   1 C :   -0.075001
   2 H :    0.100575
   3 C :   -0.086001
   4 H :    0.115246
   5 C :   -0.082155
   6 H :    0.112289
   7 C :   -0.085051
   8 H :    0.126002
   9 C :   -0.004187
  10 H :    0.087110
  11 O :   -0.159812
  12 O :   -0.289492
  13 O :   -0.319414
  14 O :   -0.309116
  15 O :   -0.310849
  16 O :   -0.322695
  17 H :    0.100273
  18 H :    0.117402
  19 H :    0.288676
  20 H :    0.265976
  21 H :    0.273454
  22 H :    0.293728
  23 H :    0.285796

  Mayer bond orders larger than 0.100000
B(  0-C ,  1-C ) :   1.0524 B(  0-C , 16-O ) :   1.0713 B(  0-C , 17-H ) :   0.9201
B(  0-C , 18-H ) :   0.9124 B(  1-C ,  2-H ) :   0.8710 B(  1-C ,  3-C ) :   0.9795
B(  1-C , 11-O ) :   1.0299 B(  3-C ,  4-H ) :   0.8882 B(  3-C ,  5-C ) :   0.9686
B(  3-C , 15-O ) :   1.0062 B(  5-C ,  6-H ) :   0.8967 B(  5-C ,  7-C ) :   0.9979
B(  5-C , 14-O ) :   1.0642 B(  7-C ,  8-H ) :   0.8897 B(  7-C ,  9-C ) :   0.9388
B(  7-C , 13-O ) :   1.0749 B(  9-C , 10-H ) :   0.8945 B(  9-C , 11-O ) :   0.9783
B(  9-C , 12-O ) :   1.1555 B( 12-O , 19-H ) :   0.8409 B( 13-O , 20-H ) :   0.8072
B( 14-O , 21-H ) :   0.8311 B( 15-O , 20-H ) :   0.1151 B( 15-O , 22-H ) :   0.8401
B( 16-O , 23-H ) :   0.8470

Dispersion correction           -0.025102728
FINAL SINGLE POINT ENERGY      -685.692990587660

DIPOLE MOMENT
-------------

Method             : SCF
Type of density    : Electron Density
Multiplicity       :   1
Irrep              :   0
Energy             :  -685.8260719524909064 Eh
Relativity type    :
Basis              : AO
                                X                 Y                 Z
Electronic contribution:      2.157803279       0.013566676      -0.496818011
Nuclear contribution   :     -2.875106344      -0.428610357       0.981782188
                        -----------------------------------------
Total Dipole Moment    :     -0.717303065      -0.415043681       0.484964177
                        -----------------------------------------
Magnitude (a.u.)       :      0.960195395
Magnitude (Debye)      :      2.440622735

Rotational constants in cm-1:             0.043215             0.025699             0.021715
Rotational constants in MHz :          1295.563453           770.431536           651.013369

                             ****ORCA TERMINATED NORMALLY****
TOTAL RUN TIME: 0 days 0 hours 10 minutes 4 seconds 478 msec
