                         Program Version 6.0.1  -  RELEASE   -
|  1> ! pbe def2-sv(p) def2/J RI DEFGRID1 loosescf d4 GCP(DFT/SV(P)) printgap
|  2> %output
|  3>     printlevel normal
|  4> end
|  5> * xyz 0 1
|  6> C 0.9578758682 1.2548028882 0.0235860015
|  7> C 0.4518358132 -0.1418910516 -0.353170189
|  8> C 1.3967416973 -1.235503783 0.129451699
|  9> C -0.9436512463 -0.3240770206 0.1939479496
| 10> O -1.8676593502 0.4065278524 -0.0269552117
| 11> H 0.2406353793 2.0081012502 -0.2917797023
| 12> H 1.9126088812 1.4531310821 -0.4568664145
| 13> H 1.0888804768 1.3296605531 1.1011469679
| 14> H 0.3668200911 -0.1860255964 -1.4461362013
| 15> H 2.3833312355 -1.1009588277 -0.3069524867
| 16> H 1.0281705423 -2.2185328004 -0.1551434738
| 17> H 1.4954247632 -1.2022795516 1.2125218838
| 18> H -1.0674016847 -1.213427253 0.8447965993
| 19> *
| 20>
| 21>                          ****END OF INPUT****

CARTESIAN COORDINATES (ANGSTROEM)
---------------------------------
  C      0.957876    1.254803    0.023586
  C      0.451836   -0.141891   -0.353170
  C      1.396742   -1.235504    0.129452
  C     -0.943651   -0.324077    0.193948
  O     -1.867659    0.406528   -0.026955
  H      0.240635    2.008101   -0.291780
  H      1.912609    1.453131   -0.456866
  H      1.088880    1.329661    1.101147
  H      0.366820   -0.186026   -1.446136
  H      2.383331   -1.100959   -0.306952
  H      1.028171   -2.218533   -0.155143
  H      1.495425   -1.202280    1.212522
  H     -1.067402   -1.213427    0.844797

 Total Charge           Charge          ....    0
 Multiplicity           Mult            ....    1
 Number of Electrons    NEL             ....   40
 Basis Dimension        Dim             ....   86

ORBITAL ENERGIES
----------------

  NO   OCC          E(Eh)            E(eV)
   0   2.0000     -18.751792      -510.2622
   1   2.0000      -9.970516      -271.3115
   2   2.0000      -9.908771      -269.6314
   3   2.0000      -9.887473      -269.0518
   4   2.0000      -9.886113      -269.0148
   5   2.0000      -0.950674       -25.8692
   6   2.0000      -0.733749       -19.9663
   7   2.0000      -0.624912       -17.0047
   8   2.0000      -0.575770       -15.6675
   9   2.0000      -0.501738       -13.6530
  10   2.0000      -0.430472       -11.7137
  11   2.0000      -0.414759       -11.2862
  12   2.0000      -0.392585       -10.6828
  13   2.0000      -0.364944        -9.9306
  14   2.0000      -0.356008        -9.6875
  15   2.0000      -0.344144        -9.3646
  16   2.0000      -0.330254        -8.9867
  17   2.0000      -0.308292        -8.3891
  18   2.0000      -0.301937        -8.2161
  19   2.0000      -0.204354        -5.5607
  20   0.0000      -0.064808        -1.7635
  21   0.0000       0.038650         1.0517
  22   0.0000       0.068157         1.8546
  23   0.0000       0.079770         2.1707
  24   0.0000       0.092173         2.5082

MULLIKEN ATOMIC CHARGES
-----------------------
   0 C :   -0.255875
   1 C :   -0.174974
   2 C :   -0.271290
   3 C :    0.032071
   4 O :   -0.150592
   5 H :    0.122487
   6 H :    0.108262
   7 H :    0.101409
   8 H :    0.109089
   9 H :    0.110075
  10 H :    0.111448
  11 H :    0.105982
  12 H :    0.051906
Sum of atomic charges:   -0.0000000

LOEWDIN ATOMIC CHARGES
----------------------
   0 C :   -0.321632
   1 C :   -0.203683
   2 C :   -0.333452
   3 C :    0.010779
   4 O :   -0.105428
   5 H :    0.127134
   6 H :    0.122130
   7 H :    0.120354
   8 H :    0.140629
   9 H :    0.125095
  10 H :    0.121690
  11 H :    0.120985
  12 H :    0.075400

  Mayer bond orders larger than 0.100000
B(  0-C ,  1-C ) :   1.1026 B(  0-C ,  5-H ) :   0.9425 B(  0-C ,  6-H ) :   0.9522
B(  0-C ,  7-H ) :   0.9526 B(  1-C ,  2-C ) :   1.0885 B(  1-C ,  3-C ) :   0.9152
B(  1-C ,  8-H ) :   0.8802 B(  2-C ,  9-H ) :   0.9504 B(  2-C , 10-H ) :   0.9500
B(  2-C , 11-H ) :   0.9498 B(  3-C ,  4-O ) :   2.1888 B(  3-C , 12-H ) :   0.9167

Dispersion correction           -0.008414706
FINAL SINGLE POINT ENERGY      -231.918227277747

DIPOLE MOMENT
-------------

Method             : SCF
Type of density    : Electron Density
Multiplicity       :   1
Irrep              :   0
Energy             :  -231.9628816850747910 Eh
Relativity type    :
Basis              : AO
                                X                 Y                 Z
Electronic contribution:     -6.128873761       0.681202040      -0.461875369
Nuclear contribution   :      6.960201631      -1.054409013       0.470172252
                        -----------------------------------------
Total Dipole Moment    :      0.831327870      -0.373206973       0.008296883
                        -----------------------------------------
Magnitude (a.u.)       :      0.911294854
Magnitude (Debye)      :      2.316327437

Rotational constants in cm-1:             0.269690             0.128997             0.094997
Rotational constants in MHz :          8085.093279          3867.245943          2847.936107

                             ****ORCA TERMINATED NORMALLY****
TOTAL RUN TIME: 0 days 0 hours 0 minutes 12 seconds 492 msec
