                         Program Version 6.0.1  -  RELEASE   -
|  1> ! pbe def2-sv(p) def2/J RI DEFGRID1 loosescf d4 GCP(DFT/SV(P)) printgap
|  2> %output
|  3>     printlevel normal
|  4> end
|  5> * xyz 0 1
|  6> C -1.7280056026 0.3487984409 0.5883762391
|  7> C -0.8817505197 0.3411407928 -0.6798560313
|  8> C 0.5842145487 -0.0710176002 -0.48174756
|  9> C 1.3317564158 0.8950236693 0.4350018665
| 10> C 0.7115795848 -1.5017424075 0.0371684088
| 11> H -1.7681042035 -0.6397472299 1.0378184848
| 12> H -2.7453742772 0.6515855493 0.3492666659
| 13> H -1.3316170094 1.048782794 1.3189433353
| 14> H -1.3367325405 -0.3424022834 -1.4013833534
| 15> H -0.9012674645 1.3410699908 -1.1209812555
| 16> H 1.0576216419 -0.0293334564 -1.470824226
| 17> H 0.960863426 0.8272433732 1.4545683672
| 18> H 1.2149022348 1.9201860084 0.0902325422
| 19> H 2.3931852396 0.6566741314 0.4464970907
| 20> H 1.7549293567 -1.8100282238 0.0367156609
| 21> H 0.1510582587 -2.189980205 -0.5917845643
| 22> H 0.3384816997 -1.5794706038 1.0552139693
| 23> *
| 24>
| 25>                          ****END OF INPUT****

CARTESIAN COORDINATES (ANGSTROEM)
---------------------------------
  C     -1.728006    0.348798    0.588376
  C     -0.881751    0.341141   -0.679856
  C      0.584215   -0.071018   -0.481748
  C      1.331756    0.895024    0.435002
  C      0.711580   -1.501742    0.037168
  H     -1.768104   -0.639747    1.037818
  H     -2.745374    0.651586    0.349267
  H     -1.331617    1.048783    1.318943
  H     -1.336733   -0.342402   -1.401383
  H     -0.901267    1.341070   -1.120981
  H      1.057622   -0.029333   -1.470824
  H      0.960863    0.827243    1.454568
  H      1.214902    1.920186    0.090233
  H      2.393185    0.656674    0.446497
  H      1.754929   -1.810028    0.036716
  H      0.151058   -2.189980   -0.591785
  H      0.338482   -1.579471    1.055214

 Total Charge           Charge          ....    0
 Multiplicity           Mult            ....    1
 Number of Electrons    NEL             ....   42
 Basis Dimension        Dim             ....   94

ORBITAL ENERGIES
----------------

  NO   OCC          E(Eh)            E(eV)
   0   2.0000      -9.888890      -269.0904
   1   2.0000      -9.877718      -268.7864
   2   2.0000      -9.868950      -268.5478
   3   2.0000      -9.868174      -268.5267
   4   2.0000      -9.868149      -268.5260
   5   2.0000      -0.727980       -19.8093
   6   2.0000      -0.651988       -17.7415
   7   2.0000      -0.606720       -16.5097
   8   2.0000      -0.561226       -15.2717
   9   2.0000      -0.477226       -12.9860
  10   2.0000      -0.418566       -11.3897
  11   2.0000      -0.401780       -10.9330
  12   2.0000      -0.384874       -10.4730
  13   2.0000      -0.352410        -9.5896
  14   2.0000      -0.337920        -9.1953
  15   2.0000      -0.328420        -8.9368
  16   2.0000      -0.328410        -8.9365
  17   2.0000      -0.300742        -8.1836
  18   2.0000      -0.276198        -7.5157
  19   2.0000      -0.271853        -7.3975
  20   2.0000      -0.270453        -7.3594
  21   0.0000       0.032046         0.8720
  22   0.0000       0.066597         1.8122
  23   0.0000       0.074901         2.0382
  24   0.0000       0.085658         2.3309
  25   0.0000       0.099216         2.6998

MULLIKEN ATOMIC CHARGES
-----------------------
   0 C :   -0.297338
   1 C :   -0.153570
   2 C :   -0.162638
   3 C :   -0.257119
   4 C :   -0.256747
   5 H :    0.104079
   6 H :    0.101610
   7 H :    0.103824
   8 H :    0.080191
   9 H :    0.080157
  10 H :    0.069754
  11 H :    0.100592
  12 H :    0.096239
  13 H :    0.097133
  14 H :    0.097152
  15 H :    0.096221
  16 H :    0.100460
Sum of atomic charges:   -0.0000000

LOEWDIN ATOMIC CHARGES
----------------------
   0 C :   -0.344802
   1 C :   -0.225973
   2 C :   -0.158861
   3 C :   -0.331550
   4 C :   -0.331469
   5 H :    0.117189
   6 H :    0.120338
   7 H :    0.117164
   8 H :    0.112607
   9 H :    0.112577
  10 H :    0.113695
  11 H :    0.115609
  12 H :    0.116211
  13 H :    0.117753
  14 H :    0.117715
  15 H :    0.116219
  16 H :    0.115578

  Mayer bond orders larger than 0.100000
B(  0-C ,  1-C ) :   1.1494 B(  0-C ,  5-H ) :   0.9509 B(  0-C ,  6-H ) :   0.9504
B(  0-C ,  7-H ) :   0.9508 B(  1-C ,  2-C ) :   1.0876 B(  1-C ,  8-H ) :   0.9255
B(  1-C ,  9-H ) :   0.9256 B(  2-C ,  3-C ) :   1.1092 B(  2-C ,  4-C ) :   1.1090
B(  2-C , 10-H ) :   0.9038 B(  3-C , 11-H ) :   0.9456 B(  3-C , 12-H ) :   0.9518
B(  3-C , 13-H ) :   0.9512 B(  4-C , 14-H ) :   0.9512 B(  4-C , 15-H ) :   0.9518
B(  4-C , 16-H ) :   0.9457

Dispersion correction           -0.011944657
FINAL SINGLE POINT ENERGY      -197.236479284108

DIPOLE MOMENT
-------------

Method             : SCF
Type of density    : Electron Density
Multiplicity       :   1
Irrep              :   0
Energy             :  -197.2940531105505215 Eh
Relativity type    :
Basis              : AO
                                X                 Y                 Z
Electronic contribution:      0.206527431       0.139607176      -1.162378102
Nuclear contribution   :     -0.198940413      -0.136427491       1.129810853
                        -----------------------------------------
Total Dipole Moment    :      0.007587018       0.003179685      -0.032567249
                        -----------------------------------------
Magnitude (a.u.)       :      0.033590162
Magnitude (Debye)      :      0.085379406

Rotational constants in cm-1:             0.203348             0.126146             0.102623
Rotational constants in MHz :          6096.234320          3781.775255          3076.572144

                             ****ORCA TERMINATED NORMALLY****
TOTAL RUN TIME: 0 days 0 hours 0 minutes 16 seconds 269 msec
