                         Program Version 6.0.1  -  RELEASE   -
|  1> ! pbe def2-sv(p) def2/J RI DEFGRID1 loosescf d4 GCP(DFT/SV(P)) printgap
|  2> %output
|  3>     printlevel normal
|  4> end
|  5> * xyz 0 1
|  6> C -2.0494953978 -1.2236187216 -0.2382891828
|  7> C -1.2499794386 -0.3635677769 0.7630099252
|  8> H -1.8734319041 -0.2439723375 1.6564866795
|  9> C -0.9471237645 1.0449637417 0.1893090694
| 10> H -1.2704247382 1.0964413448 -0.855357462
| 11> C 0.5640241559 1.2969301121 0.2406150914
| 12> H 0.8851850105 1.3578147192 1.2948215592
| 13> C 1.280109277 0.1018988388 -0.4164518685
| 14> H 0.8728505296 -0.0466810374 -1.4238956987
| 15> C 1.0087862498 -1.1527126979 0.4230585521
| 16> H 1.8680495442 -1.311709739 1.0912800178
| 17> O -0.0888094397 -1.0180159383 1.2759105796
| 18> O 0.8664575264 -2.2421460889 -0.4508754767
| 19> O 2.6750149419 0.3020891677 -0.4661708238
| 20> O 0.8569867928 2.4956539742 -0.4299815924
| 21> O -1.6811374819 2.0360921212 0.8511503244
| 22> O -1.5047491868 -1.274424529 -1.5255749819
| 23> H -3.0384706092 -0.7725182919 -0.345882255
| 24> H -2.1635339489 -2.2318904662 0.1852115847
| 25> H 0.7654307674 -3.0502920057 0.0672315675
| 26> H 2.8837203586 0.8308220227 -1.2441183483
| 27> H 1.7908876573 2.6975656376 -0.298070149
| 28> H -1.3021938608 2.1850429471 1.7257167108
| 29> H -0.6484078281 -1.7322365898 -1.4737919034
| 30> *
| 31>
| 32>                          ****END OF INPUT****

CARTESIAN COORDINATES (ANGSTROEM)
---------------------------------
  C     -2.049495   -1.223619   -0.238289
  C     -1.249979   -0.363568    0.763010
  H     -1.873432   -0.243972    1.656487
  C     -0.947124    1.044964    0.189309
  H     -1.270425    1.096441   -0.855357
  C      0.564024    1.296930    0.240615
  H      0.885185    1.357815    1.294822
  C      1.280109    0.101899   -0.416452
  H      0.872851   -0.046681   -1.423896
  C      1.008786   -1.152713    0.423059
  H      1.868050   -1.311710    1.091280
  O     -0.088809   -1.018016    1.275911
  O      0.866458   -2.242146   -0.450875
  O      2.675015    0.302089   -0.466171
  O      0.856987    2.495654   -0.429982
  O     -1.681137    2.036092    0.851150
  O     -1.504749   -1.274425   -1.525575
  H     -3.038471   -0.772518   -0.345882
  H     -2.163534   -2.231890    0.185212
  H      0.765431   -3.050292    0.067232
  H      2.883720    0.830822   -1.244118
  H      1.790888    2.697566   -0.298070
  H     -1.302194    2.185043    1.725717
  H     -0.648408   -1.732237   -1.473792

 Total Charge           Charge          ....    0
 Multiplicity           Mult            ....    1
 Number of Electrons    NEL             ....   96
 Basis Dimension        Dim             ....  192

ORBITAL ENERGIES
----------------

  NO   OCC          E(Eh)            E(eV)
   0   2.0000     -18.785953      -511.1918
   1   2.0000     -18.775135      -510.8974
   2   2.0000     -18.768332      -510.7123
   3   2.0000     -18.756936      -510.4022
   4   2.0000     -18.744495      -510.0636
   5   2.0000     -18.737573      -509.8753
   6   2.0000      -9.996523      -272.0192
   7   2.0000      -9.948928      -270.7241
   8   2.0000      -9.944317      -270.5986
   9   2.0000      -9.941415      -270.5196
  10   2.0000      -9.938089      -270.4292
  11   2.0000      -9.928579      -270.1704
  12   2.0000      -0.994009       -27.0484
  13   2.0000      -0.952864       -25.9288
  14   2.0000      -0.937078       -25.4992
  15   2.0000      -0.925922       -25.1956
  16   2.0000      -0.918003       -24.9801
  17   2.0000      -0.915208       -24.9041
  18   2.0000      -0.706501       -19.2249
  19   2.0000      -0.697288       -18.9742
  20   2.0000      -0.624291       -16.9878
  21   2.0000      -0.583439       -15.8762
  22   2.0000      -0.571963       -15.5639
  23   2.0000      -0.526741       -14.3334
  24   2.0000      -0.512641       -13.9497
  25   2.0000      -0.498700       -13.5703
  26   2.0000      -0.469322       -12.7709
  27   2.0000      -0.459203       -12.4955
  28   2.0000      -0.444929       -12.1071
  29   2.0000      -0.436360       -11.8740
  30   2.0000      -0.413623       -11.2553
  31   2.0000      -0.411837       -11.2066
  32   2.0000      -0.391008       -10.6399
  33   2.0000      -0.382261       -10.4018
  34   2.0000      -0.362374        -9.8607
  35   2.0000      -0.347295        -9.4504
  36   2.0000      -0.335132        -9.1194
  37   2.0000      -0.318142        -8.6571
  38   2.0000      -0.306527        -8.3410
  39   2.0000      -0.288475        -7.8498
  40   2.0000      -0.285457        -7.7677
  41   2.0000      -0.270244        -7.3537
  42   2.0000      -0.266507        -7.2520
  43   2.0000      -0.252076        -6.8593
  44   2.0000      -0.246809        -6.7160
  45   2.0000      -0.224720        -6.1149
  46   2.0000      -0.216005        -5.8778
  47   2.0000      -0.197898        -5.3851
  48   0.0000       0.003048         0.0829
  49   0.0000       0.016247         0.4421
  50   0.0000       0.030178         0.8212
  51   0.0000       0.052683         1.4336
  52   0.0000       0.054509         1.4833

MULLIKEN ATOMIC CHARGES
-----------------------
   0 C :    0.015691
   1 C :    0.033872
   2 H :    0.063851
   3 C :    0.070533
   4 H :    0.090671
   5 C :    0.049282
   6 H :    0.042558
   7 C :   -0.026909
   8 H :    0.074048
   9 C :    0.206061
  10 H :    0.079246
  11 O :   -0.305832
  12 O :   -0.403028
  13 O :   -0.408610
  14 O :   -0.399940
  15 O :   -0.404624
  16 O :   -0.440074
  17 H :    0.097496
  18 H :    0.068626
  19 H :    0.310168
  20 H :    0.301963
  21 H :    0.287700
  22 H :    0.294804
  23 H :    0.302447
Sum of atomic charges:    0.0000000

LOEWDIN ATOMIC CHARGES
----------------------
   0 C :   -0.136602
   1 C :   -0.078686
   2 H :    0.119904
   3 C :   -0.068942
   4 H :    0.126939
   5 C :   -0.083822
   6 H :    0.097914
   7 C :   -0.091117
   8 H :    0.114411
   9 C :   -0.002683
  10 H :    0.110031
  11 O :   -0.145240
  12 O :   -0.301923
  13 O :   -0.314889
  14 O :   -0.312238
  15 O :   -0.305385
  16 O :   -0.343681
  17 H :    0.121338
  18 H :    0.095022
  19 H :    0.290532
  20 H :    0.286791
  21 H :    0.277405
  22 H :    0.281213
  23 H :    0.263709

  Mayer bond orders larger than 0.100000
B(  0-C ,  1-C ) :   1.0249 B(  0-C , 16-O ) :   1.1057 B(  0-C , 17-H ) :   0.9191
B(  0-C , 18-H ) :   0.9121 B(  1-C ,  2-H ) :   0.8820 B(  1-C ,  3-C ) :   0.9466
B(  1-C , 11-O ) :   0.9972 B(  3-C ,  4-H ) :   0.8727 B(  3-C ,  5-C ) :   1.0153
B(  3-C , 15-O ) :   1.0471 B(  5-C ,  6-H ) :   0.8667 B(  5-C ,  7-C ) :   0.9832
B(  5-C , 14-O ) :   1.1023 B(  7-C ,  8-H ) :   0.8812 B(  7-C ,  9-C ) :   0.9914
B(  7-C , 13-O ) :   1.0818 B(  9-C , 10-H ) :   0.8843 B(  9-C , 11-O ) :   1.0878
B(  9-C , 12-O ) :   1.0628 B( 12-O , 19-H ) :   0.8352 B( 12-O , 23-H ) :   0.1172
B( 13-O , 20-H ) :   0.8430 B( 14-O , 21-H ) :   0.8413 B( 15-O , 22-H ) :   0.8517
B( 16-O , 23-H ) :   0.7862

Dispersion correction           -0.025303513
FINAL SINGLE POINT ENERGY      -685.694011637759

DIPOLE MOMENT
-------------

Method             : SCF
Type of density    : Electron Density
Multiplicity       :   1
Irrep              :   0
Energy             :  -685.8264649542446705 Eh
Relativity type    :
Basis              : AO
                                X                 Y                 Z
Electronic contribution:      2.124118537       0.698416011       0.327035604
Nuclear contribution   :     -1.137619326      -1.141648342       0.345114858
                        -----------------------------------------
Total Dipole Moment    :      0.986499211      -0.443232331       0.672150462
                        -----------------------------------------
Magnitude (a.u.)       :      1.273350634
Magnitude (Debye)      :      3.236600094

Rotational constants in cm-1:             0.035665             0.032852             0.021646
Rotational constants in MHz :          1069.200839           984.863241           648.925075

                             ****ORCA TERMINATED NORMALLY****
TOTAL RUN TIME: 0 days 0 hours 0 minutes 10 seconds 787 msec
