                         Program Version 6.0.1  -  RELEASE   -
|  1> ! r2scan-3c def2/J RI DEFGRID2 scfconv6 printgap
|  2> %output
|  3>     printlevel normal
|  4> end
|  5> * xyz 0 1
|  6> C 0.390337794 -1.8724752292 -0.2013653656
|  7> C 0.5678823646 -0.4815932062 -0.7810046728
|  8> H 1.1010953092 -0.5250636645 -1.7357561723
|  9> C -0.7453063343 0.2514250154 -1.0024312714
| 10> Cl -1.6861111494 0.3946469372 0.5045552494
| 11> Cl 1.608258784 0.4940688953 0.3099462266
| 12> H 1.3573166721 -2.3458396172 -0.0540986518
| 13> H -0.1234751394 -1.8196930838 0.7550789974
| 14> H -0.1991159414 -2.4801713203 -0.8848900238
| 15> H -0.5709135939 1.2646505843 -1.3642483044
| 16> H -1.3637048362 -0.2976653101 -1.713677171
| 17> *
| 18>
| 19>                          ****END OF INPUT****

CARTESIAN COORDINATES (ANGSTROEM)
---------------------------------
  C      0.390338   -1.872475   -0.201365
  C      0.567882   -0.481593   -0.781005
  H      1.101095   -0.525064   -1.735756
  C     -0.745306    0.251425   -1.002431
  Cl    -1.686111    0.394647    0.504555
  Cl     1.608259    0.494069    0.309946
  H      1.357317   -2.345840   -0.054099
  H     -0.123475   -1.819693    0.755079
  H     -0.199116   -2.480171   -0.884890
  H     -0.570914    1.264651   -1.364248
  H     -1.363705   -0.297665   -1.713677

 Total Charge           Charge          ....    0
 Multiplicity           Mult            ....    1
 Number of Electrons    NEL             ....   58
 Basis Dimension        Dim             ....  141

ORBITAL ENERGIES
----------------

  NO   OCC          E(Eh)            E(eV)
   0   2.0000    -101.209125     -2754.0403
   1   2.0000    -101.204590     -2753.9169
   2   2.0000     -10.117115      -275.3007
   3   2.0000     -10.108322      -275.0614
   4   2.0000     -10.040798      -273.2240
   5   2.0000      -9.365209      -254.8403
   6   2.0000      -9.360817      -254.7208
   7   2.0000      -7.111617      -193.5169
   8   2.0000      -7.107084      -193.3936
   9   2.0000      -7.101245      -193.2347
  10   2.0000      -7.101006      -193.2282
  11   2.0000      -7.096830      -193.1145
  12   2.0000      -7.096802      -193.1138
  13   2.0000      -0.859633       -23.3918
  14   2.0000      -0.803415       -21.8620
  15   2.0000      -0.721533       -19.6339
  16   2.0000      -0.665259       -18.1026
  17   2.0000      -0.559901       -15.2357
  18   2.0000      -0.469690       -12.7809
  19   2.0000      -0.457091       -12.4381
  20   2.0000      -0.426384       -11.6025
  21   2.0000      -0.393618       -10.7109
  22   2.0000      -0.368590       -10.0298
  23   2.0000      -0.357305        -9.7228
  24   2.0000      -0.347937        -9.4678
  25   2.0000      -0.281535        -7.6609
  26   2.0000      -0.277754        -7.5581
  27   2.0000      -0.270212        -7.3528
  28   2.0000      -0.266860        -7.2616
  29   0.0000      -0.012041        -0.3276
  30   0.0000       0.016163         0.4398
  31   0.0000       0.076696         2.0870
  32   0.0000       0.115792         3.1509
  33   0.0000       0.123393         3.3577

MULLIKEN ATOMIC CHARGES
-----------------------
   0 C :   -0.480809
   1 C :    0.027443
   2 H :    0.171300
   3 C :   -0.175175
   4 Cl:   -0.176042
   5 Cl:   -0.189274
   6 H :    0.163331
   7 H :    0.180094
   8 H :    0.143364
   9 H :    0.176923
  10 H :    0.158846
Sum of atomic charges:   -0.0000000

LOEWDIN ATOMIC CHARGES
----------------------
   0 C :   -0.430581
   1 C :   -0.286892
   2 H :    0.167820
   3 C :   -0.339599
   4 Cl:    0.026760
   5 Cl:    0.037624
   6 H :    0.162836
   7 H :    0.169132
   8 H :    0.159865
   9 H :    0.168123
  10 H :    0.164912

  Mayer bond orders larger than 0.100000
B(  0-C ,  1-C ) :   0.9434 B(  0-C ,  6-H ) :   0.9634 B(  0-C ,  7-H ) :   0.9639
B(  0-C ,  8-H ) :   0.9582 B(  1-C ,  2-H ) :   0.9281 B(  1-C ,  3-C ) :   0.9353
B(  1-C ,  5-Cl) :   0.9479 B(  3-C ,  4-Cl) :   0.9930 B(  3-C ,  9-H ) :   0.9544
B(  3-C , 10-H ) :   0.9452

Dispersion correction           -0.003042518
FINAL SINGLE POINT ENERGY     -1038.250414302633

DIPOLE MOMENT
-------------

Method             : SCF
Type of density    : Electron Density
Multiplicity       :   1
Irrep              :   0
Energy             : -1038.2570462652038259 Eh
Relativity type    :
Basis              : AO
                                X                 Y                 Z
Electronic contribution:     -0.347777010       6.449693836       4.794023533
Nuclear contribution   :      0.293256913      -7.013067191      -5.781839243
                        -----------------------------------------
Total Dipole Moment    :     -0.054520098      -0.563373355      -0.987815709
                        -----------------------------------------
Magnitude (a.u.)       :      1.138482259
Magnitude (Debye)      :      2.893791929

Rotational constants in cm-1:             0.144661             0.068737             0.057042
Rotational constants in MHz :          4336.827431          2060.680170          1710.070347

                             ****ORCA TERMINATED NORMALLY****
TOTAL RUN TIME: 0 days 0 hours 0 minutes 7 seconds 175 msec
