                         Program Version 6.0.0  -   RELEASE  -
|  1> ! r2SCAN-3c DEF2-TZVP FREQ
|  2> * xyzfile 0 1 censo.xyz
|  3>
|  4>                          ****END OF INPUT****

CARTESIAN COORDINATES (ANGSTROEM)
---------------------------------
  C     -3.659246   -0.024868    0.000051
  C     -2.223160    0.506662   -0.000062
  C     -1.256777   -0.655600    0.000012
  I      0.837394    0.020484   -0.000050
  H     -4.372273    0.805267   -0.000010
  H     -3.852632   -0.637789   -0.886376
  H     -3.852567   -0.637606    0.886619
  H     -2.055901    1.132001    0.882852
  H     -2.055971    1.131814   -0.883122
  H     -1.333618   -1.273074   -0.894740
  H     -1.333488   -1.272854    0.894931

 Total Charge           Charge          ....    0
 Multiplicity           Mult            ....    1
 Number of Electrons    NEL             ....   50
 Basis Dimension        Dim             ....  185

ORBITAL ENERGIES
----------------

  NO   OCC          E(Eh)            E(eV)
   0   2.0000     -10.086709      -274.4733
   1   2.0000     -10.049061      -273.4489
   2   2.0000     -10.037406      -273.1317
   3   2.0000      -6.768305      -184.1749
   4   2.0000      -4.789647      -130.3329
   5   2.0000      -4.777592      -130.0049
   6   2.0000      -4.777216      -129.9947
   7   2.0000      -1.840074       -50.0710
   8   2.0000      -1.837673       -50.0056
   9   2.0000      -1.837447       -49.9995
  10   2.0000      -1.827259       -49.7223
  11   2.0000      -1.827236       -49.7216
  12   2.0000      -0.777523       -21.1575
  13   2.0000      -0.687618       -18.7110
  14   2.0000      -0.616501       -16.7758
  15   2.0000      -0.567797       -15.4505
  16   2.0000      -0.456594       -12.4245
  17   2.0000      -0.412653       -11.2289
  18   2.0000      -0.383375       -10.4322
  19   2.0000      -0.382067       -10.3966
  20   2.0000      -0.336755        -9.1636
  21   2.0000      -0.321804        -8.7567
  22   2.0000      -0.302885        -8.2419
  23   2.0000      -0.232134        -6.3167
  24   2.0000      -0.231503        -6.2995
  25   0.0000      -0.058157        -1.5825
  26   0.0000       0.042349         1.1524
  27   0.0000       0.076023         2.0687
  28   0.0000       0.081499         2.2177
  29   0.0000       0.087873         2.3911

MULLIKEN ATOMIC CHARGES
-----------------------
   0 C :   -0.323393
   1 C :   -0.145222
   2 C :   -0.196028
   3 I :   -0.135997
   4 H :    0.116381
   5 H :    0.105986
   6 H :    0.105987
   7 H :    0.103563
   8 H :    0.103561
   9 H :    0.132581
  10 H :    0.132581
Sum of atomic charges:   -0.0000000

LOEWDIN ATOMIC CHARGES
----------------------
   0 C :   -0.303551
   1 C :   -0.332373
   2 C :   -0.426235
   3 I :    0.174428
   4 H :    0.123091
   5 H :    0.119427
   6 H :    0.119427
   7 H :    0.136939
   8 H :    0.136940
   9 H :    0.125953
  10 H :    0.125954

  Mayer bond orders larger than 0.100000
B(  0-C ,  1-C ) :   0.9521 B(  0-C ,  4-H ) :   0.9701 B(  0-C ,  5-H ) :   0.9746
B(  0-C ,  6-H ) :   0.9746 B(  1-C ,  2-C ) :   0.9918 B(  1-C ,  7-H ) :   0.9651
B(  1-C ,  8-H ) :   0.9651 B(  2-C ,  3-I ) :   1.0135 B(  2-C ,  9-H ) :   0.9548
B(  2-C , 10-H ) :   0.9548

Dispersion correction           -0.002431938
FINAL SINGLE POINT ENERGY      -416.326399632187

DIPOLE MOMENT
-------------

Method             : SCF
Type of density    : Electron Density
Multiplicity       :   1
Irrep              :   0
Energy             :  -416.3288283331686443 Eh
Relativity type    :
Basis              : AO
                                X                 Y                 Z
Electronic contribution:     76.932899062       2.141402105      -0.001332101
Nuclear contribution   :    -77.857897481      -2.287508027       0.001368107
                        -----------------------------------------
Total Dipole Moment    :     -0.924998419      -0.146105923       0.000036007
                        -----------------------------------------
Magnitude (a.u.)       :      0.936466239
Magnitude (Debye)      :      2.380308013

VIBRATIONAL FREQUENCIES
-----------------------

Scaling factor for frequencies =  1.000000000  (already applied!)

     0:       0.00 cm**-1
     1:       0.00 cm**-1
     2:       0.00 cm**-1
     3:       0.00 cm**-1
     4:       0.00 cm**-1
     5:       0.00 cm**-1
     6:     114.89 cm**-1
     7:     194.13 cm**-1
     8:     256.84 cm**-1
     9:     277.49 cm**-1
    10:     581.02 cm**-1
    11:     743.47 cm**-1
    12:     838.97 cm**-1
    13:     906.30 cm**-1
    14:    1019.73 cm**-1
    15:    1019.98 cm**-1
    16:    1104.62 cm**-1
    17:    1195.80 cm**-1
    18:    1236.04 cm**-1
    19:    1316.74 cm**-1
    20:    1340.07 cm**-1
    21:    1398.51 cm**-1
    22:    1468.99 cm**-1
    23:    1484.41 cm**-1
    24:    1491.22 cm**-1
    25:    1499.85 cm**-1
    26:    3006.25 cm**-1
    27:    3027.48 cm**-1
    28:    3066.59 cm**-1
    29:    3077.84 cm**-1
    30:    3089.86 cm**-1
    31:    3091.95 cm**-1
    32:    3154.54 cm**-1

IR SPECTRUM
-----------

 Mode   freq       eps      Int      T**2         TX        TY        TZ
       cm**-1   L/(mol*cm) km/mol    a.u.
----------------------------------------------------------------------------
  6:    114.89   0.000088    0.45  0.000240  (-0.000004 -0.000000  0.015495)
  7:    194.13   0.000268    1.36  0.000431  (-0.019886  0.006003  0.000001)
  8:    256.84   0.000002    0.01  0.000003  ( 0.000001  0.000001  0.001728)
  9:    277.49   0.000208    1.05  0.000234  ( 0.014560  0.004720 -0.000000)
 10:    581.02   0.004493   22.71  0.002413  (-0.049120 -0.000699  0.000002)
 11:    743.47   0.000964    4.87  0.000404  ( 0.000005  0.000002  0.020111)
 12:    838.97   0.000000    0.00  0.000000  (-0.000002 -0.000001  0.000211)
 13:    906.30   0.002113   10.68  0.000728  (-0.025391  0.009103 -0.000000)
 14:   1019.73   0.000454    2.30  0.000139  (-0.000145  0.000038  0.011791)
 15:   1019.98   0.000488    2.47  0.000149  (-0.011925  0.002666 -0.000150)
 16:   1104.62   0.000473    2.39  0.000134  ( 0.000558  0.011551 -0.000001)
 17:   1195.80   0.013587   68.66  0.003546  ( 0.058047  0.013275 -0.000000)
 18:   1236.04   0.000066    0.33  0.000017  (-0.000003  0.000000  0.004076)
 19:   1316.74   0.000037    0.19  0.000009  ( 0.000001 -0.000000  0.002966)
 20:   1340.07   0.000342    1.73  0.000080  (-0.008885  0.000801 -0.000000)
 21:   1398.51   0.000431    2.18  0.000096  (-0.007063 -0.006805  0.000001)
 22:   1468.99   0.000357    1.80  0.000076  ( 0.000546 -0.008687  0.000002)
 23:   1484.41   0.000406    2.05  0.000085  ( 0.009207  0.000728  0.000000)
 24:   1491.22   0.001955    9.88  0.000409  ( 0.000001  0.000002  0.020228)
 25:   1499.85   0.001438    7.27  0.000299  ( 0.000293  0.017296 -0.000001)
 26:   3006.25   0.005725   28.93  0.000594  ( 0.023239  0.007365 -0.000001)
 27:   3027.48   0.001793    9.06  0.000185  (-0.003019 -0.013256  0.000001)
 28:   3066.59   0.000034    0.17  0.000003  (-0.000001 -0.000001  0.001864)
 29:   3077.84   0.001443    7.29  0.000146  ( 0.006759  0.010031  0.000002)
 30:   3089.86   0.005459   27.59  0.000551  ( 0.007768 -0.022159 -0.000009)
 31:   3091.95   0.006926   35.00  0.000699  (-0.000003  0.000009 -0.026439)
 32:   3154.54   0.000941    4.76  0.000093  (-0.000001 -0.000003 -0.009649)

--------------------------
THERMOCHEMISTRY AT 298.15K
--------------------------

Temperature         ...   298.15 K
Pressure            ...     1.00 atm
Total Mass          ...   169.99 AMU
Quasi RRHO          ...     True
Cut-Off Frequency   ...     1.00 cm^-1

Throughout the following assumptions are being made:
  (1) The electronic state is orbitally nondegenerate
  (2) There are no thermally accessible electronically excited states
  (3) Hindered rotations indicated by low frequency modes are not
      treated as such but are treated as vibrations and this may
      cause some error
  (4) All equations used are the standard statistical mechanics
      equations for an ideal gas
  (5) All vibrations are strictly harmonic

freq.     114.89  E(vib)   ...       0.44
freq.     194.13  E(vib)   ...       0.36
freq.     256.84  E(vib)   ...       0.30
freq.     277.49  E(vib)   ...       0.28
freq.     581.02  E(vib)   ...       0.11
freq.     743.47  E(vib)   ...       0.06
freq.     838.97  E(vib)   ...       0.04
freq.     906.30  E(vib)   ...       0.03
freq.    1019.73  E(vib)   ...       0.02
freq.    1019.98  E(vib)   ...       0.02
freq.    1104.62  E(vib)   ...       0.02
freq.    1195.80  E(vib)   ...       0.01
freq.    1236.04  E(vib)   ...       0.01
freq.    1316.74  E(vib)   ...       0.01
freq.    1340.07  E(vib)   ...       0.01
freq.    1398.51  E(vib)   ...       0.00
freq.    1468.99  E(vib)   ...       0.00
freq.    1484.41  E(vib)   ...       0.00
freq.    1491.22  E(vib)   ...       0.00
freq.    1499.85  E(vib)   ...       0.00
freq.    3006.25  E(vib)   ...       0.00
freq.    3027.48  E(vib)   ...       0.00
freq.    3066.59  E(vib)   ...       0.00
freq.    3077.84  E(vib)   ...       0.00
freq.    3089.86  E(vib)   ...       0.00
freq.    3091.95  E(vib)   ...       0.00
freq.    3154.54  E(vib)   ...       0.00

------------
INNER ENERGY
------------

The inner energy is: U= E(el) + E(ZPE) + E(vib) + E(rot) + E(trans)
    E(el)   - is the total energy from the electronic structure calculation
              = E(kin-el) + E(nuc-el) + E(el-el) + E(nuc-nuc)
    E(ZPE)  - the the zero temperature vibrational energy from the frequency calculation
    E(vib)  - the the finite temperature correction to E(ZPE) due to population
              of excited vibrational states
    E(rot)  - is the rotational thermal energy
    E(trans)- is the translational thermal energy

Summary of contributions to the inner energy U:
Electronic energy                ...   -416.32639963 Eh
Zero point energy                ...      0.09341305 Eh      58.62 kcal/mol
Thermal vibrational correction   ...      0.00276290 Eh       1.73 kcal/mol
Thermal rotational correction    ...      0.00141627 Eh       0.89 kcal/mol
Thermal translational correction ...      0.00141627 Eh       0.89 kcal/mol
-----------------------------------------------------------------------
Total thermal energy                   -416.22739114 Eh

Summary of corrections to the electronic energy:
(perhaps to be used in another calculation)
Total thermal correction                  0.00559544 Eh       3.51 kcal/mol
Non-thermal (ZPE) correction              0.09341305 Eh      58.62 kcal/mol
-----------------------------------------------------------------------
Total correction                          0.09900849 Eh      62.13 kcal/mol

--------
ENTHALPY
--------

The enthalpy is H = U + kB*T
                kB is Boltzmann's constant
Total thermal energy              ...   -416.22739114 Eh
Thermal Enthalpy correction       ...      0.00094421 Eh       0.59 kcal/mol
-----------------------------------------------------------------------
Total Enthalpy                    ...   -416.22644693 Eh

Note: Only C1 symmetry has been detected, increase convergence thresholds
      if your molecule has a higher symmetry. Symmetry factor of 1.0 is
      used for the rotational entropy correction.

Note: Rotational entropy computed according to Herzberg
Infrared and Raman Spectra, Chapter V,1, Van Nostrand Reinhold, 1945
Point Group:  C1, Symmetry Number:   1
Rotational constants in cm-1:     0.826374     0.042764     0.041617

Vibrational entropy computed according to the QRRHO of S. Grimme
Chem.Eur.J. 2012 18 9955 using a reference frequency of 100.0 cm-1

-------
ENTROPY
-------

The entropy contributions are T*S = T*(S(el)+S(vib)+S(rot)+S(trans))
     S(el)   - electronic entropy
     S(vib)  - vibrational entropy
     S(rot)  - rotational entropy
     S(trans)- translational entropy
The entropies will be listed as multiplied by the temperature to get
units of energy

Electronic entropy                ...      0.00000000 Eh      0.00 kcal/mol
Vibrational entropy               ...      0.00471831 Eh      2.96 kcal/mol
Rotational entropy                ...      0.01258979 Eh      7.90 kcal/mol
Translational entropy             ...      0.01962266 Eh     12.31 kcal/mol
-----------------------------------------------------------------------
Final entropy term                ...      0.03693076 Eh     23.17 kcal/mol

In case the symmetry of your molecule has not been determined correctly
or in case you have a reason to use a different symmetry number we print
out the resulting rotational entropy values for sn=1,12:

 non-linear molecules -----------------------------------
|  sn= 1 | S(rot)=       0.01258979 Eh      7.90 kcal/mol|
|  sn= 2 | S(rot)=       0.01193533 Eh      7.49 kcal/mol|
|  sn= 3 | S(rot)=       0.01155250 Eh      7.25 kcal/mol|
|  sn= 4 | S(rot)=       0.01128088 Eh      7.08 kcal/mol|
|  sn= 5 | S(rot)=       0.01107019 Eh      6.95 kcal/mol|
|  sn= 6 | S(rot)=       0.01089805 Eh      6.84 kcal/mol|
|  sn= 7 | S(rot)=       0.01075250 Eh      6.75 kcal/mol|
|  sn= 8 | S(rot)=       0.01062642 Eh      6.67 kcal/mol|
|  sn= 9 | S(rot)=       0.01051521 Eh      6.60 kcal/mol|
|  sn=10 | S(rot)=       0.01041573 Eh      6.54 kcal/mol|
|  sn=11 | S(rot)=       0.01032574 Eh      6.48 kcal/mol|
|  sn=12 | S(rot)=       0.01024359 Eh      6.43 kcal/mol|
 linear molecules ---------------------------------------
|  Dinfh | S(rot)=       0.00832758 Eh      5.23 kcal/mol|
|  Cinfv | S(rot)=       0.00898204 Eh      5.64 kcal/mol|
 --------------------------------------------------------

-------------------
GIBBS FREE ENERGY
-------------------

The Gibbs free energy is G = H - T*S

Total enthalpy                    ...   -416.22644693 Eh
Total entropy correction          ...     -0.03693076 Eh    -23.17 kcal/mol
-----------------------------------------------------------------------
Final Gibbs free energy         ...   -416.26337769 Eh

For completeness - the Gibbs free energy minus the electronic energy
G-E(el)                           ...      0.06302194 Eh     39.55 kcal/mol

                             ****ORCA TERMINATED NORMALLY****
TOTAL RUN TIME: 0 days 0 hours 4 minutes 3 seconds 717 msec
