                         Program Version 6.0.0  -   RELEASE  -
|  1> ! r2SCAN-3c DEF2-TZVP FREQ
|  2> * xyzfile 0 1 vacuum_censo.xyz
|  3>
|  4>                          ****END OF INPUT****

CARTESIAN COORDINATES (ANGSTROEM)
---------------------------------
  C     -2.724706   -0.918633   -0.164252
  C     -2.311827    0.439293    0.391695
  C     -1.127302    1.067559   -0.311182
  I      0.739065   -0.051887   -0.004418
  H     -1.923406   -1.652006   -0.036052
  H     -3.614631   -1.294659    0.347613
  H     -2.951785   -0.850557   -1.233440
  H     -2.108997    0.368154    1.465797
  H     -3.145106    1.149701    0.278402
  H     -0.895687    2.064049    0.062389
  H     -1.249995    1.094072   -1.394503

 Total Charge           Charge          ....    0
 Multiplicity           Mult            ....    1
 Number of Electrons    NEL             ....   50
 Basis Dimension        Dim             ....  185

ORBITAL ENERGIES
----------------

  NO   OCC          E(Eh)            E(eV)
   0   2.0000     -10.086759      -274.4747
   1   2.0000     -10.050254      -273.4813
   2   2.0000     -10.028925      -272.9009
   3   2.0000      -6.768723      -184.1863
   4   2.0000      -4.789976      -130.3419
   5   2.0000      -4.778089      -130.0184
   6   2.0000      -4.777662      -130.0068
   7   2.0000      -1.840448       -50.0811
   8   2.0000      -1.838111       -50.0175
   9   2.0000      -1.837822       -50.0097
  10   2.0000      -1.827764       -49.7360
  11   2.0000      -1.827736       -49.7352
  12   2.0000      -0.775405       -21.0999
  13   2.0000      -0.684308       -18.6210
  14   2.0000      -0.625168       -17.0117
  15   2.0000      -0.557850       -15.1799
  16   2.0000      -0.441702       -12.0193
  17   2.0000      -0.432341       -11.7646
  18   2.0000      -0.394196       -10.7266
  19   2.0000      -0.349392        -9.5074
  20   2.0000      -0.336830        -9.1656
  21   2.0000      -0.328239        -8.9318
  22   2.0000      -0.299962        -8.1624
  23   2.0000      -0.233292        -6.3482
  24   2.0000      -0.231110        -6.2888
  25   0.0000      -0.056847        -1.5469
  26   0.0000       0.042202         1.1484
  27   0.0000       0.080045         2.1781
  28   0.0000       0.082070         2.2332
  29   0.0000       0.095052         2.5865

MULLIKEN ATOMIC CHARGES
-----------------------
   0 C :   -0.335814
   1 C :   -0.134575
   2 C :   -0.190951
   3 I :   -0.142174
   4 H :    0.127359
   5 H :    0.112087
   6 H :    0.099996
   7 H :    0.105868
   8 H :    0.091345
   9 H :    0.140039
  10 H :    0.126820
Sum of atomic charges:    0.0000000

LOEWDIN ATOMIC CHARGES
----------------------
   0 C :   -0.312412
   1 C :   -0.330176
   2 C :   -0.427644
   3 I :    0.176839
   4 H :    0.120366
   5 H :    0.120487
   6 H :    0.119236
   7 H :    0.138056
   8 H :    0.143205
   9 H :    0.125815
  10 H :    0.126228

  Mayer bond orders larger than 0.100000
B(  0-C ,  1-C ) :   0.9817 B(  0-C ,  4-H ) :   0.9667 B(  0-C ,  5-H ) :   0.9734
B(  0-C ,  6-H ) :   0.9726 B(  1-C ,  2-C ) :   0.9906 B(  1-C ,  7-H ) :   0.9642
B(  1-C ,  8-H ) :   0.9396 B(  2-C ,  3-I ) :   0.9954 B(  2-C ,  9-H ) :   0.9553
B(  2-C , 10-H ) :   0.9571

Dispersion correction           -0.002545856
FINAL SINGLE POINT ENERGY      -416.326710335003

DIPOLE MOMENT
-------------

Method             : SCF
Type of density    : Electron Density
Multiplicity       :   1
Irrep              :   0
Energy             :  -416.3290777147859103 Eh
Relativity type    :
Basis              : AO
                                X                 Y                 Z
Electronic contribution:     66.258772061      -4.775323398       0.913176696
Nuclear contribution   :    -67.076060421       5.119220465      -0.965237854
                        -----------------------------------------
Total Dipole Moment    :     -0.817288360       0.343897067      -0.052061158
                        -----------------------------------------
Magnitude (a.u.)       :      0.888220592
Magnitude (Debye)      :      2.257677325

VIBRATIONAL FREQUENCIES
-----------------------

Scaling factor for frequencies =  1.000000000  (already applied!)

     0:       0.00 cm**-1
     1:       0.00 cm**-1
     2:       0.00 cm**-1
     3:       0.00 cm**-1
     4:       0.00 cm**-1
     5:       0.00 cm**-1
     6:     128.38 cm**-1
     7:     198.23 cm**-1
     8:     276.92 cm**-1
     9:     388.46 cm**-1
    10:     495.02 cm**-1
    11:     770.55 cm**-1
    12:     825.72 cm**-1
    13:     889.64 cm**-1
    14:    1020.03 cm**-1
    15:    1041.79 cm**-1
    16:    1084.77 cm**-1
    17:    1210.48 cm**-1
    18:    1220.37 cm**-1
    19:    1301.24 cm**-1
    20:    1366.68 cm**-1
    21:    1404.48 cm**-1
    22:    1462.27 cm**-1
    23:    1463.72 cm**-1
    24:    1491.62 cm**-1
    25:    1496.82 cm**-1
    26:    2980.93 cm**-1
    27:    3013.05 cm**-1
    28:    3048.98 cm**-1
    29:    3078.57 cm**-1
    30:    3091.16 cm**-1
    31:    3100.42 cm**-1
    32:    3151.65 cm**-1

IR SPECTRUM
-----------

 Mode   freq       eps      Int      T**2         TX        TY        TZ
       cm**-1   L/(mol*cm) km/mol    a.u.
----------------------------------------------------------------------------
  6:    128.38   0.000022    0.11  0.000052  ( 0.005365  0.004381  0.002101)
  7:    198.23   0.000137    0.69  0.000215  ( 0.014316 -0.002509 -0.001966)
  8:    276.92   0.000095    0.48  0.000108  (-0.007221  0.007437 -0.000265)
  9:    388.46   0.000278    1.41  0.000224  (-0.014266  0.000629 -0.004439)
 10:    495.02   0.001931    9.76  0.001217  (-0.033157  0.009545  0.005157)
 11:    770.55   0.002527   12.77  0.001024  (-0.029488 -0.001541 -0.012315)
 12:    825.72   0.001148    5.80  0.000434  (-0.015427  0.013007  0.005156)
 13:    889.64   0.001265    6.39  0.000444  (-0.020445 -0.000841  0.005014)
 14:   1020.03   0.000420    2.12  0.000129  (-0.006635  0.003239  0.008606)
 15:   1041.79   0.000171    0.86  0.000051  (-0.006306  0.003032 -0.001488)
 16:   1084.77   0.000873    4.41  0.000251  ( 0.013356 -0.008059  0.002778)
 17:   1210.48   0.006459   32.64  0.001665  (-0.036723  0.016594 -0.006425)
 18:   1220.37   0.003645   18.42  0.000932  (-0.028840  0.009523 -0.003108)
 19:   1301.24   0.005581   28.20  0.001338  ( 0.034533 -0.012069 -0.000489)
 20:   1366.68   0.000600    3.03  0.000137  (-0.011543  0.000394 -0.001887)
 21:   1404.48   0.001907    9.64  0.000424  ( 0.011798  0.016132  0.004929)
 22:   1462.27   0.001286    6.50  0.000275  (-0.008199  0.000522  0.014389)
 23:   1463.72   0.000301    1.52  0.000064  ( 0.000962  0.004626  0.006474)
 24:   1491.62   0.001836    9.28  0.000384  ( 0.008743 -0.013590  0.011091)
 25:   1496.82   0.001376    6.95  0.000287  (-0.010485 -0.005881  0.011930)
 26:   2980.93   0.004537   22.93  0.000475  ( 0.013401 -0.015582 -0.007250)
 27:   3013.05   0.004350   21.98  0.000450  (-0.011078 -0.015304 -0.009673)
 28:   3048.98   0.001177    5.95  0.000120  (-0.002235 -0.005214 -0.009396)
 29:   3078.57   0.001414    7.14  0.000143  ( 0.002472 -0.009824  0.006377)
 30:   3091.16   0.006554   33.12  0.000662  (-0.001943  0.010943 -0.023198)
 31:   3100.42   0.004661   23.56  0.000469  (-0.021004  0.000774  0.005235)
 32:   3151.65   0.000672    3.40  0.000067  (-0.001752 -0.004847 -0.006325)

--------------------------
THERMOCHEMISTRY AT 298.15K
--------------------------

Temperature         ...   298.15 K
Pressure            ...     1.00 atm
Total Mass          ...   169.99 AMU
Quasi RRHO          ...     True
Cut-Off Frequency   ...     1.00 cm^-1

Throughout the following assumptions are being made:
  (1) The electronic state is orbitally nondegenerate
  (2) There are no thermally accessible electronically excited states
  (3) Hindered rotations indicated by low frequency modes are not
      treated as such but are treated as vibrations and this may
      cause some error
  (4) All equations used are the standard statistical mechanics
      equations for an ideal gas
  (5) All vibrations are strictly harmonic

freq.     128.38  E(vib)   ...       0.43
freq.     198.23  E(vib)   ...       0.35
freq.     276.92  E(vib)   ...       0.28
freq.     388.46  E(vib)   ...       0.20
freq.     495.02  E(vib)   ...       0.14
freq.     770.55  E(vib)   ...       0.05
freq.     825.72  E(vib)   ...       0.04
freq.     889.64  E(vib)   ...       0.04
freq.    1020.03  E(vib)   ...       0.02
freq.    1041.79  E(vib)   ...       0.02
freq.    1084.77  E(vib)   ...       0.02
freq.    1210.48  E(vib)   ...       0.01
freq.    1220.37  E(vib)   ...       0.01
freq.    1301.24  E(vib)   ...       0.01
freq.    1366.68  E(vib)   ...       0.01
freq.    1404.48  E(vib)   ...       0.00
freq.    1462.27  E(vib)   ...       0.00
freq.    1463.72  E(vib)   ...       0.00
freq.    1491.62  E(vib)   ...       0.00
freq.    1496.82  E(vib)   ...       0.00
freq.    2980.93  E(vib)   ...       0.00
freq.    3013.05  E(vib)   ...       0.00
freq.    3048.98  E(vib)   ...       0.00
freq.    3078.57  E(vib)   ...       0.00
freq.    3091.16  E(vib)   ...       0.00
freq.    3100.42  E(vib)   ...       0.00
freq.    3151.65  E(vib)   ...       0.00

------------
INNER ENERGY
------------

The inner energy is: U= E(el) + E(ZPE) + E(vib) + E(rot) + E(trans)
    E(el)   - is the total energy from the electronic structure calculation
              = E(kin-el) + E(nuc-el) + E(el-el) + E(nuc-nuc)
    E(ZPE)  - the the zero temperature vibrational energy from the frequency calculation
    E(vib)  - the the finite temperature correction to E(ZPE) due to population
              of excited vibrational states
    E(rot)  - is the rotational thermal energy
    E(trans)- is the translational thermal energy

Summary of contributions to the inner energy U:
Electronic energy                ...   -416.32671034 Eh
Zero point energy                ...      0.09340933 Eh      58.62 kcal/mol
Thermal vibrational correction   ...      0.00263046 Eh       1.65 kcal/mol
Thermal rotational correction    ...      0.00141627 Eh       0.89 kcal/mol
Thermal translational correction ...      0.00141627 Eh       0.89 kcal/mol
-----------------------------------------------------------------------
Total thermal energy                   -416.22783800 Eh

Summary of corrections to the electronic energy:
(perhaps to be used in another calculation)
Total thermal correction                  0.00546301 Eh       3.43 kcal/mol
Non-thermal (ZPE) correction              0.09340933 Eh      58.62 kcal/mol
-----------------------------------------------------------------------
Total correction                          0.09887233 Eh      62.04 kcal/mol

--------
ENTHALPY
--------

The enthalpy is H = U + kB*T
                kB is Boltzmann's constant
Total thermal energy              ...   -416.22783800 Eh
Thermal Enthalpy correction       ...      0.00094421 Eh       0.59 kcal/mol
-----------------------------------------------------------------------
Total Enthalpy                    ...   -416.22689379 Eh

Note: Only C1 symmetry has been detected, increase convergence thresholds
      if your molecule has a higher symmetry. Symmetry factor of 1.0 is
      used for the rotational entropy correction.

Note: Rotational entropy computed according to Herzberg
Infrared and Raman Spectra, Chapter V,1, Van Nostrand Reinhold, 1945
Point Group:  C1, Symmetry Number:   1
Rotational constants in cm-1:     0.352896     0.058219     0.052845

Vibrational entropy computed according to the QRRHO of S. Grimme
Chem.Eur.J. 2012 18 9955 using a reference frequency of 100.0 cm-1

-------
ENTROPY
-------

The entropy contributions are T*S = T*(S(el)+S(vib)+S(rot)+S(trans))
     S(el)   - electronic entropy
     S(vib)  - vibrational entropy
     S(rot)  - rotational entropy
     S(trans)- translational entropy
The entropies will be listed as multiplied by the temperature to get
units of energy

Electronic entropy                ...      0.00000000 Eh      0.00 kcal/mol
Vibrational entropy               ...      0.00439661 Eh      2.76 kcal/mol
Rotational entropy                ...      0.01273307 Eh      7.99 kcal/mol
Translational entropy             ...      0.01962266 Eh     12.31 kcal/mol
-----------------------------------------------------------------------
Final entropy term                ...      0.03675235 Eh     23.06 kcal/mol

In case the symmetry of your molecule has not been determined correctly
or in case you have a reason to use a different symmetry number we print
out the resulting rotational entropy values for sn=1,12:

 non-linear molecules -----------------------------------
|  sn= 1 | S(rot)=       0.01273307 Eh      7.99 kcal/mol|
|  sn= 2 | S(rot)=       0.01207862 Eh      7.58 kcal/mol|
|  sn= 3 | S(rot)=       0.01169579 Eh      7.34 kcal/mol|
|  sn= 4 | S(rot)=       0.01142416 Eh      7.17 kcal/mol|
|  sn= 5 | S(rot)=       0.01121347 Eh      7.04 kcal/mol|
|  sn= 6 | S(rot)=       0.01104133 Eh      6.93 kcal/mol|
|  sn= 7 | S(rot)=       0.01089578 Eh      6.84 kcal/mol|
|  sn= 8 | S(rot)=       0.01076970 Eh      6.76 kcal/mol|
|  sn= 9 | S(rot)=       0.01065850 Eh      6.69 kcal/mol|
|  sn=10 | S(rot)=       0.01055902 Eh      6.63 kcal/mol|
|  sn=11 | S(rot)=       0.01046903 Eh      6.57 kcal/mol|
|  sn=12 | S(rot)=       0.01038687 Eh      6.52 kcal/mol|
 linear molecules ---------------------------------------
|  Dinfh | S(rot)=       0.00810207 Eh      5.08 kcal/mol|
|  Cinfv | S(rot)=       0.00875652 Eh      5.49 kcal/mol|
 --------------------------------------------------------

-------------------
GIBBS FREE ENERGY
-------------------

The Gibbs free energy is G = H - T*S

Total enthalpy                    ...   -416.22689379 Eh
Total entropy correction          ...     -0.03675235 Eh    -23.06 kcal/mol
-----------------------------------------------------------------------
Final Gibbs free energy         ...   -416.26364614 Eh

For completeness - the Gibbs free energy minus the electronic energy
G-E(el)                           ...      0.06306419 Eh     39.57 kcal/mol

                             ****ORCA TERMINATED NORMALLY****
TOTAL RUN TIME: 0 days 0 hours 4 minutes 18 seconds 667 msec
