                         Program Version 6.0.1  -  RELEASE   -
|  1> ! pbe def2-sv(p) def2/J RI DEFGRID1 loosescf d4 GCP(DFT/SV(P)) printgap
|  2> %output
|  3>     printlevel normal
|  4> end
|  5> * xyz 0 1
|  6> C -2.8509779236 0.7471049555 0.121909283
|  7> C -1.9776970861 -0.483120402 -0.0964524702
|  8> C -0.4921545283 -0.2334933035 -0.0448757605
|  9> C 0.3601024344 -1.3102689795 0.1818384944
| 10> C 1.7311246056 -1.1405456088 0.2195333728
| 11> C 2.2792184498 0.1173896088 0.0326772043
| 12> C 1.4433781997 1.1954667679 -0.1938485845
| 13> C 0.0698602734 1.0215258036 -0.2341167518
| 14> H -3.8957894587 0.450289541 0.1856235279
| 15> H -2.7530420618 1.451288224 -0.7008258886
| 16> H -2.5796218639 1.2495886755 1.0478894178
| 17> H -2.2179571469 -0.9223644461 -1.0707899262
| 18> H -2.2246913837 -1.2334727082 0.659669835
| 19> H -0.0611436761 -2.2951665569 0.3308294645
| 20> H 2.3740028936 -1.9905552085 0.3977540406
| 21> H 3.350090237 0.2548882833 0.064530316
| 22> H 1.8609604934 2.1812617355 -0.3410801166
| 23> H -0.560263631 1.8783909364 -0.4146868522
| 24> *
| 25>
| 26>                          ****END OF INPUT****

CARTESIAN COORDINATES (ANGSTROEM)
---------------------------------
  C     -2.850978    0.747105    0.121909
  C     -1.977697   -0.483120   -0.096452
  C     -0.492155   -0.233493   -0.044876
  C      0.360102   -1.310269    0.181838
  C      1.731125   -1.140546    0.219533
  C      2.279218    0.117390    0.032677
  C      1.443378    1.195467   -0.193849
  C      0.069860    1.021526   -0.234117
  H     -3.895789    0.450290    0.185624
  H     -2.753042    1.451288   -0.700826
  H     -2.579622    1.249589    1.047889
  H     -2.217957   -0.922364   -1.070790
  H     -2.224691   -1.233473    0.659670
  H     -0.061144   -2.295167    0.330829
  H      2.374003   -1.990555    0.397754
  H      3.350090    0.254888    0.064530
  H      1.860960    2.181262   -0.341080
  H     -0.560264    1.878391   -0.414687

 Total Charge           Charge          ....    0
 Multiplicity           Mult            ....    1
 Number of Electrons    NEL             ....   58
 Basis Dimension        Dim             ....  132

ORBITAL ENERGIES
----------------

  NO   OCC          E(Eh)            E(eV)
   0   2.0000      -9.898587      -269.3543
   1   2.0000      -9.891722      -269.1674
   2   2.0000      -9.886885      -269.0358
   3   2.0000      -9.886858      -269.0351
   4   2.0000      -9.885542      -268.9993
   5   2.0000      -9.885234      -268.9909
   6   2.0000      -9.884869      -268.9810
   7   2.0000      -9.878339      -268.8033
   8   2.0000      -0.774774       -21.0827
   9   2.0000      -0.708784       -19.2870
  10   2.0000      -0.665427       -18.1072
  11   2.0000      -0.646373       -17.5887
  12   2.0000      -0.568922       -15.4811
  13   2.0000      -0.535982       -14.5848
  14   2.0000      -0.510233       -13.8841
  15   2.0000      -0.460170       -12.5219
  16   2.0000      -0.411913       -11.2087
  17   2.0000      -0.404191       -10.9986
  18   2.0000      -0.393940       -10.7197
  19   2.0000      -0.381093       -10.3701
  20   2.0000      -0.367548       -10.0015
  21   2.0000      -0.336324        -9.1518
  22   2.0000      -0.329618        -8.9694
  23   2.0000      -0.319997        -8.7076
  24   2.0000      -0.306109        -8.3296
  25   2.0000      -0.289151        -7.8682
  26   2.0000      -0.288356        -7.8466
  27   2.0000      -0.225005        -6.1227
  28   2.0000      -0.215980        -5.8771
  29   0.0000      -0.031242        -0.8501
  30   0.0000      -0.027668        -0.7529
  31   0.0000       0.042775         1.1640
  32   0.0000       0.055096         1.4992
  33   0.0000       0.067846         1.8462

MULLIKEN ATOMIC CHARGES
-----------------------
   0 C :   -0.279572
   1 C :   -0.148097
   2 C :    0.070686
   3 C :   -0.118217
   4 C :   -0.045299
   5 C :   -0.051274
   6 C :   -0.042990
   7 C :   -0.131540
   8 H :    0.104169
   9 H :    0.112190
  10 H :    0.108615
  11 H :    0.105779
  12 H :    0.092538
  13 H :    0.036238
  14 H :    0.049603
  15 H :    0.050257
  16 H :    0.048406
  17 H :    0.038508
Sum of atomic charges:   -0.0000000

LOEWDIN ATOMIC CHARGES
----------------------
   0 C :   -0.340978
   1 C :   -0.220975
   2 C :   -0.040765
   3 C :   -0.123084
   4 C :   -0.121862
   5 C :   -0.130196
   6 C :   -0.120992
   7 C :   -0.129237
   8 H :    0.122277
   9 H :    0.119529
  10 H :    0.121832
  11 H :    0.131585
  12 H :    0.125021
  13 H :    0.119801
  14 H :    0.122188
  15 H :    0.121910
  16 H :    0.121969
  17 H :    0.121978

  Mayer bond orders larger than 0.100000
B(  0-C ,  1-C ) :   1.1836 B(  0-C ,  8-H ) :   0.9476 B(  0-C ,  9-H ) :   0.9392
B(  0-C , 10-H ) :   0.9541 B(  1-C ,  2-C ) :   1.0539 B(  1-C , 11-H ) :   0.8992
B(  1-C , 12-H ) :   0.9131 B(  2-C ,  3-C ) :   1.3870 B(  2-C ,  7-C ) :   1.4097
B(  3-C ,  4-C ) :   1.3862 B(  3-C , 13-H ) :   0.9636 B(  4-C ,  5-C ) :   1.3709
B(  4-C , 14-H ) :   0.9630 B(  5-C ,  6-C ) :   1.3900 B(  5-C , 15-H ) :   0.9654
B(  6-C ,  7-C ) :   1.3607 B(  6-C , 16-H ) :   0.9616 B(  7-C , 17-H ) :   0.9548

Dispersion correction           -0.017305213
FINAL SINGLE POINT ENERGY      -310.153988969553

DIPOLE MOMENT
-------------

Method             : SCF
Type of density    : Electron Density
Multiplicity       :   1
Irrep              :   0
Energy             :  -310.2046690550246808 Eh
Relativity type    :
Basis              : AO
                                X                 Y                 Z
Electronic contribution:      6.113824653      -0.995616924      -0.171394993
Nuclear contribution   :     -6.292717384       0.960822897       0.149087792
                        -----------------------------------------
Total Dipole Moment    :     -0.178892731      -0.034794027      -0.022307201
                        -----------------------------------------
Magnitude (a.u.)       :      0.183605133
Magnitude (Debye)      :      0.466687160

Rotational constants in cm-1:             0.161522             0.049624             0.038771
Rotational constants in MHz :          4842.309879          1487.694147          1162.328449

                             ****ORCA TERMINATED NORMALLY****
TOTAL RUN TIME: 0 days 0 hours 0 minutes 5 seconds 811 msec
