                         Program Version 6.0.1  -  RELEASE   -
|  1> ! pbe def2-sv(p) def2/J RI DEFGRID1 loosescf d4 GCP(DFT/SV(P)) printgap
|  2> %output
|  3>     printlevel normal
|  4> end
|  5> * xyz 0 1
|  6> C -2.8067920375 -0.1537585026 -0.8496325614
|  7> C -1.6261127225 -0.0849862722 0.086250845
|  8> O -1.6744038504 -0.4878004918 1.2209981359
|  9> C -0.3657568891 0.5048527637 -0.5254096569
| 10> C 0.4555098161 -0.6726820982 -1.0978227276
| 11> C 1.3575030363 -1.2529879645 -0.0165126428
| 12> C 2.4455179354 -0.244497178 0.3710951725
| 13> C 1.9417893752 1.1966732176 0.2304638191
| 14> C 0.4489456145 1.271796095 0.5260627807
| 15> H -3.2163717492 0.8496387174 -0.9583671486
| 16> H -2.5015811068 -0.501747776 -1.8331413066
| 17> H -3.576394113 -0.8045885775 -0.443030024
| 18> H -0.6482370197 1.167392854 -1.3484856524
| 19> H -0.2171875974 -1.4437582 -1.4805695954
| 20> H 1.0644370587 -0.321754915 -1.9329747463
| 21> H 0.7426777194 -1.4966732757 0.8510491467
| 22> H 1.8156649541 -2.1794019568 -0.3670509088
| 23> H 2.753349384 -0.4300531667 1.4011954102
| 24> H 3.3241081237 -0.3816188934 -0.262667048
| 25> H 2.4878939325 1.8486857173 0.9139472845
| 26> H 2.1232280083 1.5626035545 -0.782594942
| 27> H 0.2540204209 0.835972393 1.5078000897
| 28> H 0.1204866178 2.3126524152 0.5527807362
| 29> *
| 30>
| 31>                          ****END OF INPUT****

CARTESIAN COORDINATES (ANGSTROEM)
---------------------------------
  C     -2.806792   -0.153759   -0.849633
  C     -1.626113   -0.084986    0.086251
  O     -1.674404   -0.487800    1.220998
  C     -0.365757    0.504853   -0.525410
  C      0.455510   -0.672682   -1.097823
  C      1.357503   -1.252988   -0.016513
  C      2.445518   -0.244497    0.371095
  C      1.941789    1.196673    0.230464
  C      0.448946    1.271796    0.526063
  H     -3.216372    0.849639   -0.958367
  H     -2.501581   -0.501748   -1.833141
  H     -3.576394   -0.804589   -0.443030
  H     -0.648237    1.167393   -1.348486
  H     -0.217188   -1.443758   -1.480570
  H      1.064437   -0.321755   -1.932975
  H      0.742678   -1.496673    0.851049
  H      1.815665   -2.179402   -0.367051
  H      2.753349   -0.430053    1.401195
  H      3.324108   -0.381619   -0.262667
  H      2.487894    1.848686    0.913947
  H      2.123228    1.562604   -0.782595
  H      0.254020    0.835972    1.507800
  H      0.120487    2.312652    0.552781

 Total Charge           Charge          ....    0
 Multiplicity           Mult            ....    1
 Number of Electrons    NEL             ....   70
 Basis Dimension        Dim             ....  154

ORBITAL ENERGIES
----------------

  NO   OCC          E(Eh)            E(eV)
   0   2.0000     -18.739385      -509.9246
   1   2.0000      -9.971747      -271.3450
   2   2.0000      -9.899038      -269.3665
   3   2.0000      -9.894833      -269.2521
   4   2.0000      -9.886933      -269.0371
   5   2.0000      -9.881117      -268.8789
   6   2.0000      -9.880197      -268.8538
   7   2.0000      -9.880024      -268.8491
   8   2.0000      -9.879872      -268.8450
   9   2.0000      -0.941830       -25.6285
  10   2.0000      -0.760309       -20.6891
  11   2.0000      -0.691835       -18.8258
  12   2.0000      -0.664687       -18.0871
  13   2.0000      -0.653717       -17.7885
  14   2.0000      -0.559481       -15.2243
  15   2.0000      -0.552556       -15.0358
  16   2.0000      -0.485060       -13.1992
  17   2.0000      -0.455945       -12.4069
  18   2.0000      -0.445313       -12.1176
  19   2.0000      -0.428747       -11.6668
  20   2.0000      -0.410383       -11.1671
  21   2.0000      -0.398799       -10.8519
  22   2.0000      -0.382950       -10.4206
  23   2.0000      -0.362466        -9.8632
  24   2.0000      -0.353100        -9.6083
  25   2.0000      -0.338458        -9.2099
  26   2.0000      -0.334236        -9.0950
  27   2.0000      -0.326983        -8.8977
  28   2.0000      -0.320493        -8.7211
  29   2.0000      -0.314006        -8.5445
  30   2.0000      -0.308716        -8.4006
  31   2.0000      -0.270798        -7.3688
  32   2.0000      -0.263371        -7.1667
  33   2.0000      -0.261103        -7.1050
  34   2.0000      -0.195205        -5.3118
  35   0.0000      -0.046537        -1.2663
  36   0.0000       0.024020         0.6536
  37   0.0000       0.050311         1.3690
  38   0.0000       0.056319         1.5325
  39   0.0000       0.075041         2.0420

MULLIKEN ATOMIC CHARGES
-----------------------
   0 C :   -0.247545
   1 C :    0.008565
   2 O :   -0.157559
   3 C :   -0.181602
   4 C :   -0.136376
   5 C :   -0.157600
   6 C :   -0.157825
   7 C :   -0.153271
   8 C :   -0.108909
   9 H :    0.128728
  10 H :    0.119183
  11 H :    0.116519
  12 H :    0.065942
  13 H :    0.090074
  14 H :    0.086590
  15 H :    0.098552
  16 H :    0.086306
  17 H :    0.084762
  18 H :    0.079296
  19 H :    0.085717
  20 H :    0.072491
  21 H :    0.095554
  22 H :    0.082406
Sum of atomic charges:   -0.0000000

LOEWDIN ATOMIC CHARGES
----------------------
   0 C :   -0.361797
   1 C :    0.049292
   2 O :   -0.120234
   3 C :   -0.169459
   4 C :   -0.206770
   5 C :   -0.232413
   6 C :   -0.228319
   7 C :   -0.228812
   8 C :   -0.220074
   9 H :    0.146205
  10 H :    0.134851
  11 H :    0.132744
  12 H :    0.119676
  13 H :    0.117591
  14 H :    0.119053
  15 H :    0.123193
  16 H :    0.118921
  17 H :    0.118523
  18 H :    0.114621
  19 H :    0.119080
  20 H :    0.111881
  21 H :    0.123825
  22 H :    0.118420

  Mayer bond orders larger than 0.100000
B(  0-C ,  1-C ) :   1.0796 B(  0-C ,  9-H ) :   0.9214 B(  0-C , 10-H ) :   0.9269
B(  0-C , 11-H ) :   0.9347 B(  1-C ,  2-O ) :   2.1746 B(  1-C ,  3-C ) :   0.9093
B(  3-C ,  4-C ) :   1.0651 B(  3-C ,  8-C ) :   1.0913 B(  3-C , 12-H ) :   0.8888
B(  4-C ,  5-C ) :   1.1820 B(  4-C , 13-H ) :   0.9144 B(  4-C , 14-H ) :   0.9026
B(  5-C ,  6-C ) :   1.1444 B(  5-C , 15-H ) :   0.8985 B(  5-C , 16-H ) :   0.9204
B(  6-C ,  7-C ) :   1.1425 B(  6-C , 17-H ) :   0.9217 B(  6-C , 18-H ) :   0.9219
B(  7-C ,  8-C ) :   1.1910 B(  7-C , 19-H ) :   0.9206 B(  7-C , 20-H ) :   0.9065
B(  8-C , 21-H ) :   0.8869 B(  8-C , 22-H ) :   0.9182

Dispersion correction           -0.022306474
FINAL SINGLE POINT ENERGY      -387.601395063420

DIPOLE MOMENT
-------------

Method             : SCF
Type of density    : Electron Density
Multiplicity       :   1
Irrep              :   0
Energy             :  -387.6793400234253681 Eh
Relativity type    :
Basis              : AO
                                X                 Y                 Z
Electronic contribution:     -4.127857068      -0.664189687       3.029765167
Nuclear contribution   :      4.221395040       0.947207579      -3.905403588
                        -----------------------------------------
Total Dipole Moment    :      0.093537972       0.283017892      -0.875638422
                        -----------------------------------------
Magnitude (a.u.)       :      0.924981689
Magnitude (Debye)      :      2.351116607

Rotational constants in cm-1:             0.101957             0.037102             0.035016
Rotational constants in MHz :          3056.605211          1112.279493          1049.764032

                             ****ORCA TERMINATED NORMALLY****
TOTAL RUN TIME: 0 days 0 hours 0 minutes 11 seconds 60 msec
