                         Program Version 6.0.1  -  RELEASE   -
|  1> ! pbe def2-sv(p) def2/J RI DEFGRID1 loosescf d4 GCP(DFT/SV(P)) printgap
|  2> %output
|  3>     printlevel normal
|  4> end
|  5> * xyz 0 1
|  6> C 3.7188736516 -0.3075257274 -0.2052213388
|  7> C 2.2933502639 -0.1677437752 0.3202534407
|  8> H 2.33645429 0.0829023323 1.3867323866
|  9> C 1.5156420233 -1.4721637111 0.1597278794
| 10> C 0.0780836648 -1.3272871156 0.6526397666
| 11> C -0.6631137365 -0.2292273361 -0.1161505412
| 12> H -0.6227885876 -0.4772862842 -1.1819594453
| 13> C 0.1155161206 1.0870429891 0.093103204
| 14> H 0.1398528061 1.2993350706 1.1766319922
| 15> C 1.5511462655 0.9468114823 -0.4103347194
| 16> O -0.4455770929 2.1936947827 -0.5839512804
| 17> C -2.1511670681 -0.0618065308 0.2800780798
| 18> C -2.9758733681 0.3675045172 -0.9379614551
| 19> C -2.7931947886 -1.3177988621 0.8706742916
| 20> H 4.2673580073 0.6222802939 -0.0744383801
| 21> H 4.2466059336 -1.0965022194 0.3261976525
| 22> H 3.7100867673 -0.5538024408 -1.2647839958
| 23> H 1.5089499096 -1.757026669 -0.8949962077
| 24> H 2.0120935615 -2.2698537564 0.717062109
| 25> H -0.4307421992 -2.2822569178 0.5241246662
| 26> H 0.0844829958 -1.0853250631 1.7183580426
| 27> H 1.5213312046 0.7403625283 -1.4815286034
| 28> H 2.0590620012 1.9025407881 -0.2718192775
| 29> H -1.3011371649 2.3962594962 -0.192102969
| 30> H -2.2142672623 0.7211127 1.0481489702
| 31> H -3.9754656955 0.673994211 -0.635012192
| 32> H -3.0729242602 -0.4691929659 -1.627351905
| 33> H -2.5084345541 1.1889679884 -1.4738419765
| 34> H -3.8448235301 -1.1216627915 1.0713701608
| 35> H -2.3223605095 -1.6094782073 1.8050699066
| 36> H -2.7340938025 -2.1481177066 0.1708420433
| 37> *
| 38>
| 39>                          ****END OF INPUT****

CARTESIAN COORDINATES (ANGSTROEM)
---------------------------------
  C      3.718874   -0.307526   -0.205221
  C      2.293350   -0.167744    0.320253
  H      2.336454    0.082902    1.386732
  C      1.515642   -1.472164    0.159728
  C      0.078084   -1.327287    0.652640
  C     -0.663114   -0.229227   -0.116151
  H     -0.622789   -0.477286   -1.181959
  C      0.115516    1.087043    0.093103
  H      0.139853    1.299335    1.176632
  C      1.551146    0.946811   -0.410335
  O     -0.445577    2.193695   -0.583951
  C     -2.151167   -0.061807    0.280078
  C     -2.975873    0.367505   -0.937961
  C     -2.793195   -1.317799    0.870674
  H      4.267358    0.622280   -0.074438
  H      4.246606   -1.096502    0.326198
  H      3.710087   -0.553802   -1.264784
  H      1.508950   -1.757027   -0.894996
  H      2.012094   -2.269854    0.717062
  H     -0.430742   -2.282257    0.524125
  H      0.084483   -1.085325    1.718358
  H      1.521331    0.740363   -1.481529
  H      2.059062    1.902541   -0.271819
  H     -1.301137    2.396259   -0.192103
  H     -2.214267    0.721113    1.048149
  H     -3.975466    0.673994   -0.635012
  H     -3.072924   -0.469193   -1.627352
  H     -2.508435    1.188968   -1.473842
  H     -3.844824   -1.121663    1.071370
  H     -2.322361   -1.609478    1.805070
  H     -2.734094   -2.148118    0.170842

 Total Charge           Charge          ....    0
 Multiplicity           Mult            ....    1
 Number of Electrons    NEL             ....   88
 Basis Dimension        Dim             ....  194

ORBITAL ENERGIES
----------------

  NO   OCC          E(Eh)            E(eV)
   0   2.0000     -18.739349      -509.9236
   1   2.0000      -9.931772      -270.2572
   2   2.0000      -9.897399      -269.3219
   3   2.0000      -9.890898      -269.1450
   4   2.0000      -9.887382      -269.0493
   5   2.0000      -9.881460      -268.8882
   6   2.0000      -9.879540      -268.8360
   7   2.0000      -9.873978      -268.6846
   8   2.0000      -9.873653      -268.6758
   9   2.0000      -9.871550      -268.6185
  10   2.0000      -9.869957      -268.5752
  11   2.0000      -0.919205       -25.0128
  12   2.0000      -0.758953       -20.6522
  13   2.0000      -0.723929       -19.6991
  14   2.0000      -0.671187       -18.2639
  15   2.0000      -0.656213       -17.8565
  16   2.0000      -0.610669       -16.6172
  17   2.0000      -0.601058       -16.3556
  18   2.0000      -0.540747       -14.7145
  19   2.0000      -0.533218       -14.5096
  20   2.0000      -0.501570       -13.6484
  21   2.0000      -0.496476       -13.5098
  22   2.0000      -0.458774       -12.4839
  23   2.0000      -0.421052       -11.4574
  24   2.0000      -0.407198       -11.0804
  25   2.0000      -0.402954       -10.9649
  26   2.0000      -0.393082       -10.6963
  27   2.0000      -0.379724       -10.3328
  28   2.0000      -0.365935        -9.9576
  29   2.0000      -0.359406        -9.7799
  30   2.0000      -0.347665        -9.4604
  31   2.0000      -0.339781        -9.2459
  32   2.0000      -0.334888        -9.1128
  33   2.0000      -0.324333        -8.8256
  34   2.0000      -0.313970        -8.5436
  35   2.0000      -0.305382        -8.3099
  36   2.0000      -0.298842        -8.1319
  37   2.0000      -0.295706        -8.0466
  38   2.0000      -0.282798        -7.6953
  39   2.0000      -0.278486        -7.5780
  40   2.0000      -0.273966        -7.4550
  41   2.0000      -0.262695        -7.1483
  42   2.0000      -0.250355        -6.8125
  43   2.0000      -0.208777        -5.6811
  44   0.0000       0.023662         0.6439
  45   0.0000       0.038860         1.0574
  46   0.0000       0.041784         1.1370
  47   0.0000       0.052575         1.4306
  48   0.0000       0.075376         2.0511

MULLIKEN ATOMIC CHARGES
-----------------------
   0 C :   -0.196789
   1 C :   -0.212622
   2 H :    0.060834
   3 C :   -0.092176
   4 C :   -0.110452
   5 C :   -0.128402
   6 H :    0.053380
   7 C :    0.032495
   8 H :    0.043378
   9 C :   -0.068981
  10 O :   -0.403213
  11 C :   -0.162881
  12 C :   -0.260463
  13 C :   -0.230471
  14 H :    0.096265
  15 H :    0.094563
  16 H :    0.090000
  17 H :    0.065279
  18 H :    0.075560
  19 H :    0.084478
  20 H :    0.069121
  21 H :    0.069363
  22 H :    0.081599
  23 H :    0.304839
  24 H :    0.056115
  25 H :    0.096128
  26 H :    0.095979
  27 H :    0.098307
  28 H :    0.096326
  29 H :    0.105106
  30 H :    0.097334
Sum of atomic charges:   -0.0000000

LOEWDIN ATOMIC CHARGES
----------------------
   0 C :   -0.326104
   1 C :   -0.152688
   2 H :    0.113016
   3 C :   -0.214521
   4 C :   -0.217361
   5 C :   -0.147751
   6 H :    0.117762
   7 C :   -0.046008
   8 H :    0.093065
   9 C :   -0.215283
  10 O :   -0.319336
  11 C :   -0.153566
  12 C :   -0.338017
  13 C :   -0.328805
  14 H :    0.117653
  15 H :    0.116427
  16 H :    0.116832
  17 H :    0.114386
  18 H :    0.114982
  19 H :    0.118125
  20 H :    0.113570
  21 H :    0.118751
  22 H :    0.119257
  23 H :    0.280564
  24 H :    0.105670
  25 H :    0.115058
  26 H :    0.118119
  27 H :    0.112965
  28 H :    0.118075
  29 H :    0.117558
  30 H :    0.117605

  Mayer bond orders larger than 0.100000
B(  0-C ,  1-C ) :   1.1150 B(  0-C , 14-H ) :   0.9486 B(  0-C , 15-H ) :   0.9489
B(  0-C , 16-H ) :   0.9462 B(  1-C ,  2-H ) :   0.8899 B(  1-C ,  3-C ) :   1.0974
B(  1-C ,  9-C ) :   1.0854 B(  3-C ,  4-C ) :   1.1411 B(  3-C , 17-H ) :   0.9022
B(  3-C , 18-H ) :   0.9111 B(  4-C ,  5-C ) :   1.1080 B(  4-C , 19-H ) :   0.8926
B(  4-C , 20-H ) :   0.8963 B(  5-C ,  6-H ) :   0.8715 B(  5-C ,  7-C ) :   1.0248
B(  5-C , 11-C ) :   0.9979 B(  7-C ,  8-H ) :   0.8898 B(  7-C ,  9-C ) :   1.1038
B(  7-C , 10-O ) :   1.0938 B(  9-C , 21-H ) :   0.8932 B(  9-C , 22-H ) :   0.9055
B( 10-O , 23-H ) :   0.8346 B( 11-C , 12-C ) :   1.1122 B( 11-C , 13-C ) :   1.1545
B( 11-C , 24-H ) :   0.8876 B( 12-C , 25-H ) :   0.9485 B( 12-C , 26-H ) :   0.9454
B( 12-C , 27-H ) :   0.9294 B( 13-C , 28-H ) :   0.9463 B( 13-C , 29-H ) :   0.9335
B( 13-C , 30-H ) :   0.9411

Dispersion correction           -0.031334932
FINAL SINGLE POINT ENERGY      -467.196161074630

DIPOLE MOMENT
-------------

Method             : SCF
Type of density    : Electron Density
Multiplicity       :   1
Irrep              :   0
Energy             :  -467.3091741458898696 Eh
Relativity type    :
Basis              : AO
                                X                 Y                 Z
Electronic contribution:      0.813945972       4.610816312      -0.354153480
Nuclear contribution   :     -1.076831694      -4.886012394       0.785682293
                        -----------------------------------------
Total Dipole Moment    :     -0.262885722      -0.275196082       0.431528813
                        -----------------------------------------
Magnitude (a.u.)       :      0.575377183
Magnitude (Debye)      :      1.462492573

Rotational constants in cm-1:             0.061728             0.023303             0.018286
Rotational constants in MHz :          1850.556402           698.620805           548.207995

                             ****ORCA TERMINATED NORMALLY****
TOTAL RUN TIME: 0 days 0 hours 0 minutes 11 seconds 908 msec
