                         Program Version 6.0.0  -   RELEASE  -
|  1> ! r2SCAN-3c DEF2-TZVP FREQ
|  2> * xyzfile 0 1 censo.xyz
|  3>
|  4>                          ****END OF INPUT****

CARTESIAN COORDINATES (ANGSTROEM)
---------------------------------
  C      4.384391    1.397332   -0.000552
  C      3.101185    1.937606    0.000402
  C      2.001542    1.098994    0.001319
  C      2.170240   -0.279461    0.001289
  C      3.435026   -0.841139    0.000253
  C      4.529927    0.016612   -0.000641
  Cl     6.142751   -0.677455   -0.001938
  O      1.088121   -1.146812    0.002419
  C     -0.154557   -0.567070    0.001444
  C     -0.324599    0.815848    0.001366
  C     -1.605567    1.359155    0.000377
  C     -2.727213    0.522051   -0.000381
  C     -2.556717   -0.863898   -0.000210
  C     -1.265439   -1.404611    0.000633
  Cl    -1.010786   -3.117430    0.000786
  Cl    -3.930717   -1.915849   -0.001062
  Cl    -4.314995    1.209805   -0.001515
  Cl    -1.771981    3.082853    0.000222
  O      0.739582    1.678427    0.002376
  H      5.249287    2.049304   -0.001242
  H      2.950419    3.011595    0.000471
  H      3.542995   -1.919453    0.000205

 Total Charge           Charge          ....    0
 Multiplicity           Mult            ....    1
 Number of Electrons    NEL             ....  176
 Basis Dimension        Dim             ....  637

ORBITAL ENERGIES
----------------

  NO   OCC          E(Eh)            E(eV)
   0   2.0000    -101.216285     -2754.2351
   1   2.0000    -101.216138     -2754.2311
   2   2.0000    -101.214376     -2754.1832
   3   2.0000    -101.214171     -2754.1776
   4   2.0000    -101.204084     -2753.9031
   5   2.0000     -19.046193      -518.2733
   6   2.0000     -19.045216      -518.2467
   7   2.0000     -10.147697      -276.1329
   8   2.0000     -10.147259      -276.1210
   9   2.0000     -10.137568      -275.8572
  10   2.0000     -10.136221      -275.8206
  11   2.0000     -10.135728      -275.8072
  12   2.0000     -10.134956      -275.7862
  13   2.0000     -10.134917      -275.7851
  14   2.0000     -10.133355      -275.7426
  15   2.0000     -10.121486      -275.4196
  16   2.0000     -10.073454      -274.1126
  17   2.0000     -10.072983      -274.0998
  18   2.0000     -10.069505      -274.0052
  19   2.0000      -9.391881      -255.5661
  20   2.0000      -9.391733      -255.5620
  21   2.0000      -9.390050      -255.5162
  22   2.0000      -9.389845      -255.5107
  23   2.0000      -9.379887      -255.2397
  24   2.0000      -7.137341      -194.2169
  25   2.0000      -7.137198      -194.2130
  26   2.0000      -7.135455      -194.1656
  27   2.0000      -7.135254      -194.1601
  28   2.0000      -7.126817      -193.9305
  29   2.0000      -7.126672      -193.9266
  30   2.0000      -7.125883      -193.9051
  31   2.0000      -7.125728      -193.9009
  32   2.0000      -7.125017      -193.8816
  33   2.0000      -7.124885      -193.8780
  34   2.0000      -7.124805      -193.8758
  35   2.0000      -7.124049      -193.8552
  36   2.0000      -7.123848      -193.8498
  37   2.0000      -7.114797      -193.6035
  38   2.0000      -7.114388      -193.5923
  39   2.0000      -1.110857       -30.2279
  40   2.0000      -1.077161       -29.3110
  41   2.0000      -0.920606       -25.0510
  42   2.0000      -0.880355       -23.9557
  43   2.0000      -0.875211       -23.8157
  44   2.0000      -0.853346       -23.2207
  45   2.0000      -0.825802       -22.4712
  46   2.0000      -0.824159       -22.4265
  47   2.0000      -0.804878       -21.9019
  48   2.0000      -0.764899       -20.8140
  49   2.0000      -0.741780       -20.1849
  50   2.0000      -0.715372       -19.4663
  51   2.0000      -0.705849       -19.2071
  52   2.0000      -0.654701       -17.8153
  53   2.0000      -0.631405       -17.1814
  54   2.0000      -0.601183       -16.3590
  55   2.0000      -0.583689       -15.8830
  56   2.0000      -0.567664       -15.4469
  57   2.0000      -0.532845       -14.4995
  58   2.0000      -0.505460       -13.7543
  59   2.0000      -0.487816       -13.2741
  60   2.0000      -0.482451       -13.1282
  61   2.0000      -0.476768       -12.9735
  62   2.0000      -0.455618       -12.3980
  63   2.0000      -0.449851       -12.2411
  64   2.0000      -0.442520       -12.0416
  65   2.0000      -0.424198       -11.5430
  66   2.0000      -0.423805       -11.5323
  67   2.0000      -0.420916       -11.4537
  68   2.0000      -0.418167       -11.3789
  69   2.0000      -0.412843       -11.2340
  70   2.0000      -0.386430       -10.5153
  71   2.0000      -0.384437       -10.4611
  72   2.0000      -0.382730       -10.4146
  73   2.0000      -0.367154        -9.9908
  74   2.0000      -0.347607        -9.4589
  75   2.0000      -0.340614        -9.2686
  76   2.0000      -0.323967        -8.8156
  77   2.0000      -0.323043        -8.7905
  78   2.0000      -0.321199        -8.7403
  79   2.0000      -0.318185        -8.6583
  80   2.0000      -0.305109        -8.3024
  81   2.0000      -0.299631        -8.1534
  82   2.0000      -0.293257        -7.9799
  83   2.0000      -0.283704        -7.7200
  84   2.0000      -0.267092        -7.2679
  85   2.0000      -0.253508        -6.8983
  86   2.0000      -0.235738        -6.4148
  87   2.0000      -0.209326        -5.6960
  88   0.0000      -0.078549        -2.1374
  89   0.0000      -0.073087        -1.9888
  90   0.0000      -0.071461        -1.9445
  91   0.0000      -0.066688        -1.8147
  92   0.0000      -0.036715        -0.9991

MULLIKEN ATOMIC CHARGES
-----------------------
   0 C :   -0.156326
   1 C :   -0.226083
   2 C :    0.212849
   3 C :    0.278633
   4 C :   -0.357703
   5 C :    0.234461
   6 Cl:   -0.106950
   7 O :   -0.229115
   8 C :    0.217772
   9 C :    0.227316
  10 C :   -0.092599
  11 C :    0.055526
  12 C :    0.053106
  13 C :   -0.090811
  14 Cl:   -0.046631
  15 Cl:   -0.044148
  16 Cl:   -0.044004
  17 Cl:   -0.047652
  18 O :   -0.230976
  19 H :    0.132297
  20 H :    0.127767
  21 H :    0.133274
Sum of atomic charges:    0.0000000

LOEWDIN ATOMIC CHARGES
----------------------
   0 C :   -0.140645
   1 C :   -0.094934
   2 C :   -0.195233
   3 C :   -0.190686
   4 C :   -0.104135
   5 C :   -0.413672
   6 Cl:    0.384076
   7 O :    0.342363
   8 C :   -0.216560
   9 C :   -0.217925
  10 C :   -0.418788
  11 C :   -0.455274
  12 C :   -0.455302
  13 C :   -0.418674
  14 Cl:    0.448653
  15 Cl:    0.442715
  16 Cl:    0.443033
  17 Cl:    0.447891
  18 O :    0.340413
  19 H :    0.152915
  20 H :    0.158833
  21 H :    0.160935

  Mayer bond orders larger than 0.100000
B(  0-C ,  1-C ) :   1.3423 B(  0-C ,  5-C ) :   1.3569 B(  0-C , 19-H ) :   0.9726
B(  1-C ,  2-C ) :   1.3601 B(  1-C , 20-H ) :   0.9807 B(  2-C ,  3-C ) :   1.3778
B(  2-C , 18-O ) :   0.9606 B(  3-C ,  4-C ) :   1.3327 B(  3-C ,  7-O ) :   0.9618
B(  4-C ,  5-C ) :   1.3225 B(  4-C , 21-H ) :   0.9895 B(  5-C ,  6-Cl) :   0.9548
B(  7-O ,  8-C ) :   1.0829 B(  8-C ,  9-C ) :   1.4360 B(  8-C , 13-C ) :   1.2389
B(  9-C , 10-C ) :   1.2357 B(  9-C , 18-O ) :   1.0829 B( 10-C , 11-C ) :   1.2498
B( 10-C , 17-Cl) :   1.2410 B( 11-C , 12-C ) :   1.3034 B( 11-C , 16-Cl) :   1.1791
B( 12-C , 13-C ) :   1.2527 B( 12-C , 15-Cl) :   1.1792 B( 13-C , 14-Cl) :   1.2393

Dispersion correction           -0.013671300
FINAL SINGLE POINT ENERGY     -2910.357849190199

DIPOLE MOMENT
-------------

Method             : SCF
Type of density    : Electron Density
Multiplicity       :   1
Irrep              :   0
Energy             : -2910.3573483298869178 Eh
Relativity type    :
Basis              : AO
                                X                 Y                 Z
Electronic contribution:    -17.082975373      -4.464907531      -0.004360374
Nuclear contribution   :     17.599721946       4.855504166       0.004414981
                        -----------------------------------------
Total Dipole Moment    :      0.516746573       0.390596635       0.000054607
                        -----------------------------------------
Magnitude (a.u.)       :      0.647759798
Magnitude (Debye)      :      1.646474558

VIBRATIONAL FREQUENCIES
-----------------------

Scaling factor for frequencies =  1.000000000  (already applied!)

     0:       0.00 cm**-1
     1:       0.00 cm**-1
     2:       0.00 cm**-1
     3:       0.00 cm**-1
     4:       0.00 cm**-1
     5:       0.00 cm**-1
     6:      29.80 cm**-1
     7:      71.13 cm**-1
     8:      81.02 cm**-1
     9:      95.10 cm**-1
    10:     107.17 cm**-1
    11:     152.26 cm**-1
    12:     189.37 cm**-1
    13:     190.40 cm**-1
    14:     213.36 cm**-1
    15:     225.03 cm**-1
    16:     227.69 cm**-1
    17:     234.77 cm**-1
    18:     279.81 cm**-1
    19:     335.14 cm**-1
    20:     340.18 cm**-1
    21:     344.25 cm**-1
    22:     351.84 cm**-1
    23:     365.71 cm**-1
    24:     380.25 cm**-1
    25:     415.43 cm**-1
    26:     454.23 cm**-1
    27:     547.88 cm**-1
    28:     563.90 cm**-1
    29:     589.12 cm**-1
    30:     598.26 cm**-1
    31:     607.21 cm**-1
    32:     618.94 cm**-1
    33:     633.36 cm**-1
    34:     681.63 cm**-1
    35:     695.88 cm**-1
    36:     708.80 cm**-1
    37:     739.70 cm**-1
    38:     813.48 cm**-1
    39:     813.91 cm**-1
    40:     846.29 cm**-1
    41:     866.03 cm**-1
    42:     914.47 cm**-1
    43:     926.89 cm**-1
    44:     965.43 cm**-1
    45:     990.43 cm**-1
    46:    1079.76 cm**-1
    47:    1134.03 cm**-1
    48:    1186.28 cm**-1
    49:    1201.20 cm**-1
    50:    1235.48 cm**-1
    51:    1271.38 cm**-1
    52:    1295.65 cm**-1
    53:    1318.84 cm**-1
    54:    1357.86 cm**-1
    55:    1388.80 cm**-1
    56:    1435.82 cm**-1
    57:    1442.31 cm**-1
    58:    1508.76 cm**-1
    59:    1579.42 cm**-1
    60:    1580.63 cm**-1
    61:    1643.92 cm**-1
    62:    1647.23 cm**-1
    63:    3188.33 cm**-1
    64:    3202.29 cm**-1
    65:    3205.62 cm**-1

IR SPECTRUM
-----------

 Mode   freq       eps      Int      T**2         TX        TY        TZ
       cm**-1   L/(mol*cm) km/mol    a.u.
----------------------------------------------------------------------------
  6:     29.80   0.000001    0.00  0.000005  ( 0.000090 -0.000026  0.002326)
  7:     71.13   0.000052    0.26  0.000226  (-0.000043  0.000292 -0.015037)
  8:     81.02   0.000001    0.01  0.000005  ( 0.000007 -0.000107  0.002307)
  9:     95.10   0.000020    0.10  0.000065  ( 0.000017 -0.000052  0.008032)
 10:    107.17   0.000007    0.03  0.000019  ( 0.003954 -0.001907  0.000049)
 11:    152.26   0.000018    0.09  0.000036  ( 0.000062  0.000158  0.006008)
 12:    189.37   0.000024    0.12  0.000039  ( 0.000008 -0.000052  0.006277)
 13:    190.40   0.000008    0.04  0.000013  ( 0.001928  0.002985  0.000160)
 14:    213.36   0.000005    0.02  0.000007  ( 0.000638 -0.002542 -0.000004)
 15:    225.03   0.000003    0.01  0.000004  (-0.001813  0.000776  0.000003)
 16:    227.69   0.000104    0.52  0.000142  (-0.001018  0.011889 -0.000002)
 17:    234.77   0.000008    0.04  0.000010  (-0.000099 -0.000030  0.003225)
 18:    279.81   0.000123    0.62  0.000137  ( 0.007213  0.009207 -0.000015)
 19:    335.14   0.000007    0.03  0.000006  ( 0.000430  0.002464 -0.000010)
 20:    340.18   0.000000    0.00  0.000000  (-0.000103  0.000064  0.000526)
 21:    344.25   0.000023    0.12  0.000021  ( 0.001546 -0.004290 -0.000002)
 22:    351.84   0.000000    0.00  0.000000  ( 0.000099  0.000054 -0.000259)
 23:    365.71   0.000147    0.74  0.000126  (-0.000035  0.000001  0.011207)
 24:    380.25   0.000038    0.19  0.000032  ( 0.004909  0.002725  0.000010)
 25:    415.43   0.002910   14.71  0.002186  (-0.046118  0.007696  0.000007)
 26:    454.23   0.000795    4.02  0.000546  ( 0.000016 -0.000004 -0.023370)
 27:    547.88   0.001244    6.29  0.000708  (-0.022067  0.014881 -0.000046)
 28:    563.90   0.000695    3.51  0.000385  (-0.005095  0.018945  0.000058)
 29:    589.12   0.000962    4.86  0.000510  (-0.000010 -0.000011  0.022574)
 30:    598.26   0.000107    0.54  0.000056  ( 0.006282  0.004053  0.000016)
 31:    607.21   0.000142    0.72  0.000073  ( 0.000023  0.000045 -0.008551)
 32:    618.94   0.000002    0.01  0.000001  (-0.000023  0.000070  0.001101)
 33:    633.36   0.002253   11.39  0.001110  (-0.014540  0.029978  0.000051)
 34:    681.63   0.000023    0.11  0.000010  (-0.000025  0.000153 -0.003218)
 35:    695.88   0.004358   22.03  0.001954  (-0.014854 -0.041640  0.000029)
 36:    708.80   0.000008    0.04  0.000004  ( 0.000015 -0.000130  0.001920)
 37:    739.70   0.000758    3.83  0.000320  ( 0.017148 -0.005075  0.000040)
 38:    813.48   0.011163   56.41  0.004282  ( 0.003744 -0.065295  0.002176)
 39:    813.91   0.005392   27.25  0.002067  (-0.000162  0.003134  0.045360)
 40:    846.29   0.019196   97.01  0.007078  ( 0.082048 -0.018613 -0.000020)
 41:    866.03   0.004554   23.01  0.001641  ( 0.000026 -0.000013  0.040507)
 42:    914.47   0.006483   32.76  0.002212  (-0.038689 -0.026748  0.000038)
 43:    926.89   0.000214    1.08  0.000072  (-0.000021 -0.000056 -0.008492)
 44:    965.43   0.038509  194.61  0.012448  ( 0.111153  0.009617  0.000006)
 45:    990.43   0.004306   21.76  0.001357  ( 0.029902 -0.021510 -0.000012)
 46:   1079.76   0.006336   32.02  0.001831  (-0.041812  0.009105  0.000019)
 47:   1134.03   0.006345   32.07  0.001746  (-0.018726  0.037355  0.000007)
 48:   1186.28   0.003239   16.37  0.000852  (-0.021704  0.019519  0.000008)
 49:   1201.20   0.001573    7.95  0.000409  (-0.019731 -0.004394  0.000013)
 50:   1235.48   0.022873  115.59  0.005777  ( 0.074774  0.013643 -0.000023)
 51:   1271.38   0.000137    0.69  0.000034  (-0.003200 -0.004841  0.000006)
 52:   1295.65   0.030811  155.70  0.007421  (-0.084768 -0.015339  0.000026)
 53:   1318.84   0.012666   64.01  0.002997  ( 0.054538  0.004765  0.000004)
 54:   1357.86   0.000904    4.57  0.000208  ( 0.007219  0.012480  0.000015)
 55:   1388.80   0.016481   83.29  0.003703  (-0.018313  0.058034 -0.000006)
 56:   1435.82   0.172068  869.56  0.037397  ( 0.191655  0.025804  0.000050)
 57:   1442.31   0.005380   27.19  0.001164  ( 0.022564 -0.025592  0.000015)
 58:   1508.76   0.074544  376.72  0.015418  ( 0.124151 -0.002217 -0.000063)
 59:   1579.42   0.008978   45.37  0.001774  (-0.040943 -0.009878 -0.000002)
 60:   1580.63   0.000197    1.00  0.000039  (-0.006054  0.001504  0.000014)
 61:   1643.92   0.000890    4.50  0.000169  (-0.005097 -0.011957 -0.000004)
 62:   1647.23   0.004433   22.40  0.000840  (-0.027445 -0.009306  0.000014)
 63:   3188.33   0.000100    0.51  0.000010  ( 0.003124 -0.000173 -0.000003)
 64:   3202.29   0.000391    1.98  0.000038  ( 0.003001 -0.005396 -0.000002)
 65:   3205.62   0.000003    0.01  0.000000  ( 0.000186 -0.000499 -0.000001)

--------------------------
THERMOCHEMISTRY AT 298.15K
--------------------------

Temperature         ...   298.15 K
Pressure            ...     1.00 atm
Total Mass          ...   356.42 AMU
Quasi RRHO          ...     True
Cut-Off Frequency   ...     1.00 cm^-1

Throughout the following assumptions are being made:
  (1) The electronic state is orbitally nondegenerate
  (2) There are no thermally accessible electronically excited states
  (3) Hindered rotations indicated by low frequency modes are not
      treated as such but are treated as vibrations and this may
      cause some error
  (4) All equations used are the standard statistical mechanics
      equations for an ideal gas
  (5) All vibrations are strictly harmonic

freq.      29.80  E(vib)   ...       0.55
freq.      71.13  E(vib)   ...       0.50
freq.      81.02  E(vib)   ...       0.48
freq.      95.10  E(vib)   ...       0.47
freq.     107.17  E(vib)   ...       0.45
freq.     152.26  E(vib)   ...       0.40
freq.     189.37  E(vib)   ...       0.36
freq.     190.40  E(vib)   ...       0.36
freq.     213.36  E(vib)   ...       0.34
freq.     225.03  E(vib)   ...       0.33
freq.     227.69  E(vib)   ...       0.33
freq.     234.77  E(vib)   ...       0.32
freq.     279.81  E(vib)   ...       0.28
freq.     335.14  E(vib)   ...       0.24
freq.     340.18  E(vib)   ...       0.23
freq.     344.25  E(vib)   ...       0.23
freq.     351.84  E(vib)   ...       0.23
freq.     365.71  E(vib)   ...       0.22
freq.     380.25  E(vib)   ...       0.21
freq.     415.43  E(vib)   ...       0.18
freq.     454.23  E(vib)   ...       0.16
freq.     547.88  E(vib)   ...       0.12
freq.     563.90  E(vib)   ...       0.11
freq.     589.12  E(vib)   ...       0.10
freq.     598.26  E(vib)   ...       0.10
freq.     607.21  E(vib)   ...       0.10
freq.     618.94  E(vib)   ...       0.09
freq.     633.36  E(vib)   ...       0.09
freq.     681.63  E(vib)   ...       0.08
freq.     695.88  E(vib)   ...       0.07
freq.     708.80  E(vib)   ...       0.07
freq.     739.70  E(vib)   ...       0.06
freq.     813.48  E(vib)   ...       0.05
freq.     813.91  E(vib)   ...       0.05
freq.     846.29  E(vib)   ...       0.04
freq.     866.03  E(vib)   ...       0.04
freq.     914.47  E(vib)   ...       0.03
freq.     926.89  E(vib)   ...       0.03
freq.     965.43  E(vib)   ...       0.03
freq.     990.43  E(vib)   ...       0.02
freq.    1079.76  E(vib)   ...       0.02
freq.    1134.03  E(vib)   ...       0.01
freq.    1186.28  E(vib)   ...       0.01
freq.    1201.20  E(vib)   ...       0.01
freq.    1235.48  E(vib)   ...       0.01
freq.    1271.38  E(vib)   ...       0.01
freq.    1295.65  E(vib)   ...       0.01
freq.    1318.84  E(vib)   ...       0.01
freq.    1357.86  E(vib)   ...       0.01
freq.    1388.80  E(vib)   ...       0.00
freq.    1435.82  E(vib)   ...       0.00
freq.    1442.31  E(vib)   ...       0.00
freq.    1508.76  E(vib)   ...       0.00
freq.    1579.42  E(vib)   ...       0.00
freq.    1580.63  E(vib)   ...       0.00
freq.    1643.92  E(vib)   ...       0.00
freq.    1647.23  E(vib)   ...       0.00
freq.    3188.33  E(vib)   ...       0.00
freq.    3202.29  E(vib)   ...       0.00
freq.    3205.62  E(vib)   ...       0.00

------------
INNER ENERGY
------------

The inner energy is: U= E(el) + E(ZPE) + E(vib) + E(rot) + E(trans)
    E(el)   - is the total energy from the electronic structure calculation
              = E(kin-el) + E(nuc-el) + E(el-el) + E(nuc-nuc)
    E(ZPE)  - the the zero temperature vibrational energy from the frequency calculation
    E(vib)  - the the finite temperature correction to E(ZPE) due to population
              of excited vibrational states
    E(rot)  - is the rotational thermal energy
    E(trans)- is the translational thermal energy

Summary of contributions to the inner energy U:
Electronic energy                ...  -2910.35784919 Eh
Zero point energy                ...      0.11871338 Eh      74.49 kcal/mol
Thermal vibrational correction   ...      0.01316436 Eh       8.26 kcal/mol
Thermal rotational correction    ...      0.00141627 Eh       0.89 kcal/mol
Thermal translational correction ...      0.00141627 Eh       0.89 kcal/mol
-----------------------------------------------------------------------
Total thermal energy                  -2910.22313891 Eh

Summary of corrections to the electronic energy:
(perhaps to be used in another calculation)
Total thermal correction                  0.01599690 Eh      10.04 kcal/mol
Non-thermal (ZPE) correction              0.11871338 Eh      74.49 kcal/mol
-----------------------------------------------------------------------
Total correction                          0.13471029 Eh      84.53 kcal/mol

--------
ENTHALPY
--------

The enthalpy is H = U + kB*T
                kB is Boltzmann's constant
Total thermal energy              ...  -2910.22313891 Eh
Thermal Enthalpy correction       ...      0.00094421 Eh       0.59 kcal/mol
-----------------------------------------------------------------------
Total Enthalpy                    ...  -2910.22219470 Eh

Note: Only C1 symmetry has been detected, increase convergence thresholds
      if your molecule has a higher symmetry. Symmetry factor of 1.0 is
      used for the rotational entropy correction.

Note: Rotational entropy computed according to Herzberg
Infrared and Raman Spectra, Chapter V,1, Van Nostrand Reinhold, 1945
Point Group:  C1, Symmetry Number:   1
Rotational constants in cm-1:     0.014979     0.004403     0.003403

Vibrational entropy computed according to the QRRHO of S. Grimme
Chem.Eur.J. 2012 18 9955 using a reference frequency of 100.0 cm-1

-------
ENTROPY
-------

The entropy contributions are T*S = T*(S(el)+S(vib)+S(rot)+S(trans))
     S(el)   - electronic entropy
     S(vib)  - vibrational entropy
     S(rot)  - rotational entropy
     S(trans)- translational entropy
The entropies will be listed as multiplied by the temperature to get
units of energy

Electronic entropy                ...      0.00000000 Eh      0.00 kcal/mol
Vibrational entropy               ...      0.02283311 Eh     14.33 kcal/mol
Rotational entropy                ...      0.01673847 Eh     10.50 kcal/mol
Translational entropy             ...      0.02067123 Eh     12.97 kcal/mol
-----------------------------------------------------------------------
Final entropy term                ...      0.06024282 Eh     37.80 kcal/mol

In case the symmetry of your molecule has not been determined correctly
or in case you have a reason to use a different symmetry number we print
out the resulting rotational entropy values for sn=1,12:

 non-linear molecules -----------------------------------

                             ****ORCA TERMINATED NORMALLY****
TOTAL RUN TIME: 0 days 0 hours 43 minutes 49 seconds 372 msec
