                         Program Version 6.0.0  -   RELEASE  -
|  1> ! r2SCAN-3c DEF2-TZVP FREQ
|  2> * xyzfile 0 1 vacuum_censo.xyz
|  3>
|  4>                          ****END OF INPUT****

CARTESIAN COORDINATES (ANGSTROEM)
---------------------------------
  C      4.382100    1.394429   -0.000022
  C      3.099431    1.934788   -0.000077
  C      1.996038    1.099398   -0.000088
  C      2.165336   -0.280716   -0.000054
  C      3.432595   -0.838730    0.000010
  C      4.532450    0.013402    0.000025
  Cl     6.137485   -0.680024    0.000110
  O      1.089010   -1.143787   -0.000086
  C     -0.153438   -0.566304   -0.000059
  C     -0.323313    0.817075   -0.000074
  C     -1.604842    1.362814   -0.000025
  C     -2.726614    0.523248    0.000018
  C     -2.555732   -0.864962    0.000014
  C     -1.263446   -1.407163   -0.000025
  Cl    -1.006235   -3.116341   -0.000032
  Cl    -3.926966   -1.915055    0.000055
  Cl    -4.311657    1.209105    0.000081
  Cl    -1.769935    3.083528   -0.000025
  O      0.741034    1.677117   -0.000138
  H      5.250665    2.040864   -0.000014
  H      2.944091    3.007862   -0.000112
  H      3.543512   -1.916074    0.000044

 Total Charge           Charge          ....    0
 Multiplicity           Mult            ....    1
 Number of Electrons    NEL             ....  176
 Basis Dimension        Dim             ....  637

ORBITAL ENERGIES
----------------

  NO   OCC          E(Eh)            E(eV)
   0   2.0000    -101.216663     -2754.2454
   1   2.0000    -101.216492     -2754.2408
   2   2.0000    -101.214526     -2754.1873
   3   2.0000    -101.214343     -2754.1823
   4   2.0000    -101.204358     -2753.9106
   5   2.0000     -19.046288      -518.2758
   6   2.0000     -19.045569      -518.2563
   7   2.0000     -10.147839      -276.1367
   8   2.0000     -10.147381      -276.1243
   9   2.0000     -10.136711      -275.8339
  10   2.0000     -10.136278      -275.8221
  11   2.0000     -10.135784      -275.8087
  12   2.0000     -10.135073      -275.7893
  13   2.0000     -10.134975      -275.7867
  14   2.0000     -10.132537      -275.7203
  15   2.0000     -10.120164      -275.3837
  16   2.0000     -10.072137      -274.0768
  17   2.0000     -10.071969      -274.0722
  18   2.0000     -10.068383      -273.9746
  19   2.0000      -9.392294      -255.5773
  20   2.0000      -9.392123      -255.5727
  21   2.0000      -9.390251      -255.5217
  22   2.0000      -9.390068      -255.5167
  23   2.0000      -9.380238      -255.2493
  24   2.0000      -7.137741      -194.2278
  25   2.0000      -7.137576      -194.2233
  26   2.0000      -7.135630      -194.1704
  27   2.0000      -7.135451      -194.1655
  28   2.0000      -7.127235      -193.9419
  29   2.0000      -7.127068      -193.9374
  30   2.0000      -7.126295      -193.9163
  31   2.0000      -7.126115      -193.9114
  32   2.0000      -7.125227      -193.8873
  33   2.0000      -7.125222      -193.8872
  34   2.0000      -7.125036      -193.8821
  35   2.0000      -7.124255      -193.8608
  36   2.0000      -7.124075      -193.8559
  37   2.0000      -7.115147      -193.6130
  38   2.0000      -7.114730      -193.6017
  39   2.0000      -1.113307       -30.2946
  40   2.0000      -1.079537       -29.3757
  41   2.0000      -0.920754       -25.0550
  42   2.0000      -0.880050       -23.9474
  43   2.0000      -0.876094       -23.8397
  44   2.0000      -0.854246       -23.2452
  45   2.0000      -0.826449       -22.4888
  46   2.0000      -0.825084       -22.4517
  47   2.0000      -0.804810       -21.9000
  48   2.0000      -0.764232       -20.7958
  49   2.0000      -0.741674       -20.1820
  50   2.0000      -0.714989       -19.4558
  51   2.0000      -0.705254       -19.1909
  52   2.0000      -0.655108       -17.8264
  53   2.0000      -0.631222       -17.1764
  54   2.0000      -0.601352       -16.3636
  55   2.0000      -0.583834       -15.8869
  56   2.0000      -0.567266       -15.4361
  57   2.0000      -0.532875       -14.5003
  58   2.0000      -0.505745       -13.7620
  59   2.0000      -0.487402       -13.2629
  60   2.0000      -0.483411       -13.1543
  61   2.0000      -0.476714       -12.9720
  62   2.0000      -0.456023       -12.4090
  63   2.0000      -0.450404       -12.2561
  64   2.0000      -0.441349       -12.0097
  65   2.0000      -0.424957       -11.5637
  66   2.0000      -0.423859       -11.5338
  67   2.0000      -0.421113       -11.4591
  68   2.0000      -0.419456       -11.4140
  69   2.0000      -0.413248       -11.2451
  70   2.0000      -0.386654       -10.5214
  71   2.0000      -0.384265       -10.4564
  72   2.0000      -0.382231       -10.4010
  73   2.0000      -0.367878       -10.0105
  74   2.0000      -0.348170        -9.4742
  75   2.0000      -0.339700        -9.2437
  76   2.0000      -0.324450        -8.8287
  77   2.0000      -0.323320        -8.7980
  78   2.0000      -0.321144        -8.7388
  79   2.0000      -0.318356        -8.6629
  80   2.0000      -0.305571        -8.3150
  81   2.0000      -0.299720        -8.1558
  82   2.0000      -0.293042        -7.9741
  83   2.0000      -0.284150        -7.7321
  84   2.0000      -0.266110        -7.2412
  85   2.0000      -0.252899        -6.8817
  86   2.0000      -0.235377        -6.4049
  87   2.0000      -0.208436        -5.6718
  88   0.0000      -0.078590        -2.1385
  89   0.0000      -0.073397        -1.9972
  90   0.0000      -0.070082        -1.9070
  91   0.0000      -0.065639        -1.7861
  92   0.0000      -0.036149        -0.9837

MULLIKEN ATOMIC CHARGES
-----------------------
   0 C :   -0.155929
   1 C :   -0.228727
   2 C :    0.216028
   3 C :    0.275530
   4 C :   -0.356236
   5 C :    0.231936
   6 Cl:   -0.103045
   7 O :   -0.229579
   8 C :    0.219269
   9 C :    0.227480
  10 C :   -0.093017
  11 C :    0.054950
  12 C :    0.053062
  13 C :   -0.091952
  14 Cl:   -0.044827
  15 Cl:   -0.043383
  16 Cl:   -0.043331
  17 Cl:   -0.045996
  18 O :   -0.231601
  19 H :    0.130989
  20 H :    0.126669
  21 H :    0.131710
Sum of atomic charges:   -0.0000000

LOEWDIN ATOMIC CHARGES
----------------------
   0 C :   -0.141225
   1 C :   -0.095584
   2 C :   -0.199836
   3 C :   -0.195586
   4 C :   -0.104726
   5 C :   -0.421186
   6 Cl:    0.392064
   7 O :    0.347212
   8 C :   -0.216220
   9 C :   -0.217803
  10 C :   -0.421614
  11 C :   -0.457766
  12 C :   -0.457867
  13 C :   -0.421650
  14 Cl:    0.452115
  15 Cl:    0.445910
  16 Cl:    0.446129
  17 Cl:    0.451119
  18 O :    0.345412
  19 H :    0.152414
  20 H :    0.158501
  21 H :    0.160190

  Mayer bond orders larger than 0.100000
B(  0-C ,  1-C ) :   1.3426 B(  0-C ,  5-C ) :   1.3563 B(  0-C , 19-H ) :   0.9733
B(  1-C ,  2-C ) :   1.3585 B(  1-C , 20-H ) :   0.9813 B(  2-C ,  3-C ) :   1.3742
B(  2-C , 18-O ) :   0.9643 B(  3-C ,  4-C ) :   1.3338 B(  3-C ,  7-O ) :   0.9658
B(  4-C ,  5-C ) :   1.3222 B(  4-C , 21-H ) :   0.9897 B(  5-C ,  6-Cl) :   0.9595
B(  7-O ,  8-C ) :   1.0776 B(  8-C ,  9-C ) :   1.4377 B(  8-C , 13-C ) :   1.2381
B(  9-C , 10-C ) :   1.2353 B(  9-C , 18-O ) :   1.0777 B( 10-C , 11-C ) :   1.2499
B( 10-C , 17-Cl) :   1.2439 B( 11-C , 12-C ) :   1.3027 B( 11-C , 16-Cl) :   1.1801
B( 12-C , 13-C ) :   1.2526 B( 12-C , 15-Cl) :   1.1803 B( 13-C , 14-Cl) :   1.2423

Dispersion correction           -0.013680411
FINAL SINGLE POINT ENERGY     -2910.358299967067

DIPOLE MOMENT
-------------

Method             : SCF
Type of density    : Electron Density
Multiplicity       :   1
Irrep              :   0
Energy             : -2910.3578196620524068 Eh
Relativity type    :
Basis              : AO
                                X                 Y                 Z
Electronic contribution:    -17.096243223      -4.468017876       0.000331038
Nuclear contribution   :     17.586894058       4.847623569      -0.000346939
                        -----------------------------------------
Total Dipole Moment    :      0.490650836       0.379605693      -0.000015902
                        -----------------------------------------
Magnitude (a.u.)       :      0.620353710
Magnitude (Debye)      :      1.576813818

VIBRATIONAL FREQUENCIES
-----------------------

Scaling factor for frequencies =  1.000000000  (already applied!)

     0:       0.00 cm**-1
     1:       0.00 cm**-1
     2:       0.00 cm**-1
     3:       0.00 cm**-1
     4:       0.00 cm**-1
     5:       0.00 cm**-1
     6:      27.21 cm**-1
     7:      68.03 cm**-1
     8:      79.75 cm**-1
     9:      93.57 cm**-1
    10:     106.84 cm**-1
    11:     148.76 cm**-1
    12:     186.37 cm**-1
    13:     190.21 cm**-1
    14:     212.79 cm**-1
    15:     224.55 cm**-1
    16:     227.13 cm**-1
    17:     230.55 cm**-1
    18:     280.50 cm**-1
    19:     336.00 cm**-1
    20:     339.35 cm**-1
    21:     345.13 cm**-1
    22:     350.79 cm**-1
    23:     364.81 cm**-1
    24:     381.24 cm**-1
    25:     418.04 cm**-1
    26:     451.60 cm**-1
    27:     548.79 cm**-1
    28:     564.60 cm**-1
    29:     588.39 cm**-1
    30:     600.02 cm**-1
    31:     608.22 cm**-1
    32:     619.34 cm**-1
    33:     636.48 cm**-1
    34:     681.80 cm**-1
    35:     699.34 cm**-1
    36:     708.63 cm**-1
    37:     743.08 cm**-1
    38:     813.33 cm**-1
    39:     816.73 cm**-1
    40:     850.18 cm**-1
    41:     864.87 cm**-1
    42:     920.52 cm**-1
    43:     925.38 cm**-1
    44:     969.14 cm**-1
    45:     995.16 cm**-1
    46:    1083.63 cm**-1
    47:    1137.99 cm**-1
    48:    1196.41 cm**-1
    49:    1207.18 cm**-1
    50:    1240.82 cm**-1
    51:    1272.38 cm**-1
    52:    1300.63 cm**-1
    53:    1312.74 cm**-1
    54:    1353.73 cm**-1
    55:    1387.93 cm**-1
    56:    1435.52 cm**-1
    57:    1442.82 cm**-1
    58:    1512.98 cm**-1
    59:    1575.37 cm**-1
    60:    1576.79 cm**-1
    61:    1641.25 cm**-1
    62:    1646.55 cm**-1
    63:    3190.47 cm**-1
    64:    3207.40 cm**-1
    65:    3208.58 cm**-1

IR SPECTRUM
-----------

 Mode   freq       eps      Int      T**2         TX        TY        TZ
       cm**-1   L/(mol*cm) km/mol    a.u.
----------------------------------------------------------------------------
  6:     27.21   0.000000    0.00  0.000003  (-0.000005  0.000005  0.001598)
  7:     68.03   0.000054    0.27  0.000246  ( 0.000007 -0.000007 -0.015677)
  8:     79.75   0.000000    0.00  0.000001  (-0.000003  0.000006  0.001193)
  9:     93.57   0.000016    0.08  0.000054  (-0.000003 -0.000001  0.007343)
 10:    106.84   0.000006    0.03  0.000019  (-0.003981  0.001749  0.000002)
 11:    148.76   0.000013    0.07  0.000028  ( 0.000001 -0.000008  0.005304)
 12:    186.37   0.000019    0.10  0.000032  (-0.000002 -0.000005  0.005653)
 13:    190.21   0.000009    0.04  0.000014  (-0.002231 -0.002997  0.000002)
 14:    212.79   0.000005    0.02  0.000007  (-0.000535  0.002600 -0.000000)
 15:    224.55   0.000003    0.01  0.000004  ( 0.001797 -0.000694  0.000000)
 16:    227.13   0.000098    0.49  0.000135  ( 0.001142 -0.011543  0.000000)
 17:    230.55   0.000011    0.06  0.000015  ( 0.000003  0.000003  0.003885)
 18:    280.50   0.000109    0.55  0.000122  (-0.006844 -0.008658 -0.000000)
 19:    336.00   0.000006    0.03  0.000006  (-0.000552 -0.002290 -0.000000)
 20:    339.35   0.000000    0.00  0.000000  ( 0.000007  0.000001  0.000458)
 21:    345.13   0.000022    0.11  0.000020  (-0.001523  0.004210  0.000000)
 22:    350.79   0.000000    0.00  0.000000  (-0.000001 -0.000007  0.000068)
 23:    364.81   0.000141    0.71  0.000120  ( 0.000003  0.000001  0.010972)
 24:    381.24   0.000036    0.18  0.000029  (-0.004686 -0.002699  0.000002)
 25:    418.04   0.002680   13.54  0.002000  ( 0.044144 -0.007188  0.000001)
 26:    451.60   0.000821    4.15  0.000567  (-0.000000  0.000003 -0.023820)
 27:    548.79   0.001226    6.19  0.000697  ( 0.022228 -0.014246 -0.000002)
 28:    564.60   0.000634    3.20  0.000350  ( 0.004957 -0.018045  0.000002)
 29:    588.39   0.000994    5.02  0.000527  ( 0.000000 -0.000001  0.022963)
 30:    600.02   0.000121    0.61  0.000063  (-0.006781 -0.004124  0.000000)
 31:    608.22   0.000143    0.72  0.000074  ( 0.000004 -0.000008  0.008577)
 32:    619.34   0.000002    0.01  0.000001  (-0.000001  0.000004 -0.000879)
 33:    636.48   0.002210   11.17  0.001083  (-0.012967  0.030252 -0.000003)
 34:    681.80   0.000024    0.12  0.000011  (-0.000000 -0.000008 -0.003287)
 35:    699.34   0.004147   20.96  0.001850  ( 0.014280  0.040577  0.000001)
 36:    708.63   0.000009    0.05  0.000004  (-0.000010  0.000005  0.002008)
 37:    743.08   0.000952    4.81  0.000400  (-0.019293  0.005265  0.000002)
 38:    813.33   0.005263   26.60  0.002020  (-0.000001  0.000009  0.044939)
 39:    816.73   0.011317   57.19  0.004324  (-0.002573  0.065706 -0.000010)
 40:    850.18   0.017927   90.60  0.006580  (-0.078768  0.019390 -0.000000)
 41:    864.87   0.004560   23.04  0.001645  (-0.000000 -0.000003  0.040563)
 42:    920.52   0.005761   29.11  0.001953  ( 0.036097  0.025495  0.000002)
 43:    925.38   0.000217    1.10  0.000073  ( 0.000000  0.000005 -0.008562)
 44:    969.14   0.036771  185.82  0.011840  (-0.108370 -0.009799  0.000000)
 45:    995.16   0.004261   21.53  0.001336  (-0.029952  0.020954 -0.000001)
 46:   1083.63   0.007181   36.29  0.002068  ( 0.044298 -0.010278  0.000002)
 47:   1137.99   0.005231   26.44  0.001434  (-0.013551  0.035368 -0.000001)
 48:   1196.41   0.003305   16.70  0.000862  (-0.016258  0.024448  0.000000)
 49:   1207.18   0.002669   13.49  0.000690  (-0.025955  0.004032 -0.000001)
 50:   1240.82   0.016845   85.13  0.004237  ( 0.063956  0.012091  0.000000)
 51:   1272.38   0.000144    0.73  0.000035  ( 0.003993  0.004390  0.000000)
 52:   1300.63   0.017762   89.76  0.004262  (-0.063902 -0.013344 -0.000001)
 53:   1312.74   0.025405  128.38  0.006039  ( 0.077093  0.009792 -0.000000)
 54:   1353.73   0.000644    3.26  0.000149  ( 0.005384  0.010934 -0.000001)
 55:   1387.93   0.016727   84.53  0.003761  (-0.017438  0.058795  0.000000)
 56:   1435.52   0.175127  885.02  0.038071  (-0.193656 -0.023829  0.000003)
 57:   1442.82   0.003648   18.43  0.000789  (-0.007182  0.027155  0.000000)
 58:   1512.98   0.084994  429.52  0.017531  (-0.132398  0.001148 -0.000003)
 59:   1575.37   0.008601   43.47  0.001704  (-0.040495 -0.008001 -0.000001)
 60:   1576.79   0.001630    8.23  0.000322  (-0.016601 -0.006849  0.000001)
 61:   1641.25   0.003325   16.80  0.000632  ( 0.020092  0.015118 -0.000000)
 62:   1646.55   0.002828   14.29  0.000536  ( 0.022922  0.003255  0.000001)
 63:   3190.47   0.000112    0.57  0.000011  (-0.003292  0.000383 -0.000000)
 64:   3207.40   0.000284    1.43  0.000028  (-0.002970  0.004334 -0.000000)
 65:   3208.58   0.000041    0.21  0.000004  (-0.000469  0.001935 -0.000000)

--------------------------
THERMOCHEMISTRY AT 298.15K
--------------------------

Temperature         ...   298.15 K
Pressure            ...     1.00 atm
Total Mass          ...   356.42 AMU
Quasi RRHO          ...     True
Cut-Off Frequency   ...     1.00 cm^-1

Throughout the following assumptions are being made:
  (1) The electronic state is orbitally nondegenerate
  (2) There are no thermally accessible electronically excited states
  (3) Hindered rotations indicated by low frequency modes are not
      treated as such but are treated as vibrations and this may
      cause some error
  (4) All equations used are the standard statistical mechanics
      equations for an ideal gas
  (5) All vibrations are strictly harmonic

freq.      27.21  E(vib)   ...       0.55
freq.      68.03  E(vib)   ...       0.50
freq.      79.75  E(vib)   ...       0.49
freq.      93.57  E(vib)   ...       0.47
freq.     106.84  E(vib)   ...       0.45
freq.     148.76  E(vib)   ...       0.41
freq.     186.37  E(vib)   ...       0.37
freq.     190.21  E(vib)   ...       0.36
freq.     212.79  E(vib)   ...       0.34
freq.     224.55  E(vib)   ...       0.33
freq.     227.13  E(vib)   ...       0.33
freq.     230.55  E(vib)   ...       0.32
freq.     280.50  E(vib)   ...       0.28
freq.     336.00  E(vib)   ...       0.24
freq.     339.35  E(vib)   ...       0.23
freq.     345.13  E(vib)   ...       0.23
freq.     350.79  E(vib)   ...       0.23
freq.     364.81  E(vib)   ...       0.22
freq.     381.24  E(vib)   ...       0.21
freq.     418.04  E(vib)   ...       0.18
freq.     451.60  E(vib)   ...       0.16
freq.     548.79  E(vib)   ...       0.12
freq.     564.60  E(vib)   ...       0.11
freq.     588.39  E(vib)   ...       0.10
freq.     600.02  E(vib)   ...       0.10
freq.     608.22  E(vib)   ...       0.10
freq.     619.34  E(vib)   ...       0.09
freq.     636.48  E(vib)   ...       0.09
freq.     681.80  E(vib)   ...       0.08
freq.     699.34  E(vib)   ...       0.07
freq.     708.63  E(vib)   ...       0.07
freq.     743.08  E(vib)   ...       0.06
freq.     813.33  E(vib)   ...       0.05
freq.     816.73  E(vib)   ...       0.05
freq.     850.18  E(vib)   ...       0.04
freq.     864.87  E(vib)   ...       0.04
freq.     920.52  E(vib)   ...       0.03
freq.     925.38  E(vib)   ...       0.03
freq.     969.14  E(vib)   ...       0.03
freq.     995.16  E(vib)   ...       0.02
freq.    1083.63  E(vib)   ...       0.02
freq.    1137.99  E(vib)   ...       0.01
freq.    1196.41  E(vib)   ...       0.01
freq.    1207.18  E(vib)   ...       0.01
freq.    1240.82  E(vib)   ...       0.01
freq.    1272.38  E(vib)   ...       0.01
freq.    1300.63  E(vib)   ...       0.01
freq.    1312.74  E(vib)   ...       0.01
freq.    1353.73  E(vib)   ...       0.01
freq.    1387.93  E(vib)   ...       0.00
freq.    1435.52  E(vib)   ...       0.00
freq.    1442.82  E(vib)   ...       0.00
freq.    1512.98  E(vib)   ...       0.00
freq.    1575.37  E(vib)   ...       0.00
freq.    1576.79  E(vib)   ...       0.00
freq.    1641.25  E(vib)   ...       0.00
freq.    1646.55  E(vib)   ...       0.00
freq.    3190.47  E(vib)   ...       0.00
freq.    3207.40  E(vib)   ...       0.00
freq.    3208.58  E(vib)   ...       0.00

------------
INNER ENERGY
------------

The inner energy is: U= E(el) + E(ZPE) + E(vib) + E(rot) + E(trans)
    E(el)   - is the total energy from the electronic structure calculation
              = E(kin-el) + E(nuc-el) + E(el-el) + E(nuc-nuc)
    E(ZPE)  - the the zero temperature vibrational energy from the frequency calculation
    E(vib)  - the the finite temperature correction to E(ZPE) due to population
              of excited vibrational states
    E(rot)  - is the rotational thermal energy
    E(trans)- is the translational thermal energy

Summary of contributions to the inner energy U:
Electronic energy                ...  -2910.35829997 Eh
Zero point energy                ...      0.11880280 Eh      74.55 kcal/mol
Thermal vibrational correction   ...      0.01318909 Eh       8.28 kcal/mol
Thermal rotational correction    ...      0.00141627 Eh       0.89 kcal/mol
Thermal translational correction ...      0.00141627 Eh       0.89 kcal/mol
-----------------------------------------------------------------------
Total thermal energy                  -2910.22347554 Eh

Summary of corrections to the electronic energy:
(perhaps to be used in another calculation)
Total thermal correction                  0.01602163 Eh      10.05 kcal/mol
Non-thermal (ZPE) correction              0.11880280 Eh      74.55 kcal/mol
-----------------------------------------------------------------------
Total correction                          0.13482443 Eh      84.60 kcal/mol

--------
ENTHALPY
--------

The enthalpy is H = U + kB*T
                kB is Boltzmann's constant
Total thermal energy              ...  -2910.22347554 Eh
Thermal Enthalpy correction       ...      0.00094421 Eh       0.59 kcal/mol
-----------------------------------------------------------------------
Total Enthalpy                    ...  -2910.22253133 Eh

Note: Only C1 symmetry has been detected, increase convergence thresholds
      if your molecule has a higher symmetry. Symmetry factor of 1.0 is
      used for the rotational entropy correction.

Note: Rotational entropy computed according to Herzberg
Infrared and Raman Spectra, Chapter V,1, Van Nostrand Reinhold, 1945
Point Group:  C1, Symmetry Number:   1
Rotational constants in cm-1:     0.014984     0.004409     0.003407

Vibrational entropy computed according to the QRRHO of S. Grimme
Chem.Eur.J. 2012 18 9955 using a reference frequency of 100.0 cm-1

-------
ENTROPY
-------

The entropy contributions are T*S = T*(S(el)+S(vib)+S(rot)+S(trans))
     S(el)   - electronic entropy
     S(vib)  - vibrational entropy
     S(rot)  - rotational entropy
     S(trans)- translational entropy
The entropies will be listed as multiplied by the temperature to get
units of energy

Electronic entropy                ...      0.00000000 Eh      0.00 kcal/mol
Vibrational entropy               ...      0.02293396 Eh     14.39 kcal/mol
Rotational entropy                ...      0.01673697 Eh     10.50 kcal/mol
Translational entropy             ...      0.02067123 Eh     12.97 kcal/mol
-----------------------------------------------------------------------
Final entropy term                ...      0.06034217 Eh     37.87 kcal/mol

In case the symmetry of your molecule has not been determined correctly
or in case you have a reason to use a different symmetry number we print
out the resulting rotational entropy values for sn=1,12:

 non-linear molecules -----------------------------------

                             ****ORCA TERMINATED NORMALLY****
TOTAL RUN TIME: 0 days 0 hours 44 minutes 14 seconds 5 msec
