                         Program Version 6.0.1  -  RELEASE   -
|  1> ! pbe def2-sv(p) def2/J RI DEFGRID1 loosescf d4 GCP(DFT/SV(P)) printgap
|  2> %output
|  3>     printlevel normal
|  4> end
|  5> * xyz 0 1
|  6> C -2.0113718848 -0.5991810783 -0.712382303
|  7> C -1.2130225603 -0.096910964 0.5175025739
|  8> H -1.8984740067 -0.0722292174 1.3756719178
|  9> C -0.6435058971 1.3140431248 0.2979096191
| 10> H -1.3812549486 1.9032007853 -0.2685312042
| 11> C 0.6711656108 1.3036574108 -0.5035556721
| 12> H 1.1092495786 2.3064347902 -0.4001718789
| 13> C 1.6598632015 0.2794001352 0.0905611385
| 14> H 2.5174214208 0.1622695726 -0.5848641972
| 15> C 0.9649462385 -1.0959519329 0.2007300512
| 16> H 1.5940325637 -1.7771697117 0.7858199579
| 17> O -0.2245126916 -1.0187770511 0.9464196687
| 18> O 0.788537346 -1.6855072992 -1.0485335117
| 19> O 2.1784539499 0.7109174484 1.3121354109
| 20> O 0.3803867091 1.015968716 -1.8580928185
| 21> O -0.3419229196 1.9450263372 1.5252115572
| 22> O -2.224071852 -1.9783537972 -0.664373785
| 23> H -1.5045907849 -0.3061271836 -1.6419915514
| 24> H -2.9986780779 -0.1302381437 -0.7041272508
| 25> H 0.4512051647 -1.017597681 -1.6670904951
| 26> H 1.4399087583 1.0015197824 1.8687844855
| 27> H 1.1367973764 1.2683544371 -2.3994509969
| 28> H -1.1255105029 1.9413293676 2.0866185101
| 29> H -1.3643151632 -2.4042949387 -0.5263890906
| 30> *
| 31>
| 32>                          ****END OF INPUT****

CARTESIAN COORDINATES (ANGSTROEM)
---------------------------------
  C     -2.011372   -0.599181   -0.712382
  C     -1.213023   -0.096911    0.517503
  H     -1.898474   -0.072229    1.375672
  C     -0.643506    1.314043    0.297910
  H     -1.381255    1.903201   -0.268531
  C      0.671166    1.303657   -0.503556
  H      1.109250    2.306435   -0.400172
  C      1.659863    0.279400    0.090561
  H      2.517421    0.162270   -0.584864
  C      0.964946   -1.095952    0.200730
  H      1.594033   -1.777170    0.785820
  O     -0.224513   -1.018777    0.946420
  O      0.788537   -1.685507   -1.048534
  O      2.178454    0.710917    1.312135
  O      0.380387    1.015969   -1.858093
  O     -0.341923    1.945026    1.525212
  O     -2.224072   -1.978354   -0.664374
  H     -1.504591   -0.306127   -1.641992
  H     -2.998678   -0.130238   -0.704127
  H      0.451205   -1.017598   -1.667090
  H      1.439909    1.001520    1.868784
  H      1.136797    1.268354   -2.399451
  H     -1.125511    1.941329    2.086619
  H     -1.364315   -2.404295   -0.526389

 Total Charge           Charge          ....    0
 Multiplicity           Mult            ....    1
 Number of Electrons    NEL             ....   96
 Basis Dimension        Dim             ....  192

ORBITAL ENERGIES
----------------

  NO   OCC          E(Eh)            E(eV)
   0   2.0000     -18.795423      -511.4494
   1   2.0000     -18.783758      -511.1320
   2   2.0000     -18.770158      -510.7620
   3   2.0000     -18.762313      -510.5485
   4   2.0000     -18.746074      -510.1066
   5   2.0000     -18.731689      -509.7152
   6   2.0000      -9.982834      -271.6467
   7   2.0000      -9.965620      -271.1783
   8   2.0000      -9.965344      -271.1708
   9   2.0000      -9.952296      -270.8157
  10   2.0000      -9.947148      -270.6757
  11   2.0000      -9.930103      -270.2118
  12   2.0000      -0.990115       -26.9424
  13   2.0000      -0.965877       -26.2829
  14   2.0000      -0.958537       -26.0831
  15   2.0000      -0.927055       -25.2264
  16   2.0000      -0.919419       -25.0187
  17   2.0000      -0.906852       -24.6767
  18   2.0000      -0.719948       -19.5908
  19   2.0000      -0.691684       -18.8217
  20   2.0000      -0.625292       -17.0151
  21   2.0000      -0.598943       -16.2981
  22   2.0000      -0.574062       -15.6210
  23   2.0000      -0.536868       -14.6089
  24   2.0000      -0.520304       -14.1582
  25   2.0000      -0.501498       -13.6465
  26   2.0000      -0.477954       -13.0058
  27   2.0000      -0.463248       -12.6056
  28   2.0000      -0.443491       -12.0680
  29   2.0000      -0.433115       -11.7856
  30   2.0000      -0.432058       -11.7569
  31   2.0000      -0.410418       -11.1680
  32   2.0000      -0.394200       -10.7267
  33   2.0000      -0.384102       -10.4519
  34   2.0000      -0.374455       -10.1894
  35   2.0000      -0.359118        -9.7721
  36   2.0000      -0.334969        -9.1150
  37   2.0000      -0.327612        -8.9148
  38   2.0000      -0.318940        -8.6788
  39   2.0000      -0.306194        -8.3320
  40   2.0000      -0.287084        -7.8120
  41   2.0000      -0.273229        -7.4349
  42   2.0000      -0.266390        -7.2488
  43   2.0000      -0.253931        -6.9098
  44   2.0000      -0.248865        -6.7720
  45   2.0000      -0.234584        -6.3834
  46   2.0000      -0.206872        -5.6293
  47   2.0000      -0.202440        -5.5087
  48   0.0000      -0.009463        -0.2575
  49   0.0000       0.005703         0.1552
  50   0.0000       0.050095         1.3632
  51   0.0000       0.060488         1.6460
  52   0.0000       0.062743         1.7073

MULLIKEN ATOMIC CHARGES
-----------------------
   0 C :    0.004670
   1 C :    0.020637
   2 H :    0.062829
   3 C :    0.053609
   4 H :    0.082770
   5 C :   -0.004540
   6 H :    0.092745
   7 C :    0.035481
   8 H :    0.070368
   9 C :    0.198303
  10 H :    0.079697
  11 O :   -0.308243
  12 O :   -0.414556
  13 O :   -0.417523
  14 O :   -0.407822
  15 O :   -0.420367
  16 O :   -0.435317
  17 H :    0.086400
  18 H :    0.081255
  19 H :    0.306255
  20 H :    0.302400
  21 H :    0.319022
  22 H :    0.312459
  23 H :    0.299470
Sum of atomic charges:    0.0000000

LOEWDIN ATOMIC CHARGES
----------------------
   0 C :   -0.151263
   1 C :   -0.080389
   2 H :    0.113021
   3 C :   -0.067310
   4 H :    0.112218
   5 C :   -0.072440
   6 H :    0.115286
   7 C :   -0.093500
   8 H :    0.113145
   9 C :   -0.010238
  10 H :    0.114471
  11 O :   -0.139964
  12 O :   -0.308484
  13 O :   -0.312139
  14 O :   -0.304268
  15 O :   -0.306524
  16 O :   -0.333869
  17 H :    0.093166
  18 H :    0.115106
  19 H :    0.269301
  20 H :    0.272925
  21 H :    0.298958
  22 H :    0.292427
  23 H :    0.270366

  Mayer bond orders larger than 0.100000
B(  0-C ,  1-C ) :   1.0225 B(  0-C , 16-O ) :   1.0992 B(  0-C , 17-H ) :   0.8981
B(  0-C , 18-H ) :   0.9108 B(  1-C ,  2-H ) :   0.8927 B(  1-C ,  3-C ) :   0.9814
B(  1-C , 11-O ) :   1.0361 B(  3-C ,  4-H ) :   0.8932 B(  3-C ,  5-C ) :   1.0080
B(  3-C , 15-O ) :   1.0116 B(  5-C ,  6-H ) :   0.9001 B(  5-C ,  7-C ) :   0.9749
B(  5-C , 14-O ) :   1.0301 B(  7-C ,  8-H ) :   0.8963 B(  7-C ,  9-C ) :   0.9732
B(  7-C , 13-O ) :   1.0764 B(  9-C , 10-H ) :   0.9054 B(  9-C , 11-O ) :   1.0317
B(  9-C , 12-O ) :   1.0935 B( 12-O , 19-H ) :   0.7935 B( 13-O , 20-H ) :   0.8117
B( 14-O , 19-H ) :   0.1021 B( 14-O , 21-H ) :   0.8374 B( 15-O , 22-H ) :   0.8407
B( 16-O , 23-H ) :   0.8207

Dispersion correction           -0.026464706
FINAL SINGLE POINT ENERGY      -685.697988462550

DIPOLE MOMENT
-------------

Method             : SCF
Type of density    : Electron Density
Multiplicity       :   1
Irrep              :   0
Energy             :  -685.8331259052248470 Eh
Relativity type    :
Basis              : AO
                                X                 Y                 Z
Electronic contribution:      1.816854109      -1.271064983       1.649957105
Nuclear contribution   :     -1.890802288       2.682689624      -1.944228132
                        -----------------------------------------
Total Dipole Moment    :     -0.073948179       1.411624641      -0.294271027
                        -----------------------------------------
Magnitude (a.u.)       :      1.443865609
Magnitude (Debye)      :      3.670014717

Rotational constants in cm-1:             0.042558             0.028943             0.025699
Rotational constants in MHz :          1275.857093           867.677621           770.427216

                             ****ORCA TERMINATED NORMALLY****
TOTAL RUN TIME: 0 days 0 hours 1 minutes 51 seconds 348 msec
