                         Program Version 6.0.0  -   RELEASE  -
|  1> ! r2SCAN-3c DEF2-TZVP FREQ
|  2> * xyzfile 0 1 censo.xyz
|  3>
|  4>                          ****END OF INPUT****

CARTESIAN COORDINATES (ANGSTROEM)
---------------------------------
  C      1.338021    1.329286    0.000013
  C     -0.028954    1.119099    0.000004
  C     -0.494198   -0.199863    0.000150
  C      0.437363   -1.240227    0.000067
  N      1.760972   -1.050352   -0.000036
  C      2.185814    0.222634   -0.000027
  C     -1.923229   -0.525820    0.000665
  O     -2.818493    0.309391   -0.000089
  H      1.754952    2.330015    0.000058
  H     -0.731216    1.946407    0.000125
  H      0.090020   -2.272062    0.000033
  H      3.263325    0.368298   -0.000069
  H     -2.161577   -1.606705   -0.000586

 Total Charge           Charge          ....    0
 Multiplicity           Mult            ....    1
 Number of Electrons    NEL             ....   56
 Basis Dimension        Dim             ....  278

ORBITAL ENERGIES
----------------

  NO   OCC          E(Eh)            E(eV)
   0   2.0000     -18.957610      -515.8628
   1   2.0000     -14.180735      -385.8774
   2   2.0000     -10.130849      -275.6744
   3   2.0000     -10.095476      -274.7119
   4   2.0000     -10.094709      -274.6910
   5   2.0000     -10.077639      -274.2265
   6   2.0000     -10.069720      -274.0110
   7   2.0000     -10.067402      -273.9479
   8   2.0000      -1.012143       -27.5418
   9   2.0000      -0.930142       -25.3105
  10   2.0000      -0.799908       -21.7666
  11   2.0000      -0.762640       -20.7525
  12   2.0000      -0.651774       -17.7357
  13   2.0000      -0.622279       -16.9331
  14   2.0000      -0.563669       -15.3382
  15   2.0000      -0.509894       -13.8749
  16   2.0000      -0.485578       -13.2133
  17   2.0000      -0.457733       -12.4556
  18   2.0000      -0.422915       -11.5081
  19   2.0000      -0.408165       -11.1067
  20   2.0000      -0.407840       -11.0979
  21   2.0000      -0.388890       -10.5822
  22   2.0000      -0.368905       -10.0384
  23   2.0000      -0.361946        -9.8491
  24   2.0000      -0.291474        -7.9314
  25   2.0000      -0.271361        -7.3841
  26   2.0000      -0.254073        -6.9137
  27   2.0000      -0.232148        -6.3171
  28   0.0000      -0.113931        -3.1002
  29   0.0000      -0.073793        -2.0080
  30   0.0000      -0.016763        -0.4561
  31   0.0000       0.056534         1.5384
  32   0.0000       0.068263         1.8575

MULLIKEN ATOMIC CHARGES
-----------------------
   0 C :   -0.052763
   1 C :   -0.187714
   2 C :    0.130315
   3 C :   -0.040829
   4 N :   -0.250678
   5 C :    0.000443
   6 C :    0.132671
   7 O :   -0.317105
   8 H :    0.126071
   9 H :    0.146470
  10 H :    0.121731
  11 H :    0.125286
  12 H :    0.066102
Sum of atomic charges:   -0.0000000

LOEWDIN ATOMIC CHARGES
----------------------
   0 C :   -0.136570
   1 C :   -0.052991
   2 C :   -0.171629
   3 C :   -0.151590
   4 N :    0.128169
   5 C :   -0.176058
   6 C :   -0.248267
   7 O :    0.100616
   8 H :    0.149182
   9 H :    0.158877
  10 H :    0.143287
  11 H :    0.139969
  12 H :    0.117003

  Mayer bond orders larger than 0.100000
B(  0-C ,  1-C ) :   1.4378 B(  0-C ,  5-C ) :   1.3505 B(  0-C ,  8-H ) :   0.9631
B(  1-C ,  2-C ) :   1.3163 B(  1-C ,  9-H ) :   0.9567 B(  2-C ,  3-C ) :   1.3019
B(  2-C ,  6-C ) :   0.9233 B(  3-C ,  4-N ) :   1.4687 B(  3-C , 10-H ) :   0.9818
B(  4-N ,  5-C ) :   1.4366 B(  5-C , 11-H ) :   0.9759 B(  6-C ,  7-O ) :   2.0288
B(  6-C , 12-H ) :   0.9955

Dispersion correction           -0.004102545
FINAL SINGLE POINT ENERGY      -361.549515906189

DIPOLE MOMENT
-------------

Method             : SCF
Type of density    : Electron Density
Multiplicity       :   1
Irrep              :   0
Energy             :  -361.5512016484717606 Eh
Relativity type    :
Basis              : AO
                                X                 Y                 Z
Electronic contribution:     -1.324777049      -0.503181991       0.000999616
Nuclear contribution   :      2.046523586       0.740314652      -0.000769128
                        -----------------------------------------
Total Dipole Moment    :      0.721746537       0.237132661       0.000230488
                        -----------------------------------------
Magnitude (a.u.)       :      0.759703900
Magnitude (Debye)      :      1.931013854

VIBRATIONAL FREQUENCIES
-----------------------

Scaling factor for frequencies =  1.000000000  (already applied!)

     0:       0.00 cm**-1
     1:       0.00 cm**-1
     2:       0.00 cm**-1
     3:       0.00 cm**-1
     4:       0.00 cm**-1
     5:       0.00 cm**-1
     6:     142.28 cm**-1
     7:     231.02 cm**-1
     8:     235.35 cm**-1
     9:     383.35 cm**-1
    10:     448.00 cm**-1
    11:     449.21 cm**-1
    12:     633.17 cm**-1
    13:     689.77 cm**-1
    14:     719.07 cm**-1
    15:     812.21 cm**-1
    16:     854.99 cm**-1
    17:     937.02 cm**-1
    18:     975.22 cm**-1
    19:    1005.20 cm**-1
    20:    1018.59 cm**-1
    21:    1042.88 cm**-1
    22:    1057.89 cm**-1
    23:    1123.96 cm**-1
    24:    1213.60 cm**-1
    25:    1240.45 cm**-1
    26:    1296.65 cm**-1
    27:    1346.65 cm**-1
    28:    1401.22 cm**-1
    29:    1447.71 cm**-1
    30:    1503.77 cm**-1
    31:    1596.13 cm**-1
    32:    1617.40 cm**-1
    33:    1690.26 cm**-1
    34:    2930.68 cm**-1
    35:    3138.01 cm**-1
    36:    3151.13 cm**-1
    37:    3179.74 cm**-1
    38:    3192.33 cm**-1

IR SPECTRUM
-----------

 Mode   freq       eps      Int      T**2         TX        TY        TZ
       cm**-1   L/(mol*cm) km/mol    a.u.
----------------------------------------------------------------------------
  6:    142.28   0.001416    7.15  0.003105  ( 0.000003 -0.000066  0.055721)
  7:    231.02   0.002458   12.42  0.003320  ( 0.044726  0.036327  0.000251)
  8:    235.35   0.002013   10.17  0.002669  ( 0.000018  0.000202 -0.051661)
  9:    383.35   0.000298    1.51  0.000243  (-0.000116 -0.000044 -0.015576)
 10:    448.00   0.000154    0.78  0.000107  (-0.003737 -0.009651  0.000018)
 11:    449.21   0.000006    0.03  0.000004  ( 0.000080 -0.000004  0.002072)
 12:    633.17   0.000571    2.89  0.000282  (-0.004102  0.016272  0.000005)
 13:    689.77   0.003428   17.33  0.001551  (-0.036325 -0.015219 -0.000004)
 14:    719.07   0.006329   31.98  0.002746  (-0.000001  0.000011 -0.052407)
 15:    812.21   0.003089   15.61  0.001187  ( 0.000063 -0.000027 -0.034449)
 16:    854.99   0.006427   32.48  0.002346  ( 0.046971  0.011809  0.000003)
 17:    937.02   0.000038    0.19  0.000013  ( 0.000042 -0.000007 -0.003554)
 18:    975.22   0.000018    0.09  0.000006  (-0.000044  0.000008  0.002406)
 19:   1005.20   0.000084    0.42  0.000026  ( 0.000024 -0.000019 -0.005109)
 20:   1018.59   0.000288    1.45  0.000088  (-0.000028 -0.000016 -0.009387)
 21:   1042.88   0.002191   11.07  0.000656  (-0.016327  0.019728 -0.000003)
 22:   1057.89   0.000896    4.53  0.000264  (-0.016249  0.000551  0.000002)
 23:   1123.96   0.002077   10.49  0.000577  ( 0.010933  0.021379 -0.000001)
 24:   1213.60   0.000740    3.74  0.000190  ( 0.003805 -0.013260 -0.000003)
 25:   1240.45   0.011449   57.86  0.002880  (-0.053489 -0.004364 -0.000000)
 26:   1296.65   0.001108    5.60  0.000267  (-0.013879  0.008606 -0.000000)
 27:   1346.65   0.004027   20.35  0.000933  ( 0.021947  0.021251  0.000000)
 28:   1401.22   0.002073   10.48  0.000462  (-0.013605 -0.016634  0.000006)
 29:   1447.71   0.007047   35.61  0.001519  (-0.034968 -0.017213 -0.000001)
 30:   1503.77   0.000460    2.33  0.000096  (-0.006573 -0.007232 -0.000001)
 31:   1596.13   0.007574   38.28  0.001481  ( 0.034956  0.016089 -0.000003)
 32:   1617.40   0.016571   83.74  0.003197  ( 0.055702 -0.009727 -0.000005)
 33:   1690.26   0.041792  211.20  0.007716  (-0.079181  0.038029  0.000023)
 34:   2930.68   0.020055  101.35  0.002135  (-0.019271 -0.042001 -0.000001)
 35:   3138.01   0.002950   14.91  0.000293  (-0.009519 -0.014241  0.000001)
 36:   3151.13   0.001959    9.90  0.000194  (-0.013755 -0.002201 -0.000001)
 37:   3179.74   0.000539    2.73  0.000053  (-0.005575 -0.004675 -0.000000)
 38:   3192.33   0.001836    9.28  0.000179  (-0.008699 -0.010188  0.000001)

--------------------------
THERMOCHEMISTRY AT 298.15K
--------------------------

Temperature         ...   298.15 K
Pressure            ...     1.00 atm
Total Mass          ...   107.11 AMU
Quasi RRHO          ...     True
Cut-Off Frequency   ...     1.00 cm^-1

Throughout the following assumptions are being made:
  (1) The electronic state is orbitally nondegenerate
  (2) There are no thermally accessible electronically excited states
  (3) Hindered rotations indicated by low frequency modes are not
      treated as such but are treated as vibrations and this may
      cause some error
  (4) All equations used are the standard statistical mechanics
      equations for an ideal gas
  (5) All vibrations are strictly harmonic

freq.     142.28  E(vib)   ...       0.41
freq.     231.02  E(vib)   ...       0.32
freq.     235.35  E(vib)   ...       0.32
freq.     383.35  E(vib)   ...       0.20
freq.     448.00  E(vib)   ...       0.17
freq.     449.21  E(vib)   ...       0.17
freq.     633.17  E(vib)   ...       0.09
freq.     689.77  E(vib)   ...       0.07
freq.     719.07  E(vib)   ...       0.07
freq.     812.21  E(vib)   ...       0.05
freq.     854.99  E(vib)   ...       0.04
freq.     937.02  E(vib)   ...       0.03
freq.     975.22  E(vib)   ...       0.03
freq.    1005.20  E(vib)   ...       0.02
freq.    1018.59  E(vib)   ...       0.02
freq.    1042.88  E(vib)   ...       0.02
freq.    1057.89  E(vib)   ...       0.02
freq.    1123.96  E(vib)   ...       0.01
freq.    1213.60  E(vib)   ...       0.01
freq.    1240.45  E(vib)   ...       0.01
freq.    1296.65  E(vib)   ...       0.01
freq.    1346.65  E(vib)   ...       0.01
freq.    1401.22  E(vib)   ...       0.00
freq.    1447.71  E(vib)   ...       0.00
freq.    1503.77  E(vib)   ...       0.00
freq.    1596.13  E(vib)   ...       0.00
freq.    1617.40  E(vib)   ...       0.00
freq.    1690.26  E(vib)   ...       0.00
freq.    2930.68  E(vib)   ...       0.00
freq.    3138.01  E(vib)   ...       0.00
freq.    3151.13  E(vib)   ...       0.00
freq.    3179.74  E(vib)   ...       0.00
freq.    3192.33  E(vib)   ...       0.00

------------
INNER ENERGY
------------

The inner energy is: U= E(el) + E(ZPE) + E(vib) + E(rot) + E(trans)
    E(el)   - is the total energy from the electronic structure calculation
              = E(kin-el) + E(nuc-el) + E(el-el) + E(nuc-nuc)
    E(ZPE)  - the the zero temperature vibrational energy from the frequency calculation
    E(vib)  - the the finite temperature correction to E(ZPE) due to population
              of excited vibrational states
    E(rot)  - is the rotational thermal energy
    E(trans)- is the translational thermal energy

Summary of contributions to the inner energy U:
Electronic energy                ...   -361.54951591 Eh
Zero point energy                ...      0.09728892 Eh      61.05 kcal/mol
Thermal vibrational correction   ...      0.00335635 Eh       2.11 kcal/mol
Thermal rotational correction    ...      0.00141627 Eh       0.89 kcal/mol
Thermal translational correction ...      0.00141627 Eh       0.89 kcal/mol
-----------------------------------------------------------------------
Total thermal energy                   -361.44603809 Eh

Summary of corrections to the electronic energy:
(perhaps to be used in another calculation)
Total thermal correction                  0.00618890 Eh       3.88 kcal/mol
Non-thermal (ZPE) correction              0.09728892 Eh      61.05 kcal/mol
-----------------------------------------------------------------------
Total correction                          0.10347782 Eh      64.93 kcal/mol

--------
ENTHALPY
--------

The enthalpy is H = U + kB*T
                kB is Boltzmann's constant
Total thermal energy              ...   -361.44603809 Eh
Thermal Enthalpy correction       ...      0.00094421 Eh       0.59 kcal/mol
-----------------------------------------------------------------------
Total Enthalpy                    ...   -361.44509388 Eh

Note: Only C1 symmetry has been detected, increase convergence thresholds
      if your molecule has a higher symmetry. Symmetry factor of 1.0 is
      used for the rotational entropy correction.

Note: Rotational entropy computed according to Herzberg
Infrared and Raman Spectra, Chapter V,1, Van Nostrand Reinhold, 1945
Point Group:  C1, Symmetry Number:   1
Rotational constants in cm-1:     0.180589     0.052980     0.040963

Vibrational entropy computed according to the QRRHO of S. Grimme
Chem.Eur.J. 2012 18 9955 using a reference frequency of 100.0 cm-1

-------
ENTROPY
-------

The entropy contributions are T*S = T*(S(el)+S(vib)+S(rot)+S(trans))
     S(el)   - electronic entropy
     S(vib)  - vibrational entropy
     S(rot)  - rotational entropy
     S(trans)- translational entropy
The entropies will be listed as multiplied by the temperature to get
units of energy

Electronic entropy                ...      0.00000000 Eh      0.00 kcal/mol
Vibrational entropy               ...      0.00533842 Eh      3.35 kcal/mol
Rotational entropy                ...      0.01321410 Eh      8.29 kcal/mol
Translational entropy             ...      0.01896855 Eh     11.90 kcal/mol
-----------------------------------------------------------------------
Final entropy term                ...      0.03752107 Eh     23.54 kcal/mol

In case the symmetry of your molecule has not been determined correctly
or in case you have a reason to use a different symmetry number we print
out the resulting rotational entropy values for sn=1,12:

 non-linear molecules -----------------------------------
|  sn= 1 | S(rot)=       0.01321410 Eh      8.29 kcal/mol|
|  sn= 2 | S(rot)=       0.01255965 Eh      7.88 kcal/mol|
|  sn= 3 | S(rot)=       0.01217682 Eh      7.64 kcal/mol|
|  sn= 4 | S(rot)=       0.01190519 Eh      7.47 kcal/mol|
|  sn= 5 | S(rot)=       0.01169450 Eh      7.34 kcal/mol|
|  sn= 6 | S(rot)=       0.01152236 Eh      7.23 kcal/mol|
|  sn= 7 | S(rot)=       0.01137681 Eh      7.14 kcal/mol|
|  sn= 8 | S(rot)=       0.01125074 Eh      7.06 kcal/mol|
|  sn= 9 | S(rot)=       0.01113953 Eh      6.99 kcal/mol|
|  sn=10 | S(rot)=       0.01104005 Eh      6.93 kcal/mol|
|  sn=11 | S(rot)=       0.01095006 Eh      6.87 kcal/mol|
|  sn=12 | S(rot)=       0.01086790 Eh      6.82 kcal/mol|
 linear molecules ---------------------------------------
|  Dinfh | S(rot)=       0.00834255 Eh      5.24 kcal/mol|
|  Cinfv | S(rot)=       0.00899701 Eh      5.65 kcal/mol|
 --------------------------------------------------------

-------------------
GIBBS FREE ENERGY
-------------------

The Gibbs free energy is G = H - T*S

Total enthalpy                    ...   -361.44509388 Eh
Total entropy correction          ...     -0.03752107 Eh    -23.54 kcal/mol
-----------------------------------------------------------------------

                             ****ORCA TERMINATED NORMALLY****
TOTAL RUN TIME: 0 days 0 hours 8 minutes 7 seconds 731 msec
