                         Program Version 6.0.0  -   RELEASE  -
|  1> ! r2SCAN-3c DEF2-TZVP FREQ
|  2> * xyzfile 0 1 vacuum_censo.xyz
|  3>
|  4>                          ****END OF INPUT****

CARTESIAN COORDINATES (ANGSTROEM)
---------------------------------
  C      1.336516    1.329293    0.000163
  C     -0.029768    1.112182    0.000473
  C     -0.491553   -0.206730    0.000544
  C      0.447340   -1.240850    0.000134
  N      1.767180   -1.045235   -0.000233
  C      2.189426    0.223213   -0.000137
  C     -1.933888   -0.515195   -0.000018
  O     -2.810005    0.323234   -0.001986
  H      1.747718    2.333061    0.000054
  H     -0.748467    1.925643    0.000591
  H      0.110610   -2.278420    0.000116
  H      3.268763    0.366645   -0.000497
  H     -2.178737   -1.601655    0.000559

 Total Charge           Charge          ....    0
 Multiplicity           Mult            ....    1
 Number of Electrons    NEL             ....   56
 Basis Dimension        Dim             ....  278

ORBITAL ENERGIES
----------------

  NO   OCC          E(Eh)            E(eV)
   0   2.0000     -18.959046      -515.9019
   1   2.0000     -14.179403      -385.8412
   2   2.0000     -10.131716      -275.6980
   3   2.0000     -10.094785      -274.6931
   4   2.0000     -10.093941      -274.6701
   5   2.0000     -10.076346      -274.1913
   6   2.0000     -10.069019      -273.9919
   7   2.0000     -10.067062      -273.9387
   8   2.0000      -1.019615       -27.7451
   9   2.0000      -0.931040       -25.3349
  10   2.0000      -0.799218       -21.7478
  11   2.0000      -0.760740       -20.7008
  12   2.0000      -0.649956       -17.6862
  13   2.0000      -0.621768       -16.9192
  14   2.0000      -0.562817       -15.3150
  15   2.0000      -0.509734       -13.8706
  16   2.0000      -0.484976       -13.1969
  17   2.0000      -0.456744       -12.4286
  18   2.0000      -0.422204       -11.4888
  19   2.0000      -0.410616       -11.1734
  20   2.0000      -0.408636       -11.1195
  21   2.0000      -0.388606       -10.5745
  22   2.0000      -0.372092       -10.1252
  23   2.0000      -0.360981        -9.8228
  24   2.0000      -0.291307        -7.9269
  25   2.0000      -0.270838        -7.3699
  26   2.0000      -0.253696        -6.9034
  27   2.0000      -0.232763        -6.3338
  28   0.0000      -0.112087        -3.0500
  29   0.0000      -0.072901        -1.9837
  30   0.0000      -0.015906        -0.4328
  31   0.0000       0.057248         1.5578
  32   0.0000       0.068331         1.8594

MULLIKEN ATOMIC CHARGES
-----------------------
   0 C :   -0.057391
   1 C :   -0.179337
   2 C :    0.117892
   3 C :   -0.040841
   4 N :   -0.250210
   5 C :    0.001470
   6 C :    0.131003
   7 O :   -0.304859
   8 H :    0.125547
   9 H :    0.146664
  10 H :    0.121301
  11 H :    0.124973
  12 H :    0.063789
Sum of atomic charges:   -0.0000000

LOEWDIN ATOMIC CHARGES
----------------------
   0 C :   -0.135870
   1 C :   -0.055788
   2 C :   -0.170807
   3 C :   -0.154298
   4 N :    0.129679
   5 C :   -0.178592
   6 C :   -0.256450
   7 O :    0.114725
   8 H :    0.148898
   9 H :    0.158786
  10 H :    0.143333
  11 H :    0.140107
  12 H :    0.116277

  Mayer bond orders larger than 0.100000
B(  0-C ,  1-C ) :   1.4392 B(  0-C ,  5-C ) :   1.3491 B(  0-C ,  8-H ) :   0.9636
B(  1-C ,  2-C ) :   1.3215 B(  1-C ,  9-H ) :   0.9554 B(  2-C ,  3-C ) :   1.3028
B(  2-C ,  6-C ) :   0.9165 B(  3-C ,  4-N ) :   1.4687 B(  3-C , 10-H ) :   0.9820
B(  4-N ,  5-C ) :   1.4401 B(  5-C , 11-H ) :   0.9755 B(  6-C ,  7-O ) :   2.0392
B(  6-C , 12-H ) :   0.9924

Dispersion correction           -0.004100889
FINAL SINGLE POINT ENERGY      -361.549957161914

DIPOLE MOMENT
-------------

Method             : SCF
Type of density    : Electron Density
Multiplicity       :   1
Irrep              :   0
Energy             :  -361.5516540340955203 Eh
Relativity type    :
Basis              : AO
                                X                 Y                 Z
Electronic contribution:     -1.345150081      -0.480832236      -0.000235500
Nuclear contribution   :      2.021205005       0.710857894       0.001633722
                        -----------------------------------------
Total Dipole Moment    :      0.676054924       0.230025658       0.001398222
                        -----------------------------------------
Magnitude (a.u.)       :      0.714117650
Magnitude (Debye)      :      1.815142815

VIBRATIONAL FREQUENCIES
-----------------------

Scaling factor for frequencies =  1.000000000  (already applied!)

     0:       0.00 cm**-1
     1:       0.00 cm**-1
     2:       0.00 cm**-1
     3:       0.00 cm**-1
     4:       0.00 cm**-1
     5:       0.00 cm**-1
     6:     120.03 cm**-1
     7:     222.50 cm**-1
     8:     233.48 cm**-1
     9:     385.49 cm**-1
    10:     444.01 cm**-1
    11:     448.71 cm**-1
    12:     632.03 cm**-1
    13:     686.46 cm**-1
    14:     720.94 cm**-1
    15:     815.45 cm**-1
    16:     849.49 cm**-1
    17:     944.19 cm**-1
    18:     980.09 cm**-1
    19:    1008.48 cm**-1
    20:    1026.37 cm**-1
    21:    1044.70 cm**-1
    22:    1056.91 cm**-1
    23:    1125.47 cm**-1
    24:    1213.71 cm**-1
    25:    1235.94 cm**-1
    26:    1306.03 cm**-1
    27:    1349.61 cm**-1
    28:    1408.69 cm**-1
    29:    1453.37 cm**-1
    30:    1504.55 cm**-1
    31:    1600.56 cm**-1
    32:    1617.99 cm**-1
    33:    1749.05 cm**-1
    34:    2867.90 cm**-1
    35:    3117.71 cm**-1
    36:    3137.29 cm**-1
    37:    3175.04 cm**-1
    38:    3187.61 cm**-1

IR SPECTRUM
-----------

 Mode   freq       eps      Int      T**2         TX        TY        TZ
       cm**-1   L/(mol*cm) km/mol    a.u.
----------------------------------------------------------------------------
  6:    120.03   0.001763    8.91  0.004583  (-0.000080  0.000012  0.067698)
  7:    222.50   0.002604   13.16  0.003653  (-0.047490 -0.037384 -0.000234)
  8:    233.48   0.001519    7.68  0.002030  ( 0.000027  0.000519 -0.045055)
  9:    385.49   0.000357    1.80  0.000289  (-0.000007  0.000028 -0.017003)
 10:    444.01   0.000177    0.90  0.000125  ( 0.005695  0.009608 -0.000078)
 11:    448.71   0.000014    0.07  0.000010  ( 0.000286  0.000191  0.003109)
 12:    632.03   0.000598    3.02  0.000295  (-0.004162  0.016678  0.000010)
 13:    686.46   0.003586   18.12  0.001630  (-0.037569 -0.014786 -0.000001)
 14:    720.94   0.006050   30.58  0.002619  (-0.000112  0.000043  0.051176)
 15:    815.45   0.003333   16.85  0.001276  (-0.000025  0.000033  0.035717)
 16:    849.49   0.007090   35.83  0.002605  (-0.049536 -0.012282 -0.000035)
 17:    944.19   0.000055    0.28  0.000018  ( 0.000008 -0.000011 -0.004254)
 18:    980.09   0.000031    0.16  0.000010  ( 0.000042 -0.000080 -0.003132)
 19:   1008.48   0.000023    0.12  0.000007  ( 0.000049 -0.000071  0.002675)
 20:   1026.37   0.000300    1.52  0.000091  (-0.000153  0.000091 -0.009550)
 21:   1044.70   0.002174   10.98  0.000649  ( 0.016474 -0.019440 -0.000008)
 22:   1056.91   0.000849    4.29  0.000251  (-0.015796  0.001076 -0.000003)
 23:   1125.47   0.002380   12.03  0.000660  (-0.014185 -0.021416 -0.000003)
 24:   1213.71   0.001278    6.46  0.000328  ( 0.011106  0.014323  0.000007)
 25:   1235.94   0.012003   60.66  0.003031  ( 0.055039  0.001160  0.000003)
 26:   1306.03   0.001115    5.64  0.000267  ( 0.014726 -0.007046  0.000002)
 27:   1349.61   0.003756   18.98  0.000869  (-0.019991 -0.021655  0.000003)
 28:   1408.69   0.002688   13.58  0.000595  (-0.017134 -0.017373  0.000013)
 29:   1453.37   0.005350   27.04  0.001149  ( 0.029113  0.017352  0.000009)
 30:   1504.55   0.000431    2.18  0.000089  ( 0.006225  0.007110  0.000011)
 31:   1600.56   0.004210   21.28  0.000821  ( 0.020309  0.020210  0.000018)
 32:   1617.99   0.016876   85.29  0.003255  (-0.056689  0.006425 -0.000002)
 33:   1749.05   0.045983  232.38  0.008204  (-0.082263  0.037909 -0.000085)
 34:   2867.90   0.022471  113.56  0.002445  ( 0.021063  0.044738 -0.000043)
 35:   3117.71   0.003033   15.33  0.000304  (-0.009205 -0.014795  0.000002)
 36:   3137.29   0.002328   11.77  0.000232  (-0.014862 -0.003275  0.000002)
 37:   3175.04   0.000657    3.32  0.000065  (-0.005798 -0.005561  0.000004)
 38:   3187.61   0.001705    8.62  0.000167  ( 0.008105  0.010063  0.000005)

--------------------------
THERMOCHEMISTRY AT 298.15K
--------------------------

Temperature         ...   298.15 K
Pressure            ...     1.00 atm
Total Mass          ...   107.11 AMU
Quasi RRHO          ...     True
Cut-Off Frequency   ...     1.00 cm^-1

Throughout the following assumptions are being made:
  (1) The electronic state is orbitally nondegenerate
  (2) There are no thermally accessible electronically excited states
  (3) Hindered rotations indicated by low frequency modes are not
      treated as such but are treated as vibrations and this may
      cause some error
  (4) All equations used are the standard statistical mechanics
      equations for an ideal gas
  (5) All vibrations are strictly harmonic

freq.     120.03  E(vib)   ...       0.44
freq.     222.50  E(vib)   ...       0.33
freq.     233.48  E(vib)   ...       0.32
freq.     385.49  E(vib)   ...       0.20
freq.     444.01  E(vib)   ...       0.17
freq.     448.71  E(vib)   ...       0.17
freq.     632.03  E(vib)   ...       0.09
freq.     686.46  E(vib)   ...       0.07
freq.     720.94  E(vib)   ...       0.07
freq.     815.45  E(vib)   ...       0.05
freq.     849.49  E(vib)   ...       0.04
freq.     944.19  E(vib)   ...       0.03
freq.     980.09  E(vib)   ...       0.02
freq.    1008.48  E(vib)   ...       0.02
freq.    1026.37  E(vib)   ...       0.02
freq.    1044.70  E(vib)   ...       0.02
freq.    1056.91  E(vib)   ...       0.02
freq.    1125.47  E(vib)   ...       0.01
freq.    1213.71  E(vib)   ...       0.01
freq.    1235.94  E(vib)   ...       0.01
freq.    1306.03  E(vib)   ...       0.01
freq.    1349.61  E(vib)   ...       0.01
freq.    1408.69  E(vib)   ...       0.00
freq.    1453.37  E(vib)   ...       0.00
freq.    1504.55  E(vib)   ...       0.00
freq.    1600.56  E(vib)   ...       0.00
freq.    1617.99  E(vib)   ...       0.00
freq.    1749.05  E(vib)   ...       0.00
freq.    2867.90  E(vib)   ...       0.00
freq.    3117.71  E(vib)   ...       0.00
freq.    3137.29  E(vib)   ...       0.00
freq.    3175.04  E(vib)   ...       0.00
freq.    3187.61  E(vib)   ...       0.00

------------
INNER ENERGY
------------

The inner energy is: U= E(el) + E(ZPE) + E(vib) + E(rot) + E(trans)
    E(el)   - is the total energy from the electronic structure calculation
              = E(kin-el) + E(nuc-el) + E(el-el) + E(nuc-nuc)
    E(ZPE)  - the the zero temperature vibrational energy from the frequency calculation
    E(vib)  - the the finite temperature correction to E(ZPE) due to population
              of excited vibrational states
    E(rot)  - is the rotational thermal energy
    E(trans)- is the translational thermal energy

Summary of contributions to the inner energy U:
Electronic energy                ...   -361.54995716 Eh
Zero point energy                ...      0.09720906 Eh      61.00 kcal/mol
Thermal vibrational correction   ...      0.00341022 Eh       2.14 kcal/mol
Thermal rotational correction    ...      0.00141627 Eh       0.89 kcal/mol
Thermal translational correction ...      0.00141627 Eh       0.89 kcal/mol
-----------------------------------------------------------------------
Total thermal energy                   -361.44650535 Eh

Summary of corrections to the electronic energy:
(perhaps to be used in another calculation)
Total thermal correction                  0.00624276 Eh       3.92 kcal/mol
Non-thermal (ZPE) correction              0.09720906 Eh      61.00 kcal/mol
-----------------------------------------------------------------------
Total correction                          0.10345181 Eh      64.92 kcal/mol

--------
ENTHALPY
--------

The enthalpy is H = U + kB*T
                kB is Boltzmann's constant
Total thermal energy              ...   -361.44650535 Eh
Thermal Enthalpy correction       ...      0.00094421 Eh       0.59 kcal/mol
-----------------------------------------------------------------------
Total Enthalpy                    ...   -361.44556114 Eh

Note: Only C1 symmetry has been detected, increase convergence thresholds
      if your molecule has a higher symmetry. Symmetry factor of 1.0 is
      used for the rotational entropy correction.

Note: Rotational entropy computed according to Herzberg
Infrared and Raman Spectra, Chapter V,1, Van Nostrand Reinhold, 1945
Point Group:  C1, Symmetry Number:   1
Rotational constants in cm-1:     0.181214     0.052920     0.040959

Vibrational entropy computed according to the QRRHO of S. Grimme
Chem.Eur.J. 2012 18 9955 using a reference frequency of 100.0 cm-1

-------
ENTROPY
-------

The entropy contributions are T*S = T*(S(el)+S(vib)+S(rot)+S(trans))
     S(el)   - electronic entropy
     S(vib)  - vibrational entropy
     S(rot)  - rotational entropy
     S(trans)- translational entropy
The entropies will be listed as multiplied by the temperature to get
units of energy

Electronic entropy                ...      0.00000000 Eh      0.00 kcal/mol
Vibrational entropy               ...      0.00549035 Eh      3.45 kcal/mol
Rotational entropy                ...      0.01321306 Eh      8.29 kcal/mol
Translational entropy             ...      0.01896855 Eh     11.90 kcal/mol
-----------------------------------------------------------------------
Final entropy term                ...      0.03767195 Eh     23.64 kcal/mol

In case the symmetry of your molecule has not been determined correctly
or in case you have a reason to use a different symmetry number we print
out the resulting rotational entropy values for sn=1,12:

 non-linear molecules -----------------------------------
|  sn= 1 | S(rot)=       0.01321306 Eh      8.29 kcal/mol|
|  sn= 2 | S(rot)=       0.01255860 Eh      7.88 kcal/mol|
|  sn= 3 | S(rot)=       0.01217577 Eh      7.64 kcal/mol|
|  sn= 4 | S(rot)=       0.01190415 Eh      7.47 kcal/mol|
|  sn= 5 | S(rot)=       0.01169346 Eh      7.34 kcal/mol|
|  sn= 6 | S(rot)=       0.01152131 Eh      7.23 kcal/mol|
|  sn= 7 | S(rot)=       0.01137577 Eh      7.14 kcal/mol|
|  sn= 8 | S(rot)=       0.01124969 Eh      7.06 kcal/mol|
|  sn= 9 | S(rot)=       0.01113848 Eh      6.99 kcal/mol|
|  sn=10 | S(rot)=       0.01103900 Eh      6.93 kcal/mol|
|  sn=11 | S(rot)=       0.01094901 Eh      6.87 kcal/mol|
|  sn=12 | S(rot)=       0.01086686 Eh      6.82 kcal/mol|
 linear molecules ---------------------------------------
|  Dinfh | S(rot)=       0.00834265 Eh      5.24 kcal/mol|
|  Cinfv | S(rot)=       0.00899710 Eh      5.65 kcal/mol|
 --------------------------------------------------------

-------------------
GIBBS FREE ENERGY
-------------------

The Gibbs free energy is G = H - T*S

Total enthalpy                    ...   -361.44556114 Eh
Total entropy correction          ...     -0.03767195 Eh    -23.64 kcal/mol
-----------------------------------------------------------------------

                             ****ORCA TERMINATED NORMALLY****
TOTAL RUN TIME: 0 days 0 hours 7 minutes 57 seconds 534 msec
