                         Program Version 6.0.1  -  RELEASE   -
|  1> ! r2scan-3c def2/J RI DEFGRID2 scfconv6 printgap
|  2> %output
|  3>     printlevel normal
|  4> end
|  5> * xyz 0 1
|  6> C -3.4625741349 0.4207573959 -3.39324e-05
|  7> C -2.6996531334 1.5747942295 -2.18449e-05
|  8> C -1.3169347675 1.4887173963 -7.7062e-06
|  9> C -0.7099367487 0.2499469947 -5.5261e-06
| 10> C -1.4643296663 -0.9198139657 -1.79672e-05
| 11> C -2.8504473575 -0.8202248228 -3.2288e-05
| 12> O -0.8110896173 -2.1041330018 -1.56343e-05
| 13> I 1.3913942663 0.0698300156 1.43365e-05
| 14> H -4.5400753645 0.4817133778 -4.4154e-05
| 15> H -3.1747752833 2.5431637975 -2.24087e-05
| 16> H -0.7136676459 2.3832354656 2.9536e-06
| 17> H -3.4449798313 -1.7240756124 -4.18778e-05
| 18> H -1.4345623129 -2.8396480525 -3.01769e-05
| 19> *
| 20>
| 21>                          ****END OF INPUT****

CARTESIAN COORDINATES (ANGSTROEM)
---------------------------------
  C     -3.462574    0.420757   -0.000034
  C     -2.699653    1.574794   -0.000022
  C     -1.316935    1.488717   -0.000008
  C     -0.709937    0.249947   -0.000006
  C     -1.464330   -0.919814   -0.000018
  C     -2.850447   -0.820225   -0.000032
  O     -0.811090   -2.104133   -0.000016
  I      1.391394    0.069830    0.000014
  H     -4.540075    0.481713   -0.000044
  H     -3.174775    2.543164   -0.000022
  H     -0.713668    2.383235    0.000003
  H     -3.444980   -1.724076   -0.000042
  H     -1.434562   -2.839648   -0.000030

 Total Charge           Charge          ....    0
 Multiplicity           Mult            ....    1
 Number of Electrons    NEL             ....   74
 Basis Dimension        Dim             ....  199

ORBITAL ENERGIES
----------------

  NO   OCC          E(Eh)            E(eV)
   0   2.0000     -18.999827      -517.0116
   1   2.0000     -10.115586      -275.2591
   2   2.0000     -10.085648      -274.4444
   3   2.0000     -10.051707      -273.5208
   4   2.0000     -10.050413      -273.4856
   5   2.0000     -10.048855      -273.4432
   6   2.0000     -10.041690      -273.2483
   7   2.0000      -6.810654      -185.3273
   8   2.0000      -4.830065      -131.4328
   9   2.0000      -4.813007      -130.9686
  10   2.0000      -4.812146      -130.9451
  11   2.0000      -1.865468       -50.7620
  12   2.0000      -1.860923       -50.6383
  13   2.0000      -1.860366       -50.6231
  14   2.0000      -1.846548       -50.2471
  15   2.0000      -1.846546       -50.2471
  16   2.0000      -1.047909       -28.5151
  17   2.0000      -0.840857       -22.8809
  18   2.0000      -0.745173       -20.2772
  19   2.0000      -0.726176       -19.7603
  20   2.0000      -0.654914       -17.8211
  21   2.0000      -0.612971       -16.6798
  22   2.0000      -0.571879       -15.5616
  23   2.0000      -0.531640       -14.4667
  24   2.0000      -0.470128       -12.7928
  25   2.0000      -0.453770       -12.3477
  26   2.0000      -0.421500       -11.4696
  27   2.0000      -0.402204       -10.9445
  28   2.0000      -0.390789       -10.6339
  29   2.0000      -0.363311        -9.8862
  30   2.0000      -0.346444        -9.4272
  31   2.0000      -0.329130        -8.9561
  32   2.0000      -0.314173        -8.5491
  33   2.0000      -0.276043        -7.5115
  34   2.0000      -0.234890        -6.3917
  35   2.0000      -0.232129        -6.3165
  36   2.0000      -0.211117        -5.7448
  37   0.0000      -0.051305        -1.3961
  38   0.0000      -0.047719        -1.2985
  39   0.0000      -0.029767        -0.8100
  40   0.0000       0.048867         1.3297
  41   0.0000       0.092021         2.5040

MULLIKEN ATOMIC CHARGES
-----------------------
   0 C :   -0.123271
   1 C :   -0.168247
   2 C :   -0.121845
   3 C :   -0.180609
   4 C :    0.456625
   5 C :   -0.311337
   6 O :   -0.404890
   7 I :   -0.059614
   8 H :    0.150207
   9 H :    0.150766
  10 H :    0.160896
  11 H :    0.139657
  12 H :    0.311662
Sum of atomic charges:   -0.0000000

LOEWDIN ATOMIC CHARGES
----------------------
   0 C :   -0.151165
   1 C :   -0.180200
   2 C :   -0.155516
   3 C :   -0.229692
   4 C :    0.172462
   5 C :   -0.164236
   6 O :   -0.503171
   7 I :    0.234702
   8 H :    0.170352
   9 H :    0.170535
  10 H :    0.178613
  11 H :    0.171611
  12 H :    0.285704

  Mayer bond orders larger than 0.100000
B(  0-C ,  1-C ) :   1.4313 B(  0-C ,  5-C ) :   1.4024 B(  0-C ,  8-H ) :   0.9398
B(  1-C ,  2-C ) :   1.3913 B(  1-C ,  9-H ) :   0.9452 B(  2-C ,  3-C ) :   1.3895
B(  2-C , 10-H ) :   0.9370 B(  3-C ,  4-C ) :   1.4167 B(  3-C ,  7-I ) :   1.1228
B(  4-C ,  5-C ) :   1.2928 B(  4-C ,  6-O ) :   0.9858 B(  5-C , 11-H ) :   0.9479
B(  6-O , 12-H ) :   0.8815

Dispersion correction           -0.004884283
FINAL SINGLE POINT ENERGY      -604.535259401417

DIPOLE MOMENT
-------------

Method             : SCF
Type of density    : Electron Density
Multiplicity       :   1
Irrep              :   0
Energy             :  -604.5343091634786106 Eh
Relativity type    :
Basis              : AO
                                X                 Y                 Z
Electronic contribution:    112.384341597       3.954694532       0.001152774
Nuclear contribution   :   -113.445420759      -4.304922900      -0.001167645
                        -----------------------------------------
Total Dipole Moment    :     -1.061079161      -0.350228368      -0.000014870
                        -----------------------------------------
Magnitude (a.u.)       :      1.117384847
Magnitude (Debye)      :      2.840166570

Rotational constants in cm-1:             0.097848             0.024654             0.019693
Rotational constants in MHz :          2933.394946           739.121571           590.367796

                             ****ORCA TERMINATED NORMALLY****
TOTAL RUN TIME: 0 days 0 hours 0 minutes 23 seconds 705 msec
