                         Program Version 6.0.0  -   RELEASE  -
|  1> ! r2SCAN-3c DEF2-TZVP FREQ
|  2> * xyzfile 0 1 censo.xyz
|  3>
|  4>                          ****END OF INPUT****

CARTESIAN COORDINATES (ANGSTROEM)
---------------------------------
  C     -0.000002   -2.122710   -0.000004
  C      1.212355   -1.439478   -0.000037
  C      1.186937   -0.050558   -0.000052
  C      0.000002    0.672528   -0.000030
  C     -1.186935   -0.050554    0.000003
  C     -1.212357   -1.439474    0.000015
  Cl    -2.705259    0.835915    0.000030
  Cl     2.705263    0.835908   -0.000107
  H     -0.000003   -3.207473    0.000007
  H      2.153007   -1.977111   -0.000055
  H      0.000003    1.755431   -0.000043
  H     -2.153010   -1.977106    0.000040

 Total Charge           Charge          ....    0
 Multiplicity           Mult            ....    1
 Number of Electrons    NEL             ....   74
 Basis Dimension        Dim             ....  284

ORBITAL ENERGIES
----------------

  NO   OCC          E(Eh)            E(eV)
   0   2.0000    -101.200437     -2753.8039
   1   2.0000    -101.200435     -2753.8038
   2   2.0000     -10.117679      -275.3161
   3   2.0000     -10.117670      -275.3158
   4   2.0000     -10.067142      -273.9409
   5   2.0000     -10.065632      -273.8998
   6   2.0000     -10.062313      -273.8095
   7   2.0000     -10.062278      -273.8085
   8   2.0000      -9.376232      -255.1402
   9   2.0000      -9.376229      -255.1402
  10   2.0000      -7.121168      -193.7768
  11   2.0000      -7.121167      -193.7768
  12   2.0000      -7.111210      -193.5059
  13   2.0000      -7.111210      -193.5059
  14   2.0000      -7.110739      -193.4930
  15   2.0000      -7.110739      -193.4930
  16   2.0000      -0.879860       -23.9422
  17   2.0000      -0.841068       -22.8866
  18   2.0000      -0.798145       -21.7186
  19   2.0000      -0.731616       -19.9083
  20   2.0000      -0.711365       -19.3572
  21   2.0000      -0.601085       -16.3563
  22   2.0000      -0.580105       -15.7855
  23   2.0000      -0.506771       -13.7899
  24   2.0000      -0.464206       -12.6317
  25   2.0000      -0.450722       -12.2648
  26   2.0000      -0.420282       -11.4365
  27   2.0000      -0.418585       -11.3903
  28   2.0000      -0.396106       -10.7786
  29   2.0000      -0.356339        -9.6965
  30   2.0000      -0.356074        -9.6893
  31   2.0000      -0.344406        -9.3718
  32   2.0000      -0.306788        -8.3481
  33   2.0000      -0.298770        -8.1300
  34   2.0000      -0.291968        -7.9449
  35   2.0000      -0.252649        -6.8749
  36   2.0000      -0.239039        -6.5046
  37   0.0000      -0.061379        -1.6702
  38   0.0000      -0.058232        -1.5846
  39   0.0000      -0.027420        -0.7461
  40   0.0000       0.016624         0.4524
  41   0.0000       0.070075         1.9068

MULLIKEN ATOMIC CHARGES
-----------------------
   0 C :   -0.066212
   1 C :   -0.193868
   2 C :    0.201437
   3 C :   -0.254624
   4 C :    0.201437
   5 C :   -0.193861
   6 Cl:   -0.109328
   7 Cl:   -0.109328
   8 H :    0.122887
   9 H :    0.130516
  10 H :    0.140426
  11 H :    0.130516
Sum of atomic charges:    0.0000000

LOEWDIN ATOMIC CHARGES
----------------------
   0 C :   -0.123426
   1 C :   -0.143405
   2 C :   -0.406430
   3 C :   -0.145026
   4 C :   -0.406430
   5 C :   -0.143405
   6 Cl:    0.381064
   7 Cl:    0.381064
   8 H :    0.150142
   9 H :    0.150734
  10 H :    0.154386
  11 H :    0.150734

  Mayer bond orders larger than 0.100000
B(  0-C ,  1-C ) :   1.3754 B(  0-C ,  5-C ) :   1.3754 B(  0-C ,  8-H ) :   0.9630
B(  1-C ,  2-C ) :   1.3575 B(  1-C ,  9-H ) :   0.9678 B(  2-C ,  3-C ) :   1.3314
B(  2-C ,  7-Cl) :   0.9720 B(  3-C ,  4-C ) :   1.3314 B(  3-C , 10-H ) :   0.9724
B(  4-C ,  5-C ) :   1.3575 B(  4-C ,  6-Cl) :   0.9720 B(  5-C , 11-H ) :   0.9678

Dispersion correction           -0.004685436
FINAL SINGLE POINT ENERGY     -1151.371010654431

DIPOLE MOMENT
-------------

Method             : SCF
Type of density    : Electron Density
Multiplicity       :   1
Irrep              :   0
Energy             : -1151.3712336520638928 Eh
Relativity type    :
Basis              : AO
                                X                 Y                 Z
Electronic contribution:      0.000008465       6.655904059      -0.000077478
Nuclear contribution   :     -0.000009249      -7.320390694       0.000083614
                        -----------------------------------------
Total Dipole Moment    :     -0.000000784      -0.664486635       0.000006135
                        -----------------------------------------
Magnitude (a.u.)       :      0.664486635
Magnitude (Debye)      :      1.688990799

VIBRATIONAL FREQUENCIES
-----------------------

Scaling factor for frequencies =  1.000000000  (already applied!)

     0:       0.00 cm**-1
     1:       0.00 cm**-1
     2:       0.00 cm**-1
     3:       0.00 cm**-1
     4:       0.00 cm**-1
     5:       0.00 cm**-1
     6:     175.13 cm**-1
     7:     203.05 cm**-1
     8:     206.07 cm**-1
     9:     372.13 cm**-1
    10:     391.50 cm**-1
    11:     427.26 cm**-1
    12:     443.75 cm**-1
    13:     551.03 cm**-1
    14:     671.34 cm**-1
    15:     693.59 cm**-1
    16:     768.00 cm**-1
    17:     780.29 cm**-1
    18:     879.30 cm**-1
    19:     893.03 cm**-1
    20:     963.43 cm**-1
    21:    1017.70 cm**-1
    22:    1086.69 cm**-1
    23:    1089.35 cm**-1
    24:    1117.26 cm**-1
    25:    1188.78 cm**-1
    26:    1292.16 cm**-1
    27:    1343.03 cm**-1
    28:    1437.56 cm**-1
    29:    1483.06 cm**-1
    30:    1600.32 cm**-1
    31:    1607.66 cm**-1
    32:    3175.52 cm**-1
    33:    3197.65 cm**-1
    34:    3202.21 cm**-1
    35:    3206.72 cm**-1

IR SPECTRUM
-----------

 Mode   freq       eps      Int      T**2         TX        TY        TZ
       cm**-1   L/(mol*cm) km/mol    a.u.
----------------------------------------------------------------------------
  6:    175.13   0.000016    0.08  0.000028  ( 0.000003  0.000001 -0.005264)
  7:    203.05   0.000060    0.30  0.000092  ( 0.000000  0.009583 -0.000000)
  8:    206.07   0.000000    0.00  0.000000  (-0.000001 -0.000002  0.000000)
  9:    372.13   0.000212    1.07  0.000178  (-0.013335 -0.000000  0.000001)
 10:    391.50   0.000900    4.55  0.000717  ( 0.000000 -0.026781  0.000000)
 11:    427.26   0.001582    8.00  0.001156  ( 0.033995 -0.000000 -0.000001)
 12:    443.75   0.000845    4.27  0.000594  ( 0.000004 -0.000003  0.024373)
 13:    551.03   0.000000    0.00  0.000000  (-0.000002 -0.000004 -0.000000)
 14:    671.34   0.000467    2.36  0.000217  (-0.000000 -0.014737  0.000000)
 15:    693.59   0.003542   17.90  0.001594  ( 0.000000 -0.000001  0.039921)
 16:    768.00   0.019573   98.91  0.007953  (-0.089181  0.000000  0.000000)
 17:    780.29   0.007398   37.39  0.002959  ( 0.000007  0.000001 -0.054393)
 18:    879.30   0.002906   14.68  0.001031  (-0.000001 -0.000001  0.032113)
 19:    893.03   0.000000    0.00  0.000000  ( 0.000000 -0.000001 -0.000000)
 20:    963.43   0.000037    0.19  0.000012  ( 0.000001 -0.000001 -0.003461)
 21:   1017.70   0.000718    3.63  0.000220  (-0.000000 -0.014834  0.000000)
 22:   1086.69   0.007318   36.98  0.002101  ( 0.000001 -0.045841  0.000001)
 23:   1089.35   0.004844   24.48  0.001388  (-0.037252 -0.000001  0.000001)
 24:   1117.26   0.001239    6.26  0.000346  ( 0.000000  0.018603 -0.000000)
 25:   1188.78   0.000128    0.65  0.000034  ( 0.005790 -0.000000 -0.000000)
 26:   1292.16   0.000558    2.82  0.000135  (-0.011605  0.000000  0.000000)
 27:   1343.03   0.000066    0.33  0.000015  ( 0.003911  0.000000 -0.000000)
 28:   1437.56   0.002357   11.91  0.000512  (-0.000000 -0.022621  0.000000)
 29:   1483.06   0.015585   78.76  0.003279  (-0.057266  0.000000  0.000001)
 30:   1600.32   0.015816   79.93  0.003084  (-0.055534  0.000000  0.000001)
 31:   1607.66   0.005894   29.79  0.001144  ( 0.000000 -0.033825  0.000000)
 32:   3175.52   0.000878    4.44  0.000086  (-0.000000  0.009289 -0.000000)
 33:   3197.65   0.000049    0.25  0.000005  (-0.002191 -0.000000  0.000000)
 34:   3202.21   0.000170    0.86  0.000017  ( 0.000000 -0.004065  0.000000)
 35:   3206.72   0.000263    1.33  0.000026  (-0.000000  0.005059 -0.000000)

--------------------------
THERMOCHEMISTRY AT 298.15K
--------------------------

Temperature         ...   298.15 K
Pressure            ...     1.00 atm
Total Mass          ...   147.00 AMU
Quasi RRHO          ...     True
Cut-Off Frequency   ...     1.00 cm^-1

Throughout the following assumptions are being made:
  (1) The electronic state is orbitally nondegenerate
  (2) There are no thermally accessible electronically excited states
  (3) Hindered rotations indicated by low frequency modes are not
      treated as such but are treated as vibrations and this may
      cause some error
  (4) All equations used are the standard statistical mechanics
      equations for an ideal gas
  (5) All vibrations are strictly harmonic

freq.     175.13  E(vib)   ...       0.38
freq.     203.05  E(vib)   ...       0.35
freq.     206.07  E(vib)   ...       0.35
freq.     372.13  E(vib)   ...       0.21
freq.     391.50  E(vib)   ...       0.20
freq.     427.26  E(vib)   ...       0.18
freq.     443.75  E(vib)   ...       0.17
freq.     551.03  E(vib)   ...       0.12
freq.     671.34  E(vib)   ...       0.08
freq.     693.59  E(vib)   ...       0.07
freq.     768.00  E(vib)   ...       0.06
freq.     780.29  E(vib)   ...       0.05
freq.     879.30  E(vib)   ...       0.04
freq.     893.03  E(vib)   ...       0.03
freq.     963.43  E(vib)   ...       0.03
freq.    1017.70  E(vib)   ...       0.02
freq.    1086.69  E(vib)   ...       0.02
freq.    1089.35  E(vib)   ...       0.02
freq.    1117.26  E(vib)   ...       0.01
freq.    1188.78  E(vib)   ...       0.01
freq.    1292.16  E(vib)   ...       0.01
freq.    1343.03  E(vib)   ...       0.01
freq.    1437.56  E(vib)   ...       0.00
freq.    1483.06  E(vib)   ...       0.00
freq.    1600.32  E(vib)   ...       0.00
freq.    1607.66  E(vib)   ...       0.00
freq.    3175.52  E(vib)   ...       0.00
freq.    3197.65  E(vib)   ...       0.00
freq.    3202.21  E(vib)   ...       0.00
freq.    3206.72  E(vib)   ...       0.00

------------
INNER ENERGY
------------

The inner energy is: U= E(el) + E(ZPE) + E(vib) + E(rot) + E(trans)
    E(el)   - is the total energy from the electronic structure calculation
              = E(kin-el) + E(nuc-el) + E(el-el) + E(nuc-nuc)
    E(ZPE)  - the the zero temperature vibrational energy from the frequency calculation
    E(vib)  - the the finite temperature correction to E(ZPE) due to population
              of excited vibrational states
    E(rot)  - is the rotational thermal energy
    E(trans)- is the translational thermal energy

Summary of contributions to the inner energy U:
Electronic energy                ...  -1151.37101065 Eh
Zero point energy                ...      0.08079421 Eh      50.70 kcal/mol
Thermal vibrational correction   ...      0.00384047 Eh       2.41 kcal/mol
Thermal rotational correction    ...      0.00141627 Eh       0.89 kcal/mol
Thermal translational correction ...      0.00141627 Eh       0.89 kcal/mol
-----------------------------------------------------------------------
Total thermal energy                  -1151.28354342 Eh

Summary of corrections to the electronic energy:
(perhaps to be used in another calculation)
Total thermal correction                  0.00667302 Eh       4.19 kcal/mol
Non-thermal (ZPE) correction              0.08079421 Eh      50.70 kcal/mol
-----------------------------------------------------------------------
Total correction                          0.08746723 Eh      54.89 kcal/mol

--------
ENTHALPY
--------

The enthalpy is H = U + kB*T
                kB is Boltzmann's constant
Total thermal energy              ...  -1151.28354342 Eh
Thermal Enthalpy correction       ...      0.00094421 Eh       0.59 kcal/mol
-----------------------------------------------------------------------
Total Enthalpy                    ...  -1151.28259921 Eh

Note: Rotational entropy computed according to Herzberg
Infrared and Raman Spectra, Chapter V,1, Van Nostrand Reinhold, 1945
Point Group:  C2v, Symmetry Number:   2
Rotational constants in cm-1:     0.093503     0.028218     0.021676

Vibrational entropy computed according to the QRRHO of S. Grimme
Chem.Eur.J. 2012 18 9955 using a reference frequency of 100.0 cm-1

-------
ENTROPY
-------

The entropy contributions are T*S = T*(S(el)+S(vib)+S(rot)+S(trans))
     S(el)   - electronic entropy
     S(vib)  - vibrational entropy
     S(rot)  - rotational entropy
     S(trans)- translational entropy
The entropies will be listed as multiplied by the temperature to get
units of energy

Electronic entropy                ...      0.00000000 Eh      0.00 kcal/mol
Vibrational entropy               ...      0.00607830 Eh      3.81 kcal/mol
Rotational entropy                ...      0.01346826 Eh      8.45 kcal/mol
Translational entropy             ...      0.01941692 Eh     12.18 kcal/mol
-----------------------------------------------------------------------
Final entropy term                ...      0.03896348 Eh     24.45 kcal/mol

In case the symmetry of your molecule has not been determined correctly
or in case you have a reason to use a different symmetry number we print
out the resulting rotational entropy values for sn=1,12:

 non-linear molecules -----------------------------------
|  sn= 1 | S(rot)=       0.01412272 Eh      8.86 kcal/mol|
|  sn= 2 | S(rot)=       0.01346826 Eh      8.45 kcal/mol|
|  sn= 3 | S(rot)=       0.01308543 Eh      8.21 kcal/mol|
|  sn= 4 | S(rot)=       0.01281380 Eh      8.04 kcal/mol|
|  sn= 5 | S(rot)=       0.01260312 Eh      7.91 kcal/mol|
|  sn= 6 | S(rot)=       0.01243097 Eh      7.80 kcal/mol|
|  sn= 7 | S(rot)=       0.01228543 Eh      7.71 kcal/mol|
|  sn= 8 | S(rot)=       0.01215935 Eh      7.63 kcal/mol|
|  sn= 9 | S(rot)=       0.01204814 Eh      7.56 kcal/mol|
|  sn=10 | S(rot)=       0.01194866 Eh      7.50 kcal/mol|
|  sn=11 | S(rot)=       0.01185867 Eh      7.44 kcal/mol|
|  sn=12 | S(rot)=       0.01177652 Eh      7.39 kcal/mol|
 linear molecules ---------------------------------------
|  Dinfh | S(rot)=       0.00894348 Eh      5.61 kcal/mol|
|  Cinfv | S(rot)=       0.00959793 Eh      6.02 kcal/mol|
 --------------------------------------------------------

-------------------
GIBBS FREE ENERGY
-------------------

The Gibbs free energy is G = H - T*S

Total enthalpy                    ...  -1151.28259921 Eh
Total entropy correction          ...     -0.03896348 Eh    -24.45 kcal/mol
-----------------------------------------------------------------------
Final Gibbs free energy         ...  -1151.32156269 Eh

For completeness - the Gibbs free energy minus the electronic energy
G-E(el)                           ...      0.04944796 Eh     31.03 kcal/mol

                             ****ORCA TERMINATED NORMALLY****
TOTAL RUN TIME: 0 days 0 hours 7 minutes 3 seconds 54 msec
