                         Program Version 6.0.0  -   RELEASE  -
|  1> ! r2SCAN-3c DEF2-TZVP FREQ
|  2> * xyzfile 0 1 vacuum_censo.xyz
|  3>
|  4>                          ****END OF INPUT****

CARTESIAN COORDINATES (ANGSTROEM)
---------------------------------
  C      0.000002   -2.120301   -0.000144
  C      1.211353   -1.437032   -0.000099
  C      1.190108   -0.047439    0.000015
  C     -0.000027    0.670211    0.000091
  C     -1.190147   -0.047464    0.000055
  C     -1.211364   -1.437059   -0.000066
  Cl    -2.703643    0.834613    0.000134
  Cl     2.703584    0.834671    0.000057
  H      0.000019   -3.205159   -0.000244
  H      2.154817   -1.968659   -0.000159
  H     -0.000035    1.752393    0.000167
  H     -2.154821   -1.968701   -0.000102

 Total Charge           Charge          ....    0
 Multiplicity           Mult            ....    1
 Number of Electrons    NEL             ....   74
 Basis Dimension        Dim             ....  284

ORBITAL ENERGIES
----------------

  NO   OCC          E(Eh)            E(eV)
   0   2.0000    -101.200922     -2753.8171
   1   2.0000    -101.200920     -2753.8170
   2   2.0000     -10.116888      -275.2945
   3   2.0000     -10.116879      -275.2943
   4   2.0000     -10.066239      -273.9163
   5   2.0000     -10.065102      -273.8853
   6   2.0000     -10.061655      -273.7915
   7   2.0000     -10.061620      -273.7906
   8   2.0000      -9.376788      -255.1554
   9   2.0000      -9.376785      -255.1553
  10   2.0000      -7.121713      -193.7917
  11   2.0000      -7.121712      -193.7916
  12   2.0000      -7.111764      -193.5209
  13   2.0000      -7.111764      -193.5209
  14   2.0000      -7.111287      -193.5080
  15   2.0000      -7.111287      -193.5079
  16   2.0000      -0.880291       -23.9539
  17   2.0000      -0.842661       -22.9300
  18   2.0000      -0.798683       -21.7333
  19   2.0000      -0.731111       -19.8945
  20   2.0000      -0.711037       -19.3483
  21   2.0000      -0.600808       -16.3488
  22   2.0000      -0.580022       -15.7832
  23   2.0000      -0.506512       -13.7829
  24   2.0000      -0.464027       -12.6268
  25   2.0000      -0.451077       -12.2744
  26   2.0000      -0.419669       -11.4198
  27   2.0000      -0.419038       -11.4026
  28   2.0000      -0.396212       -10.7815
  29   2.0000      -0.356876        -9.7111
  30   2.0000      -0.355281        -9.6677
  31   2.0000      -0.345331        -9.3969
  32   2.0000      -0.307045        -8.3551
  33   2.0000      -0.299069        -8.1381
  34   2.0000      -0.292276        -7.9532
  35   2.0000      -0.252202        -6.8628
  36   2.0000      -0.238531        -6.4908
  37   0.0000      -0.060752        -1.6532
  38   0.0000      -0.058030        -1.5791
  39   0.0000      -0.025647        -0.6979
  40   0.0000       0.018128         0.4933
  41   0.0000       0.070582         1.9206

MULLIKEN ATOMIC CHARGES
-----------------------
   0 C :   -0.076247
   1 C :   -0.184893
   2 C :    0.192063
   3 C :   -0.247544
   4 C :    0.192075
   5 C :   -0.184909
   6 Cl:   -0.105661
   7 Cl:   -0.105660
   8 H :    0.122298
   9 H :    0.129712
  10 H :    0.139054
  11 H :    0.129711
Sum of atomic charges:    0.0000000

LOEWDIN ATOMIC CHARGES
----------------------
   0 C :   -0.124070
   1 C :   -0.143423
   2 C :   -0.412586
   3 C :   -0.145187
   4 C :   -0.412585
   5 C :   -0.143423
   6 Cl:    0.388274
   7 Cl:    0.388274
   8 H :    0.150287
   9 H :    0.150306
  10 H :    0.153828
  11 H :    0.150306

  Mayer bond orders larger than 0.100000
B(  0-C ,  1-C ) :   1.3757 B(  0-C ,  5-C ) :   1.3757 B(  0-C ,  8-H ) :   0.9640
B(  1-C ,  2-C ) :   1.3561 B(  1-C ,  9-H ) :   0.9678 B(  2-C ,  3-C ) :   1.3307
B(  2-C ,  7-Cl) :   0.9770 B(  3-C ,  4-C ) :   1.3307 B(  3-C , 10-H ) :   0.9726
B(  4-C ,  5-C ) :   1.3560 B(  4-C ,  6-Cl) :   0.9770 B(  5-C , 11-H ) :   0.9678

Dispersion correction           -0.004688048
FINAL SINGLE POINT ENERGY     -1151.371237966574

DIPOLE MOMENT
-------------

Method             : SCF
Type of density    : Electron Density
Multiplicity       :   1
Irrep              :   0
Energy             : -1151.3714839160081738 Eh
Relativity type    :
Basis              : AO
                                X                 Y                 Z
Electronic contribution:     -0.000074543       6.652911921       0.000548550
Nuclear contribution   :      0.000082551      -7.302286014      -0.000608647
                        -----------------------------------------
Total Dipole Moment    :      0.000008008      -0.649374093      -0.000060096
                        -----------------------------------------
Magnitude (a.u.)       :      0.649374096
Magnitude (Debye)      :      1.650577778

VIBRATIONAL FREQUENCIES
-----------------------

Scaling factor for frequencies =  1.000000000  (already applied!)

     0:       0.00 cm**-1
     1:       0.00 cm**-1
     2:       0.00 cm**-1
     3:       0.00 cm**-1
     4:       0.00 cm**-1
     5:       0.00 cm**-1
     6:     171.90 cm**-1
     7:     202.39 cm**-1
     8:     203.71 cm**-1
     9:     372.76 cm**-1
    10:     394.45 cm**-1
    11:     429.25 cm**-1
    12:     441.57 cm**-1
    13:     550.10 cm**-1
    14:     673.34 cm**-1
    15:     692.17 cm**-1
    16:     774.98 cm**-1
    17:     780.54 cm**-1
    18:     879.10 cm**-1
    19:     892.32 cm**-1
    20:     963.34 cm**-1
    21:    1018.71 cm**-1
    22:    1091.28 cm**-1
    23:    1092.30 cm**-1
    24:    1120.27 cm**-1
    25:    1188.99 cm**-1
    26:    1293.21 cm**-1
    27:    1344.17 cm**-1
    28:    1438.26 cm**-1
    29:    1484.46 cm**-1
    30:    1603.33 cm**-1
    31:    1606.92 cm**-1
    32:    3175.29 cm**-1
    33:    3201.88 cm**-1
    34:    3205.79 cm**-1
    35:    3212.23 cm**-1

IR SPECTRUM
-----------

 Mode   freq       eps      Int      T**2         TX        TY        TZ
       cm**-1   L/(mol*cm) km/mol    a.u.
----------------------------------------------------------------------------
  6:    171.90   0.000019    0.10  0.000035  ( 0.000002 -0.000006 -0.005923)
  7:    202.39   0.000057    0.29  0.000088  (-0.000000 -0.009364 -0.000001)
  8:    203.71   0.000000    0.00  0.000000  ( 0.000008 -0.000002 -0.000000)
  9:    372.76   0.000174    0.88  0.000145  ( 0.012057  0.000000 -0.000000)
 10:    394.45   0.000831    4.20  0.000658  (-0.000001  0.025644  0.000001)
 11:    429.25   0.001423    7.19  0.001034  ( 0.032162  0.000000 -0.000001)
 12:    441.57   0.000874    4.42  0.000618  ( 0.000002  0.000024  0.024853)
 13:    550.10   0.000000    0.00  0.000000  ( 0.000014 -0.000002 -0.000000)
 14:    673.34   0.000451    2.28  0.000209  ( 0.000000 -0.014465 -0.000000)
 15:    692.17   0.003641   18.40  0.001641  ( 0.000001  0.000005  0.040514)
 16:    774.98   0.019141   96.73  0.007707  ( 0.087792  0.000001  0.000002)
 17:    780.54   0.007221   36.49  0.002887  ( 0.000008 -0.000007 -0.053732)
 18:    879.10   0.002860   14.45  0.001015  (-0.000001  0.000004  0.031863)
 19:    892.32   0.000000    0.00  0.000000  ( 0.000003 -0.000001  0.000001)
 20:    963.34   0.000030    0.15  0.000010  ( 0.000001  0.000005 -0.003131)
 21:   1018.71   0.000588    2.97  0.000180  (-0.000000 -0.013422 -0.000001)
 22:   1091.28   0.006765   34.19  0.001935  ( 0.000018 -0.043984 -0.000004)
 23:   1092.30   0.004957   25.05  0.001416  (-0.037633 -0.000021  0.000000)
 24:   1120.27   0.001756    8.88  0.000489  ( 0.000000  0.022119  0.000001)
 25:   1188.99   0.000148    0.75  0.000039  ( 0.006237  0.000000 -0.000000)
 26:   1293.21   0.000546    2.76  0.000132  (-0.011478 -0.000000  0.000000)
 27:   1344.17   0.000069    0.35  0.000016  ( 0.003998 -0.000000 -0.000000)
 28:   1438.26   0.002336   11.80  0.000507  (-0.000001 -0.022511 -0.000001)
 29:   1484.46   0.015177   76.70  0.003191  ( 0.056485 -0.000000 -0.000001)
 30:   1603.33   0.016142   81.57  0.003142  (-0.056051 -0.000009  0.000001)
 31:   1606.92   0.005886   29.75  0.001143  (-0.000013  0.033810  0.000003)
 32:   3175.29   0.000902    4.56  0.000089  ( 0.000000 -0.009416 -0.000001)
 33:   3201.88   0.000070    0.35  0.000007  (-0.002605 -0.000008  0.000000)
 34:   3205.79   0.000169    0.85  0.000016  ( 0.000005 -0.004053 -0.000000)
 35:   3212.23   0.000175    0.89  0.000017  (-0.000000  0.004126  0.000000)

--------------------------
THERMOCHEMISTRY AT 298.15K
--------------------------

Temperature         ...   298.15 K
Pressure            ...     1.00 atm
Total Mass          ...   147.00 AMU
Quasi RRHO          ...     True
Cut-Off Frequency   ...     1.00 cm^-1

Throughout the following assumptions are being made:
  (1) The electronic state is orbitally nondegenerate
  (2) There are no thermally accessible electronically excited states
  (3) Hindered rotations indicated by low frequency modes are not
      treated as such but are treated as vibrations and this may
      cause some error
  (4) All equations used are the standard statistical mechanics
      equations for an ideal gas
  (5) All vibrations are strictly harmonic

freq.     171.90  E(vib)   ...       0.38
freq.     202.39  E(vib)   ...       0.35
freq.     203.71  E(vib)   ...       0.35
freq.     372.76  E(vib)   ...       0.21
freq.     394.45  E(vib)   ...       0.20
freq.     429.25  E(vib)   ...       0.18
freq.     441.57  E(vib)   ...       0.17
freq.     550.10  E(vib)   ...       0.12
freq.     673.34  E(vib)   ...       0.08
freq.     692.17  E(vib)   ...       0.07
freq.     774.98  E(vib)   ...       0.05
freq.     780.54  E(vib)   ...       0.05
freq.     879.10  E(vib)   ...       0.04
freq.     892.32  E(vib)   ...       0.03
freq.     963.34  E(vib)   ...       0.03
freq.    1018.71  E(vib)   ...       0.02
freq.    1091.28  E(vib)   ...       0.02
freq.    1092.30  E(vib)   ...       0.02
freq.    1120.27  E(vib)   ...       0.01
freq.    1188.99  E(vib)   ...       0.01
freq.    1293.21  E(vib)   ...       0.01
freq.    1344.17  E(vib)   ...       0.01
freq.    1438.26  E(vib)   ...       0.00
freq.    1484.46  E(vib)   ...       0.00
freq.    1603.33  E(vib)   ...       0.00
freq.    1606.92  E(vib)   ...       0.00
freq.    3175.29  E(vib)   ...       0.00
freq.    3201.88  E(vib)   ...       0.00
freq.    3205.79  E(vib)   ...       0.00
freq.    3212.23  E(vib)   ...       0.00

------------
INNER ENERGY
------------

The inner energy is: U= E(el) + E(ZPE) + E(vib) + E(rot) + E(trans)
    E(el)   - is the total energy from the electronic structure calculation
              = E(kin-el) + E(nuc-el) + E(el-el) + E(nuc-nuc)
    E(ZPE)  - the the zero temperature vibrational energy from the frequency calculation
    E(vib)  - the the finite temperature correction to E(ZPE) due to population
              of excited vibrational states
    E(rot)  - is the rotational thermal energy
    E(trans)- is the translational thermal energy

Summary of contributions to the inner energy U:
Electronic energy                ...  -1151.37123797 Eh
Zero point energy                ...      0.08087270 Eh      50.75 kcal/mol
Thermal vibrational correction   ...      0.00384387 Eh       2.41 kcal/mol
Thermal rotational correction    ...      0.00141627 Eh       0.89 kcal/mol
Thermal translational correction ...      0.00141627 Eh       0.89 kcal/mol
-----------------------------------------------------------------------
Total thermal energy                  -1151.28368885 Eh

Summary of corrections to the electronic energy:
(perhaps to be used in another calculation)
Total thermal correction                  0.00667641 Eh       4.19 kcal/mol
Non-thermal (ZPE) correction              0.08087270 Eh      50.75 kcal/mol
-----------------------------------------------------------------------
Total correction                          0.08754911 Eh      54.94 kcal/mol

--------
ENTHALPY
--------

The enthalpy is H = U + kB*T
                kB is Boltzmann's constant
Total thermal energy              ...  -1151.28368885 Eh
Thermal Enthalpy correction       ...      0.00094421 Eh       0.59 kcal/mol
-----------------------------------------------------------------------
Total Enthalpy                    ...  -1151.28274464 Eh

Note: Rotational entropy computed according to Herzberg
Infrared and Raman Spectra, Chapter V,1, Van Nostrand Reinhold, 1945
Point Group:  C2v, Symmetry Number:   2
Rotational constants in cm-1:     0.093804     0.028241     0.021706

Vibrational entropy computed according to the QRRHO of S. Grimme
Chem.Eur.J. 2012 18 9955 using a reference frequency of 100.0 cm-1

-------
ENTROPY
-------

The entropy contributions are T*S = T*(S(el)+S(vib)+S(rot)+S(trans))
     S(el)   - electronic entropy
     S(vib)  - vibrational entropy
     S(rot)  - rotational entropy
     S(trans)- translational entropy
The entropies will be listed as multiplied by the temperature to get
units of energy

Electronic entropy                ...      0.00000000 Eh      0.00 kcal/mol
Vibrational entropy               ...      0.00609596 Eh      3.83 kcal/mol
Rotational entropy                ...      0.01346570 Eh      8.45 kcal/mol
Translational entropy             ...      0.01941692 Eh     12.18 kcal/mol
-----------------------------------------------------------------------
Final entropy term                ...      0.03897858 Eh     24.46 kcal/mol

In case the symmetry of your molecule has not been determined correctly
or in case you have a reason to use a different symmetry number we print
out the resulting rotational entropy values for sn=1,12:

 non-linear molecules -----------------------------------
|  sn= 1 | S(rot)=       0.01412016 Eh      8.86 kcal/mol|
|  sn= 2 | S(rot)=       0.01346570 Eh      8.45 kcal/mol|
|  sn= 3 | S(rot)=       0.01308287 Eh      8.21 kcal/mol|
|  sn= 4 | S(rot)=       0.01281125 Eh      8.04 kcal/mol|
|  sn= 5 | S(rot)=       0.01260056 Eh      7.91 kcal/mol|
|  sn= 6 | S(rot)=       0.01242841 Eh      7.80 kcal/mol|
|  sn= 7 | S(rot)=       0.01228287 Eh      7.71 kcal/mol|
|  sn= 8 | S(rot)=       0.01215679 Eh      7.63 kcal/mol|
|  sn= 9 | S(rot)=       0.01204558 Eh      7.56 kcal/mol|
|  sn=10 | S(rot)=       0.01194610 Eh      7.50 kcal/mol|
|  sn=11 | S(rot)=       0.01185611 Eh      7.44 kcal/mol|
|  sn=12 | S(rot)=       0.01177396 Eh      7.39 kcal/mol|
 linear molecules ---------------------------------------
|  Dinfh | S(rot)=       0.00894218 Eh      5.61 kcal/mol|
|  Cinfv | S(rot)=       0.00959663 Eh      6.02 kcal/mol|
 --------------------------------------------------------

-------------------
GIBBS FREE ENERGY
-------------------

The Gibbs free energy is G = H - T*S

Total enthalpy                    ...  -1151.28274464 Eh
Total entropy correction          ...     -0.03897858 Eh    -24.46 kcal/mol
-----------------------------------------------------------------------
Final Gibbs free energy         ...  -1151.32172322 Eh

For completeness - the Gibbs free energy minus the electronic energy
G-E(el)                           ...      0.04951474 Eh     31.07 kcal/mol

                             ****ORCA TERMINATED NORMALLY****
TOTAL RUN TIME: 0 days 0 hours 7 minutes 2 seconds 0 msec
