                         Program Version 6.0.1  -  RELEASE   -
|  1> ! r2scan-3c def2/J RI DEFGRID2 scfconv6 printgap
|  2> %output
|  3>     printlevel normal
|  4> end
|  5> * xyz 0 1
|  6> C -0.5171531102 -1.412861735 -1.2062e-05
|  7> N -0.4206422343 0.0272001193 5.2138e-06
|  8> C -1.6602973751 0.7548946153 2.27105e-05
|  9> C 0.7829431673 0.6225049282 -6.62068e-05
| 10> O 1.8474114939 0.0516633432 4.1777e-05
| 11> H -1.0474101597 -1.76020616 -0.8896396563
| 12> H -1.0488371725 -1.7600799117 0.8887969482
| 13> H 0.4944464878 -1.8144371711 0.0008013311
| 14> H -2.2493292807 0.503543161 -0.8865050827
| 15> H -1.4626889564 1.8251180087 -0.0007251226
| 16> H -2.2487383794 0.5046469421 0.8872789668
| 17> H 0.7005290098 1.7259115869 -8.0928e-05
| 18> *
| 19>
| 20>                          ****END OF INPUT****

CARTESIAN COORDINATES (ANGSTROEM)
---------------------------------
  C     -0.517153   -1.412862   -0.000012
  N     -0.420642    0.027200    0.000005
  C     -1.660297    0.754895    0.000023
  C      0.782943    0.622505   -0.000066
  O      1.847411    0.051663    0.000042
  H     -1.047410   -1.760206   -0.889640
  H     -1.048837   -1.760080    0.888797
  H      0.494446   -1.814437    0.000801
  H     -2.249329    0.503543   -0.886505
  H     -1.462689    1.825118   -0.000725
  H     -2.248738    0.504647    0.887279
  H      0.700529    1.725912   -0.000081

 Total Charge           Charge          ....    0
 Multiplicity           Mult            ....    1
 Number of Electrons    NEL             ....   40
 Basis Dimension        Dim             ....  140

ORBITAL ENERGIES
----------------

  NO   OCC          E(Eh)            E(eV)
   0   2.0000     -18.912231      -514.6280
   1   2.0000     -14.199063      -386.3761
   2   2.0000     -10.117709      -275.3168
   3   2.0000     -10.077796      -274.2308
   4   2.0000     -10.063908      -273.8529
   5   2.0000      -1.003189       -27.2982
   6   2.0000      -0.914962       -24.8974
   7   2.0000      -0.705276       -19.1915
   8   2.0000      -0.677467       -18.4348
   9   2.0000      -0.539628       -14.6840
  10   2.0000      -0.489303       -13.3146
  11   2.0000      -0.455017       -12.3816
  12   2.0000      -0.438615       -11.9353
  13   2.0000      -0.384364       -10.4591
  14   2.0000      -0.382959       -10.4208
  15   2.0000      -0.372366       -10.1326
  16   2.0000      -0.357853        -9.7377
  17   2.0000      -0.350690        -9.5428
  18   2.0000      -0.222333        -6.0500
  19   2.0000      -0.221726        -6.0335
  20   0.0000      -0.000901        -0.0245
  21   0.0000       0.069829         1.9001
  22   0.0000       0.100840         2.7440
  23   0.0000       0.108455         2.9512
  24   0.0000       0.118544         3.2257

MULLIKEN ATOMIC CHARGES
-----------------------
   0 C :   -0.417102
   1 N :    0.079449
   2 C :   -0.362737
   3 C :    0.124936
   4 O :   -0.445984
   5 H :    0.144339
   6 H :    0.144272
   7 H :    0.200032
   8 H :    0.148866
   9 H :    0.147247
  10 H :    0.148905
  11 H :    0.087776
Sum of atomic charges:   -0.0000000

LOEWDIN ATOMIC CHARGES
----------------------
   0 C :   -0.116317
   1 N :   -0.859484
   2 C :   -0.112716
   3 C :    0.302696
   4 O :   -0.471913
   5 H :    0.173424
   6 H :    0.173426
   7 H :    0.208462
   8 H :    0.171942
   9 H :    0.182327
  10 H :    0.171927
  11 H :    0.176227

  Mayer bond orders larger than 0.100000
B(  0-C ,  1-N ) :   0.9256 B(  0-C ,  5-H ) :   0.9547 B(  0-C ,  6-H ) :   0.9547
B(  0-C ,  7-H ) :   0.9495 B(  1-N ,  2-C ) :   0.9485 B(  1-N ,  3-C ) :   1.2108
B(  2-C ,  8-H ) :   0.9541 B(  2-C ,  9-H ) :   0.9602 B(  2-C , 10-H ) :   0.9541
B(  3-C ,  4-O ) :   1.8069 B(  3-C , 11-H ) :   0.9806

Dispersion correction           -0.002517955
FINAL SINGLE POINT ENERGY      -248.444394275270

DIPOLE MOMENT
-------------

Method             : SCF
Type of density    : Electron Density
Multiplicity       :   1
Irrep              :   0
Energy             :  -248.4551860672576709 Eh
Relativity type    :
Basis              : AO
                                X                 Y                 Z
Electronic contribution:      4.810376267       0.874220352       0.000002354
Nuclear contribution   :     -6.412647860      -0.726637174      -0.000068348
                        -----------------------------------------
Total Dipole Moment    :     -1.602271594       0.147583178      -0.000065994
                        -----------------------------------------
Magnitude (a.u.)       :      1.609054088
Magnitude (Debye)      :      4.089890463

Rotational constants in cm-1:             0.305697             0.141357             0.100319
Rotational constants in MHz :          9164.567163          4237.780370          3007.476916

                             ****ORCA TERMINATED NORMALLY****
TOTAL RUN TIME: 0 days 0 hours 0 minutes 24 seconds 312 msec
