                         Program Version 6.0.0  -   RELEASE  -
|  1> ! r2SCAN-3c DEF2-TZVP FREQ
|  2> * xyzfile 0 1 censo.xyz
|  3>
|  4>                          ****END OF INPUT****

CARTESIAN COORDINATES (ANGSTROEM)
---------------------------------
  C     -1.275868    0.693945   -0.006526
  C     -0.000007   -0.093086    0.000065
  O      0.000137   -1.321606    0.000117
  C      1.275714    0.694198    0.006525
  H     -1.406471    1.142548    0.986599
  H     -1.212504    1.523542   -0.717964
  H     -2.132445    0.056295   -0.230089
  H      1.407018    1.141081   -0.987294
  H      2.132216    0.057000    0.231677
  H      1.211773    1.524968    0.716516

 Total Charge           Charge          ....    0
 Multiplicity           Mult            ....    1
 Number of Electrons    NEL             ....   32
 Basis Dimension        Dim             ....  160

ORBITAL ENERGIES
----------------

  NO   OCC          E(Eh)            E(eV)
   0   2.0000     -18.937246      -515.3087
   1   2.0000     -10.123416      -275.4721
   2   2.0000     -10.040708      -273.2216
   3   2.0000     -10.040704      -273.2215
   4   2.0000      -0.995050       -27.0767
   5   2.0000      -0.744284       -20.2530
   6   2.0000      -0.682741       -18.5783
   7   2.0000      -0.504593       -13.7307
   8   2.0000      -0.434449       -11.8220
   9   2.0000      -0.428261       -11.6536
  10   2.0000      -0.423311       -11.5189
  11   2.0000      -0.377879       -10.2826
  12   2.0000      -0.362902        -9.8751
  13   2.0000      -0.353882        -9.6296
  14   2.0000      -0.319397        -8.6912
  15   2.0000      -0.216491        -5.8910
  16   0.0000      -0.048998        -1.3333
  17   0.0000       0.037588         1.0228
  18   0.0000       0.097869         2.6632
  19   0.0000       0.100970         2.7475
  20   0.0000       0.109566         2.9814

MULLIKEN ATOMIC CHARGES
-----------------------
   0 C :   -0.303652
   1 C :    0.210707
   2 O :   -0.337920
   3 C :   -0.303666
   4 H :    0.123937
   5 H :    0.113074
   6 H :    0.130249
   7 H :    0.123963
   8 H :    0.130262
   9 H :    0.113046
Sum of atomic charges:    0.0000000

LOEWDIN ATOMIC CHARGES
----------------------
   0 C :   -0.266186
   1 C :   -0.381366
   2 O :    0.101446
   3 C :   -0.266187
   4 H :    0.141108
   5 H :    0.132688
   6 H :    0.132351
   7 H :    0.141137
   8 H :    0.132363
   9 H :    0.132647

  Mayer bond orders larger than 0.100000
B(  0-C ,  1-C ) :   0.9633 B(  0-C ,  4-H ) :   0.9395 B(  0-C ,  5-H ) :   0.9486
B(  0-C ,  6-H ) :   0.9686 B(  1-C ,  2-O ) :   2.0645 B(  1-C ,  3-C ) :   0.9632
B(  3-C ,  7-H ) :   0.9395 B(  3-C ,  8-H ) :   0.9685 B(  3-C ,  9-H ) :   0.9486

Dispersion correction           -0.001718870
FINAL SINGLE POINT ENERGY      -193.118467469301

DIPOLE MOMENT
-------------

Method             : SCF
Type of density    : Electron Density
Multiplicity       :   1
Irrep              :   0
Energy             :  -193.1214383737427625 Eh
Relativity type    :
Basis              : AO
                                X                 Y                 Z
Electronic contribution:      0.000273572      -3.871032695       0.000542814
Nuclear contribution   :     -0.000370612       5.098991271      -0.000721400
                        -----------------------------------------
Total Dipole Moment    :     -0.000097039       1.227958576      -0.000178586
                        -----------------------------------------
Magnitude (a.u.)       :      1.227958592
Magnitude (Debye)      :      3.121222694

VIBRATIONAL FREQUENCIES
-----------------------

Scaling factor for frequencies =  1.000000000  (already applied!)

     0:       0.00 cm**-1
     1:       0.00 cm**-1
     2:       0.00 cm**-1
     3:       0.00 cm**-1
     4:       0.00 cm**-1
     5:       0.00 cm**-1
     6:     141.61 cm**-1
     7:     160.84 cm**-1
     8:     386.07 cm**-1
     9:     500.10 cm**-1
    10:     545.09 cm**-1
    11:     804.27 cm**-1
    12:     878.32 cm**-1
    13:     907.68 cm**-1
    14:    1080.37 cm**-1
    15:    1111.54 cm**-1
    16:    1250.33 cm**-1
    17:    1373.17 cm**-1
    18:    1382.77 cm**-1
    19:    1449.84 cm**-1
    20:    1450.51 cm**-1
    21:    1461.58 cm**-1
    22:    1478.79 cm**-1
    23:    1695.95 cm**-1
    24:    3004.07 cm**-1
    25:    3009.42 cm**-1
    26:    3073.50 cm**-1
    27:    3078.68 cm**-1
    28:    3131.61 cm**-1
    29:    3132.92 cm**-1

IR SPECTRUM
-----------

 Mode   freq       eps      Int      T**2         TX        TY        TZ
       cm**-1   L/(mol*cm) km/mol    a.u.
----------------------------------------------------------------------------
  6:    141.61   0.000011    0.06  0.000025  (-0.000021  0.005006 -0.000046)
  7:    160.84   0.000011    0.06  0.000021  ( 0.003349 -0.000008  0.003193)
  8:    386.07   0.000333    1.68  0.000269  ( 0.000000  0.016394 -0.000001)
  9:    500.10   0.000095    0.48  0.000059  (-0.006800  0.000004  0.003592)
 10:    545.09   0.002510   12.68  0.001437  ( 0.037877 -0.000004  0.001494)
 11:    804.27   0.000344    1.74  0.000134  ( 0.000010  0.011555 -0.000010)
 12:    878.32   0.000044    0.22  0.000016  (-0.000057 -0.003953  0.000017)
 13:    907.68   0.001583    8.00  0.000544  ( 0.022982 -0.000021 -0.004022)
 14:   1080.37   0.000074    0.37  0.000021  (-0.000014 -0.004630  0.000003)
 15:   1111.54   0.000781    3.95  0.000219  ( 0.005336  0.000018 -0.013814)
 16:   1250.33   0.012221   61.76  0.003050  (-0.055207 -0.000004  0.001560)
 17:   1373.17   0.004578   23.13  0.001040  ( 0.000001  0.032253 -0.000024)
 18:   1382.77   0.016058   81.15  0.003624  ( 0.059731 -0.000030 -0.007497)
 19:   1449.84   0.004972   25.13  0.001070  ( 0.000042  0.032713 -0.000009)
 20:   1450.51   0.000170    0.86  0.000036  (-0.005486  0.000092 -0.002524)
 21:   1461.58   0.002426   12.26  0.000518  ( 0.000005 -0.022760 -0.000035)
 22:   1478.79   0.004353   22.00  0.000919  ( 0.004979 -0.000012  0.029897)
 23:   1695.95   0.032756  165.54  0.006027  (-0.000009  0.077635 -0.000008)
 24:   3004.07   0.000203    1.03  0.000021  (-0.004193  0.000004  0.001868)
 25:   3009.42   0.001109    5.60  0.000115  (-0.000004  0.010723 -0.000010)
 26:   3073.50   0.000543    2.74  0.000055  ( 0.000004 -0.007425  0.000097)
 27:   3078.68   0.002744   13.87  0.000278  (-0.003520 -0.000065 -0.016302)
 28:   3131.61   0.002025   10.23  0.000202  ( 0.014200 -0.000069  0.000334)
 29:   3132.92   0.001545    7.81  0.000154  (-0.000081 -0.012404 -0.000006)

--------------------------
THERMOCHEMISTRY AT 298.15K
--------------------------

Temperature         ...   298.15 K
Pressure            ...     1.00 atm
Total Mass          ...    58.08 AMU
Quasi RRHO          ...     True
Cut-Off Frequency   ...     1.00 cm^-1

Throughout the following assumptions are being made:
  (1) The electronic state is orbitally nondegenerate
  (2) There are no thermally accessible electronically excited states
  (3) Hindered rotations indicated by low frequency modes are not
      treated as such but are treated as vibrations and this may
      cause some error
  (4) All equations used are the standard statistical mechanics
      equations for an ideal gas
  (5) All vibrations are strictly harmonic

freq.     141.61  E(vib)   ...       0.41
freq.     160.84  E(vib)   ...       0.39
freq.     386.07  E(vib)   ...       0.20
freq.     500.10  E(vib)   ...       0.14
freq.     545.09  E(vib)   ...       0.12
freq.     804.27  E(vib)   ...       0.05
freq.     878.32  E(vib)   ...       0.04
freq.     907.68  E(vib)   ...       0.03
freq.    1080.37  E(vib)   ...       0.02
freq.    1111.54  E(vib)   ...       0.01
freq.    1250.33  E(vib)   ...       0.01
freq.    1373.17  E(vib)   ...       0.01
freq.    1382.77  E(vib)   ...       0.01
freq.    1449.84  E(vib)   ...       0.00
freq.    1450.51  E(vib)   ...       0.00
freq.    1461.58  E(vib)   ...       0.00
freq.    1478.79  E(vib)   ...       0.00
freq.    1695.95  E(vib)   ...       0.00
freq.    3004.07  E(vib)   ...       0.00
freq.    3009.42  E(vib)   ...       0.00
freq.    3073.50  E(vib)   ...       0.00
freq.    3078.68  E(vib)   ...       0.00
freq.    3131.61  E(vib)   ...       0.00
freq.    3132.92  E(vib)   ...       0.00

------------
INNER ENERGY
------------

The inner energy is: U= E(el) + E(ZPE) + E(vib) + E(rot) + E(trans)
    E(el)   - is the total energy from the electronic structure calculation
              = E(kin-el) + E(nuc-el) + E(el-el) + E(nuc-nuc)
    E(ZPE)  - the the zero temperature vibrational energy from the frequency calculation
    E(vib)  - the the finite temperature correction to E(ZPE) due to population
              of excited vibrational states
    E(rot)  - is the rotational thermal energy
    E(trans)- is the translational thermal energy

Summary of contributions to the inner energy U:
Electronic energy                ...   -193.11846747 Eh
Zero point energy                ...      0.08312812 Eh      52.16 kcal/mol
Thermal vibrational correction   ...      0.00231723 Eh       1.45 kcal/mol
Thermal rotational correction    ...      0.00141627 Eh       0.89 kcal/mol
Thermal translational correction ...      0.00141627 Eh       0.89 kcal/mol
-----------------------------------------------------------------------
Total thermal energy                   -193.03018958 Eh

Summary of corrections to the electronic energy:
(perhaps to be used in another calculation)
Total thermal correction                  0.00514978 Eh       3.23 kcal/mol
Non-thermal (ZPE) correction              0.08312812 Eh      52.16 kcal/mol
-----------------------------------------------------------------------
Total correction                          0.08827789 Eh      55.40 kcal/mol

--------
ENTHALPY
--------

The enthalpy is H = U + kB*T
                kB is Boltzmann's constant
Total thermal energy              ...   -193.03018958 Eh
Thermal Enthalpy correction       ...      0.00094421 Eh       0.59 kcal/mol
-----------------------------------------------------------------------
Total Enthalpy                    ...   -193.02924537 Eh

Note: Only C1 symmetry has been detected, increase convergence thresholds
      if your molecule has a higher symmetry. Symmetry factor of 1.0 is
      used for the rotational entropy correction.

Note: Rotational entropy computed according to Herzberg
Infrared and Raman Spectra, Chapter V,1, Van Nostrand Reinhold, 1945
Point Group:  C1, Symmetry Number:   1
Rotational constants in cm-1:     0.336828     0.289022     0.165017

Vibrational entropy computed according to the QRRHO of S. Grimme
Chem.Eur.J. 2012 18 9955 using a reference frequency of 100.0 cm-1

-------
ENTROPY
-------

The entropy contributions are T*S = T*(S(el)+S(vib)+S(rot)+S(trans))
     S(el)   - electronic entropy
     S(vib)  - vibrational entropy
     S(rot)  - rotational entropy
     S(trans)- translational entropy
The entropies will be listed as multiplied by the temperature to get
units of energy

Electronic entropy                ...      0.00000000 Eh      0.00 kcal/mol
Vibrational entropy               ...      0.00391095 Eh      2.45 kcal/mol
Rotational entropy                ...      0.01146108 Eh      7.19 kcal/mol
Translational entropy             ...      0.01810171 Eh     11.36 kcal/mol
-----------------------------------------------------------------------
Final entropy term                ...      0.03347374 Eh     21.01 kcal/mol

In case the symmetry of your molecule has not been determined correctly
or in case you have a reason to use a different symmetry number we print
out the resulting rotational entropy values for sn=1,12:

 non-linear molecules -----------------------------------
|  sn= 1 | S(rot)=       0.01146108 Eh      7.19 kcal/mol|
|  sn= 2 | S(rot)=       0.01080663 Eh      6.78 kcal/mol|
|  sn= 3 | S(rot)=       0.01042379 Eh      6.54 kcal/mol|
|  sn= 4 | S(rot)=       0.01015217 Eh      6.37 kcal/mol|
|  sn= 5 | S(rot)=       0.00994148 Eh      6.24 kcal/mol|
|  sn= 6 | S(rot)=       0.00976934 Eh      6.13 kcal/mol|
|  sn= 7 | S(rot)=       0.00962379 Eh      6.04 kcal/mol|
|  sn= 8 | S(rot)=       0.00949771 Eh      5.96 kcal/mol|
|  sn= 9 | S(rot)=       0.00938651 Eh      5.89 kcal/mol|
|  sn=10 | S(rot)=       0.00928703 Eh      5.83 kcal/mol|
|  sn=11 | S(rot)=       0.00919704 Eh      5.77 kcal/mol|
|  sn=12 | S(rot)=       0.00911488 Eh      5.72 kcal/mol|
 linear molecules ---------------------------------------
|  Dinfh | S(rot)=       0.00702694 Eh      4.41 kcal/mol|
|  Cinfv | S(rot)=       0.00768140 Eh      4.82 kcal/mol|
 --------------------------------------------------------

-------------------
GIBBS FREE ENERGY
-------------------

The Gibbs free energy is G = H - T*S

Total enthalpy                    ...   -193.02924537 Eh
Total entropy correction          ...     -0.03347374 Eh    -21.01 kcal/mol
-----------------------------------------------------------------------
Final Gibbs free energy         ...   -193.06271911 Eh

For completeness - the Gibbs free energy minus the electronic energy
G-E(el)                           ...      0.05574836 Eh     34.98 kcal/mol

                             ****ORCA TERMINATED NORMALLY****
TOTAL RUN TIME: 0 days 0 hours 2 minutes 21 seconds 711 msec
