                         Program Version 6.0.0  -   RELEASE  -
|  1> ! r2SCAN-3c DEF2-TZVP FREQ
|  2> * xyzfile 0 1 vacuum_censo.xyz
|  3>
|  4>                          ****END OF INPUT****

CARTESIAN COORDINATES (ANGSTROEM)
---------------------------------
  C     -1.283869    0.700106   -0.005007
  C      0.000001   -0.101018   -0.000035
  O     -0.000107   -1.313803   -0.000104
  C      1.283990    0.699900    0.005042
  H     -1.237974    1.512971   -0.737160
  H     -2.134443    0.049319   -0.209345
  H     -1.416182    1.166680    0.978626
  H      2.134556    0.048824    0.208485
  H      1.238467    1.512076    0.737991
  H      1.415966    1.167424   -0.978181

 Total Charge           Charge          ....    0
 Multiplicity           Mult            ....    1
 Number of Electrons    NEL             ....   32
 Basis Dimension        Dim             ....  160

ORBITAL ENERGIES
----------------

  NO   OCC          E(Eh)            E(eV)
   0   2.0000     -18.939445      -515.3685
   1   2.0000     -10.124046      -275.4893
   2   2.0000     -10.039926      -273.2003
   3   2.0000     -10.039922      -273.2002
   4   2.0000      -1.004619       -27.3371
   5   2.0000      -0.739653       -20.1270
   6   2.0000      -0.680688       -18.5225
   7   2.0000      -0.503529       -13.7017
   8   2.0000      -0.432948       -11.7811
   9   2.0000      -0.429137       -11.6774
  10   2.0000      -0.421707       -11.4752
  11   2.0000      -0.377008       -10.2589
  12   2.0000      -0.365973        -9.9586
  13   2.0000      -0.351606        -9.5677
  14   2.0000      -0.325170        -8.8483
  15   2.0000      -0.217800        -5.9266
  16   0.0000      -0.046581        -1.2675
  17   0.0000       0.038764         1.0548
  18   0.0000       0.097784         2.6608
  19   0.0000       0.102416         2.7869
  20   0.0000       0.110586         3.0092

MULLIKEN ATOMIC CHARGES
-----------------------
   0 C :   -0.310014
   1 C :    0.207952
   2 O :   -0.318683
   3 C :   -0.310009
   4 H :    0.113647
   5 H :    0.128591
   6 H :    0.123142
   7 H :    0.128585
   8 H :    0.113660
   9 H :    0.123130
Sum of atomic charges:   -0.0000000

LOEWDIN ATOMIC CHARGES
----------------------
   0 C :   -0.268428
   1 C :   -0.385302
   2 O :    0.121347
   3 C :   -0.268427
   4 H :    0.131276
   5 H :    0.130820
   6 H :    0.138310
   7 H :    0.130814
   8 H :    0.131296
   9 H :    0.138295

  Mayer bond orders larger than 0.100000
B(  0-C ,  1-C ) :   0.9573 B(  0-C ,  4-H ) :   0.9490 B(  0-C ,  5-H ) :   0.9690
B(  0-C ,  6-H ) :   0.9417 B(  1-C ,  2-O ) :   2.0847 B(  1-C ,  3-C ) :   0.9573
B(  3-C ,  7-H ) :   0.9690 B(  3-C ,  8-H ) :   0.9490 B(  3-C ,  9-H ) :   0.9417

Dispersion correction           -0.001715585
FINAL SINGLE POINT ENERGY      -193.119066915352

DIPOLE MOMENT
-------------

Method             : SCF
Type of density    : Electron Density
Multiplicity       :   1
Irrep              :   0
Energy             :  -193.1220125817705480 Eh
Relativity type    :
Basis              : AO
                                X                 Y                 Z
Electronic contribution:     -0.000266645      -3.908970883      -0.000380389
Nuclear contribution   :      0.000350543       5.092352755       0.000509192
                        -----------------------------------------
Total Dipole Moment    :      0.000083897       1.183381872       0.000128804
                        -----------------------------------------
Magnitude (a.u.)       :      1.183381882
Magnitude (Debye)      :      3.007917700

VIBRATIONAL FREQUENCIES
-----------------------

Scaling factor for frequencies =  1.000000000  (already applied!)

     0:       0.00 cm**-1
     1:       0.00 cm**-1
     2:       0.00 cm**-1
     3:       0.00 cm**-1
     4:       0.00 cm**-1
     5:       0.00 cm**-1
     6:     117.50 cm**-1
     7:     139.48 cm**-1
     8:     383.78 cm**-1
     9:     486.84 cm**-1
    10:     535.88 cm**-1
    11:     780.62 cm**-1
    12:     870.17 cm**-1
    13:     884.59 cm**-1
    14:    1078.32 cm**-1
    15:    1107.62 cm**-1
    16:    1225.94 cm**-1
    17:    1368.02 cm**-1
    18:    1369.80 cm**-1
    19:    1450.36 cm**-1
    20:    1452.00 cm**-1
    21:    1461.67 cm**-1
    22:    1477.54 cm**-1
    23:    1770.51 cm**-1
    24:    3009.02 cm**-1
    25:    3014.18 cm**-1
    26:    3077.66 cm**-1
    27:    3082.93 cm**-1
    28:    3135.64 cm**-1
    29:    3136.84 cm**-1

IR SPECTRUM
-----------

 Mode   freq       eps      Int      T**2         TX        TY        TZ
       cm**-1   L/(mol*cm) km/mol    a.u.
----------------------------------------------------------------------------
  6:    117.50   0.000009    0.05  0.000024  ( 0.000012  0.004901  0.000027)
  7:    139.48   0.000008    0.04  0.000019  (-0.002998  0.000000 -0.003113)
  8:    383.78   0.000336    1.70  0.000273  ( 0.000001  0.016533  0.000001)
  9:    486.84   0.000079    0.40  0.000050  (-0.005602 -0.000007  0.004370)
 10:    535.88   0.002434   12.30  0.001417  (-0.037626 -0.000003 -0.001317)
 11:    780.62   0.000496    2.51  0.000198  ( 0.000004 -0.014081 -0.000005)
 12:    870.17   0.000027    0.14  0.000010  ( 0.000068 -0.003102 -0.000013)
 13:    884.59   0.002323   11.74  0.000820  ( 0.028370  0.000013 -0.003845)
 14:   1078.32   0.000004    0.02  0.000001  ( 0.000006 -0.001066 -0.000001)
 15:   1107.62   0.000708    3.58  0.000199  ( 0.004029 -0.000006 -0.013536)
 16:   1225.94   0.015800   79.85  0.004022  (-0.063405  0.000001  0.001354)
 17:   1368.02   0.004165   21.05  0.000950  (-0.000018  0.030822  0.000016)
 18:   1369.80   0.013002   65.71  0.002962  (-0.054132 -0.000020  0.005637)
 19:   1450.36   0.000121    0.61  0.000026  (-0.004177  0.000003 -0.002936)
 20:   1452.00   0.003210   16.22  0.000690  (-0.000007  0.026265  0.000006)
 21:   1461.67   0.002894   14.63  0.000618  (-0.000003 -0.024857  0.000017)
 22:   1477.54   0.004204   21.25  0.000888  (-0.002459 -0.000010 -0.029697)
 23:   1770.51   0.036390  183.90  0.006414  (-0.000007 -0.080087 -0.000007)
 24:   3009.02   0.000262    1.33  0.000027  (-0.005088 -0.000010  0.001145)
 25:   3014.18   0.001154    5.83  0.000119  ( 0.000003 -0.010931 -0.000006)
 26:   3077.66   0.000393    1.99  0.000040  ( 0.000000 -0.006315 -0.000042)
 27:   3082.93   0.002881   14.56  0.000292  (-0.002561  0.000028 -0.016884)
 28:   3135.64   0.002377   12.01  0.000237  (-0.015349 -0.000045 -0.000963)
 29:   3136.84   0.001504    7.60  0.000150  (-0.000058  0.012231 -0.000003)

--------------------------
THERMOCHEMISTRY AT 298.15K
--------------------------

Temperature         ...   298.15 K
Pressure            ...     1.00 atm
Total Mass          ...    58.08 AMU
Quasi RRHO          ...     True
Cut-Off Frequency   ...     1.00 cm^-1

Throughout the following assumptions are being made:
  (1) The electronic state is orbitally nondegenerate
  (2) There are no thermally accessible electronically excited states
  (3) Hindered rotations indicated by low frequency modes are not
      treated as such but are treated as vibrations and this may
      cause some error
  (4) All equations used are the standard statistical mechanics
      equations for an ideal gas
  (5) All vibrations are strictly harmonic

freq.     117.50  E(vib)   ...       0.44
freq.     139.48  E(vib)   ...       0.42
freq.     383.78  E(vib)   ...       0.20
freq.     486.84  E(vib)   ...       0.15
freq.     535.88  E(vib)   ...       0.12
freq.     780.62  E(vib)   ...       0.05
freq.     870.17  E(vib)   ...       0.04
freq.     884.59  E(vib)   ...       0.04
freq.    1078.32  E(vib)   ...       0.02
freq.    1107.62  E(vib)   ...       0.02
freq.    1225.94  E(vib)   ...       0.01
freq.    1368.02  E(vib)   ...       0.01
freq.    1369.80  E(vib)   ...       0.01
freq.    1450.36  E(vib)   ...       0.00
freq.    1452.00  E(vib)   ...       0.00
freq.    1461.67  E(vib)   ...       0.00
freq.    1477.54  E(vib)   ...       0.00
freq.    1770.51  E(vib)   ...       0.00
freq.    3009.02  E(vib)   ...       0.00
freq.    3014.18  E(vib)   ...       0.00
freq.    3077.66  E(vib)   ...       0.00
freq.    3082.93  E(vib)   ...       0.00
freq.    3135.64  E(vib)   ...       0.00
freq.    3136.84  E(vib)   ...       0.00

------------
INNER ENERGY
------------

The inner energy is: U= E(el) + E(ZPE) + E(vib) + E(rot) + E(trans)
    E(el)   - is the total energy from the electronic structure calculation
              = E(kin-el) + E(nuc-el) + E(el-el) + E(nuc-nuc)
    E(ZPE)  - the the zero temperature vibrational energy from the frequency calculation
    E(vib)  - the the finite temperature correction to E(ZPE) due to population
              of excited vibrational states
    E(rot)  - is the rotational thermal energy
    E(trans)- is the translational thermal energy

Summary of contributions to the inner energy U:
Electronic energy                ...   -193.11906692 Eh
Zero point energy                ...      0.08296380 Eh      52.06 kcal/mol
Thermal vibrational correction   ...      0.00243194 Eh       1.53 kcal/mol
Thermal rotational correction    ...      0.00141627 Eh       0.89 kcal/mol
Thermal translational correction ...      0.00141627 Eh       0.89 kcal/mol
-----------------------------------------------------------------------
Total thermal energy                   -193.03083863 Eh

Summary of corrections to the electronic energy:
(perhaps to be used in another calculation)
Total thermal correction                  0.00526448 Eh       3.30 kcal/mol
Non-thermal (ZPE) correction              0.08296380 Eh      52.06 kcal/mol
-----------------------------------------------------------------------
Total correction                          0.08822829 Eh      55.36 kcal/mol

--------
ENTHALPY
--------

The enthalpy is H = U + kB*T
                kB is Boltzmann's constant
Total thermal energy              ...   -193.03083863 Eh
Thermal Enthalpy correction       ...      0.00094421 Eh       0.59 kcal/mol
-----------------------------------------------------------------------
Total Enthalpy                    ...   -193.02989442 Eh

Note: Only C1 symmetry has been detected, increase convergence thresholds
      if your molecule has a higher symmetry. Symmetry factor of 1.0 is
      used for the rotational entropy correction.

Note: Rotational entropy computed according to Herzberg
Infrared and Raman Spectra, Chapter V,1, Van Nostrand Reinhold, 1945
Point Group:  C1, Symmetry Number:   1
Rotational constants in cm-1:     0.337243     0.285561     0.164001

Vibrational entropy computed according to the QRRHO of S. Grimme
Chem.Eur.J. 2012 18 9955 using a reference frequency of 100.0 cm-1

-------
ENTROPY
-------

The entropy contributions are T*S = T*(S(el)+S(vib)+S(rot)+S(trans))
     S(el)   - electronic entropy
     S(vib)  - vibrational entropy
     S(rot)  - rotational entropy
     S(trans)- translational entropy
The entropies will be listed as multiplied by the temperature to get
units of energy

Electronic entropy                ...      0.00000000 Eh      0.00 kcal/mol
Vibrational entropy               ...      0.00419451 Eh      2.63 kcal/mol
Rotational entropy                ...      0.01146911 Eh      7.20 kcal/mol
Translational entropy             ...      0.01810171 Eh     11.36 kcal/mol
-----------------------------------------------------------------------
Final entropy term                ...      0.03376533 Eh     21.19 kcal/mol

In case the symmetry of your molecule has not been determined correctly
or in case you have a reason to use a different symmetry number we print
out the resulting rotational entropy values for sn=1,12:

 non-linear molecules -----------------------------------
|  sn= 1 | S(rot)=       0.01146911 Eh      7.20 kcal/mol|
|  sn= 2 | S(rot)=       0.01081465 Eh      6.79 kcal/mol|
|  sn= 3 | S(rot)=       0.01043182 Eh      6.55 kcal/mol|
|  sn= 4 | S(rot)=       0.01016019 Eh      6.38 kcal/mol|
|  sn= 5 | S(rot)=       0.00994950 Eh      6.24 kcal/mol|
|  sn= 6 | S(rot)=       0.00977736 Eh      6.14 kcal/mol|
|  sn= 7 | S(rot)=       0.00963181 Eh      6.04 kcal/mol|
|  sn= 8 | S(rot)=       0.00950574 Eh      5.96 kcal/mol|
|  sn= 9 | S(rot)=       0.00939453 Eh      5.90 kcal/mol|
|  sn=10 | S(rot)=       0.00929505 Eh      5.83 kcal/mol|
|  sn=11 | S(rot)=       0.00920506 Eh      5.78 kcal/mol|
|  sn=12 | S(rot)=       0.00912290 Eh      5.72 kcal/mol|
 linear molecules ---------------------------------------
|  Dinfh | S(rot)=       0.00703278 Eh      4.41 kcal/mol|
|  Cinfv | S(rot)=       0.00768723 Eh      4.82 kcal/mol|
 --------------------------------------------------------

-------------------
GIBBS FREE ENERGY
-------------------

The Gibbs free energy is G = H - T*S

Total enthalpy                    ...   -193.02989442 Eh
Total entropy correction          ...     -0.03376533 Eh    -21.19 kcal/mol
-----------------------------------------------------------------------
Final Gibbs free energy         ...   -193.06365975 Eh

For completeness - the Gibbs free energy minus the electronic energy
G-E(el)                           ...      0.05540717 Eh     34.77 kcal/mol

                             ****ORCA TERMINATED NORMALLY****
TOTAL RUN TIME: 0 days 0 hours 2 minutes 22 seconds 476 msec
