                         Program Version 6.0.1  -  RELEASE   -
|  1> ! r2scan-3c def2/J RI DEFGRID2 scfconv6 printgap
|  2> %output
|  3>     printlevel normal
|  4> end
|  5> * xyz 0 1
|  6> C -2.1509953876 -0.9316290078 -0.2430179259
|  7> C -1.1533161183 -0.3558848375 0.7869261432
|  8> H -1.6787496804 -0.3931686807 1.7531291684
|  9> C -0.7584374059 1.1143752992 0.5371342938
| 10> H -1.6320437168 1.6442778905 0.1268736332
| 11> C 0.4119260054 1.2821654944 -0.4512636947
| 12> H 0.7931434329 2.3050355985 -0.3278105831
| 13> C 1.5630401237 0.3310597603 -0.0535467129
| 14> H 2.3009160624 0.3213737834 -0.8661593069
| 15> C 1.0647698314 -1.114698193 0.1688634364
| 16> H 1.851443287 -1.6684441953 0.7058277436
| 17> O -0.0337790988 -1.20472597 1.0135944554
| 18> O 0.7851059717 -1.7743111632 -1.0565875462
| 19> O 2.2359875811 0.7867971864 1.086125064
| 20> O 0.0341956981 1.1596832382 -1.7877299342
| 21> O -0.3379116136 1.7237778659 1.7435313702
| 22> O -1.7034985158 -0.9396703549 -1.5707268377
| 23> H -3.0582452404 -0.3220397053 -0.2258965413
| 24> H -2.4015464403 -1.9498109325 0.0799177769
| 25> H 1.4833683941 -1.5783759565 -1.6901737359
| 26> H 1.5727445753 1.0850016908 1.7272226729
| 27> H -0.6418482682 0.4568110763 -1.8804182132
| 28> H -1.0448588353 1.6782402831 2.3969990151
| 29> H -0.9113279774 -1.5126277782 -1.6020622278
| 30> *
| 31>
| 32>                          ****END OF INPUT****

CARTESIAN COORDINATES (ANGSTROEM)
---------------------------------
  C     -2.150995   -0.931629   -0.243018
  C     -1.153316   -0.355885    0.786926
  H     -1.678750   -0.393169    1.753129
  C     -0.758437    1.114375    0.537134
  H     -1.632044    1.644278    0.126874
  C      0.411926    1.282165   -0.451264
  H      0.793143    2.305036   -0.327811
  C      1.563040    0.331060   -0.053547
  H      2.300916    0.321374   -0.866159
  C      1.064770   -1.114698    0.168863
  H      1.851443   -1.668444    0.705828
  O     -0.033779   -1.204726    1.013594
  O      0.785106   -1.774311   -1.056588
  O      2.235988    0.786797    1.086125
  O      0.034196    1.159683   -1.787730
  O     -0.337912    1.723778    1.743531
  O     -1.703499   -0.939670   -1.570727
  H     -3.058245   -0.322040   -0.225897
  H     -2.401546   -1.949811    0.079918
  H      1.483368   -1.578376   -1.690174
  H      1.572745    1.085002    1.727223
  H     -0.641848    0.456811   -1.880418
  H     -1.044859    1.678240    2.396999
  H     -0.911328   -1.512628   -1.602062

 Total Charge           Charge          ....    0
 Multiplicity           Mult            ....    1
 Number of Electrons    NEL             ....   96
 Basis Dimension        Dim             ....  318

ORBITAL ENERGIES
----------------

  NO   OCC          E(Eh)            E(eV)
   0   2.0000     -18.984624      -516.5979
   1   2.0000     -18.982449      -516.5387
   2   2.0000     -18.982358      -516.5362
   3   2.0000     -18.965327      -516.0728
   4   2.0000     -18.947343      -515.5834
   5   2.0000     -18.940840      -515.4065
   6   2.0000     -10.144098      -276.0349
   7   2.0000     -10.107658      -275.0434
   8   2.0000     -10.106618      -275.0151
   9   2.0000     -10.095084      -274.7012
  10   2.0000     -10.090838      -274.5857
  11   2.0000     -10.088952      -274.5343
  12   2.0000      -1.061183       -28.8763
  13   2.0000      -1.023292       -27.8452
  14   2.0000      -1.007775       -27.4229
  15   2.0000      -0.996711       -27.1219
  16   2.0000      -0.992742       -27.0139
  17   2.0000      -0.981014       -26.6947
  18   2.0000      -0.761144       -20.7118
  19   2.0000      -0.732113       -19.9218
  20   2.0000      -0.671585       -18.2748
  21   2.0000      -0.634311       -17.2605
  22   2.0000      -0.615010       -16.7353
  23   2.0000      -0.552311       -15.0292
  24   2.0000      -0.523910       -14.2563
  25   2.0000      -0.517508       -14.0821
  26   2.0000      -0.506643       -13.7864
  27   2.0000      -0.494329       -13.4514
  28   2.0000      -0.471255       -12.8235
  29   2.0000      -0.459691       -12.5088
  30   2.0000      -0.445988       -12.1360
  31   2.0000      -0.436005       -11.8643
  32   2.0000      -0.417187       -11.3522
  33   2.0000      -0.403886       -10.9903
  34   2.0000      -0.387663       -10.5488
  35   2.0000      -0.372360       -10.1324
  36   2.0000      -0.370099       -10.0709
  37   2.0000      -0.357774        -9.7355
  38   2.0000      -0.340847        -9.2749
  39   2.0000      -0.324584        -8.8324
  40   2.0000      -0.310240        -8.4421
  41   2.0000      -0.297531        -8.0962
  42   2.0000      -0.282781        -7.6949
  43   2.0000      -0.273379        -7.4390
  44   2.0000      -0.267015        -7.2659
  45   2.0000      -0.255221        -6.9449
  46   2.0000      -0.240335        -6.5398
  47   2.0000      -0.216855        -5.9009
  48   0.0000       0.025677         0.6987
  49   0.0000       0.035770         0.9734
  50   0.0000       0.055622         1.5136
  51   0.0000       0.073498         2.0000
  52   0.0000       0.080900         2.2014

MULLIKEN ATOMIC CHARGES
-----------------------
   0 C :   -0.226240
   1 C :    0.025513
   2 H :    0.142921
   3 C :   -0.132621
   4 H :    0.162043
   5 C :    0.004733
   6 H :    0.167759
   7 C :   -0.146339
   8 H :    0.154568
   9 C :   -0.011199
  10 H :    0.151490
  11 O :   -0.167295
  12 O :   -0.403353
  13 O :   -0.392860
  14 O :   -0.417710
  15 O :   -0.408171
  16 O :   -0.458762
  17 H :    0.144339
  18 H :    0.150719
  19 H :    0.313305
  20 H :    0.334639
  21 H :    0.365735
  22 H :    0.292492
  23 H :    0.354293
Sum of atomic charges:    0.0000000

LOEWDIN ATOMIC CHARGES
----------------------
   0 C :    0.026146
   1 C :    0.097125
   2 H :    0.199230
   3 C :    0.113771
   4 H :    0.186437
   5 C :    0.121068
   6 H :    0.206612
   7 C :    0.108879
   8 H :    0.193573
   9 C :    0.299337
  10 H :    0.207790
  11 O :   -0.629788
  12 O :   -0.541156
  13 O :   -0.562291
  14 O :   -0.578135
  15 O :   -0.599775
  16 O :   -0.613543
  17 H :    0.183739
  18 H :    0.176065
  19 H :    0.279131
  20 H :    0.284419
  21 H :    0.283281
  22 H :    0.272071
  23 H :    0.286014

  Mayer bond orders larger than 0.100000
B(  0-C ,  1-C ) :   0.9060 B(  0-C , 16-O ) :   1.0138 B(  0-C , 17-H ) :   0.9775
B(  0-C , 18-H ) :   0.9727 B(  1-C ,  2-H ) :   0.9466 B(  1-C ,  3-C ) :   0.8369
B(  1-C , 11-O ) :   0.8791 B(  3-C ,  4-H ) :   0.9668 B(  3-C ,  5-C ) :   0.8534
B(  3-C , 15-O ) :   0.9002 B(  5-C ,  6-H ) :   0.9817 B(  5-C ,  7-C ) :   0.8496
B(  5-C , 14-O ) :   1.0212 B(  7-C ,  8-H ) :   0.9880 B(  7-C ,  9-C ) :   0.9043
B(  7-C , 13-O ) :   0.9902 B(  9-C , 10-H ) :   0.9619 B(  9-C , 11-O ) :   1.0732
B(  9-C , 12-O ) :   0.8323 B( 12-O , 19-H ) :   0.8867 B( 13-O , 20-H ) :   0.8364
B( 14-O , 21-H ) :   0.7802 B( 15-O , 22-H ) :   0.8979 B( 16-O , 23-H ) :   0.7959

Dispersion correction           -0.008880566
FINAL SINGLE POINT ENERGY      -687.073685643422

DIPOLE MOMENT
-------------

Method             : SCF
Type of density    : Electron Density
Multiplicity       :   1
Irrep              :   0
Energy             :  -687.0876211419680430 Eh
Relativity type    :
Basis              : AO
                                X                 Y                 Z
Electronic contribution:      2.388308888      -0.342176212       0.374393723
Nuclear contribution   :     -3.144303239       0.058494769       0.176770300
                        -----------------------------------------
Total Dipole Moment    :     -0.755994351      -0.283681442       0.551164023
                        -----------------------------------------
Magnitude (a.u.)       :      0.977642265
Magnitude (Debye)      :      2.484969155

Rotational constants in cm-1:             0.040465             0.031341             0.027681
Rotational constants in MHz :          1213.110786           939.579068           829.868477

                             ****ORCA TERMINATED NORMALLY****
TOTAL RUN TIME: 0 days 0 hours 0 minutes 46 seconds 19 msec
