                         Program Version 6.0.1  -  RELEASE   -
|  1> ! pbe def2-sv(p) def2/J RI DEFGRID1 loosescf d4 GCP(DFT/SV(P)) printgap
|  2> %output
|  3>     printlevel normal
|  4> end
|  5> * xyz 0 1
|  6> C -2.033752808 -1.4111649226 -0.1334564885
|  7> C -1.0094488617 -0.5259652957 0.6031131251
|  8> H -1.4716578042 -0.1948301138 1.5449203549
|  9> C -0.6528562313 0.7092241346 -0.2369082426
| 10> H -0.5691984832 0.441482879 -1.2971847866
| 11> C 0.7024605992 1.2482111129 0.2318161172
| 12> H 0.6898375795 1.3701695865 1.3291164342
| 13> C 1.7722907848 0.2111464219 -0.1343407243
| 14> H 1.974595061 0.2957432045 -1.2129017864
| 15> C 1.240499046 -1.2120098537 0.1270844498
| 16> H 2.0238127726 -1.769627032 0.6597098441
| 17> O 0.1453168857 -1.2497291505 1.001637174
| 18> O 0.9421585905 -1.7881610547 -1.1090586902
| 19> O 2.9475300293 0.3874255938 0.606784133
| 20> O 1.0094903088 2.4782195313 -0.3764470883
| 21> O -1.6516259219 1.70381591 -0.187082107
| 22> O -3.2787666143 -0.7740794371 -0.2351119806
| 23> H -2.1988816933 -2.3256823357 0.4410283046
| 24> H -1.6418984332 -1.6768470056 -1.1256128383
| 25> H 0.7068947522 -2.7147466364 -0.9765444197
| 26> H 3.2318901382 1.3024612197 0.4889171925
| 27> H 0.175859627 2.8926017752 -0.6398685571
| 28> H -1.8109657943 1.9476289099 0.7341484375
| 29> H -3.1502772598 0.0924047356 -0.6446584844
| 30> *
| 31>
| 32>                          ****END OF INPUT****

CARTESIAN COORDINATES (ANGSTROEM)
---------------------------------
  C     -2.033753   -1.411165   -0.133456
  C     -1.009449   -0.525965    0.603113
  H     -1.471658   -0.194830    1.544920
  C     -0.652856    0.709224   -0.236908
  H     -0.569198    0.441483   -1.297185
  C      0.702461    1.248211    0.231816
  H      0.689838    1.370170    1.329116
  C      1.772291    0.211146   -0.134341
  H      1.974595    0.295743   -1.212902
  C      1.240499   -1.212010    0.127084
  H      2.023813   -1.769627    0.659710
  O      0.145317   -1.249729    1.001637
  O      0.942159   -1.788161   -1.109059
  O      2.947530    0.387426    0.606784
  O      1.009490    2.478220   -0.376447
  O     -1.651626    1.703816   -0.187082
  O     -3.278767   -0.774079   -0.235112
  H     -2.198882   -2.325682    0.441028
  H     -1.641898   -1.676847   -1.125613
  H      0.706895   -2.714747   -0.976544
  H      3.231890    1.302461    0.488917
  H      0.175860    2.892602   -0.639869
  H     -1.810966    1.947629    0.734148
  H     -3.150277    0.092405   -0.644658

 Total Charge           Charge          ....    0
 Multiplicity           Mult            ....    1
 Number of Electrons    NEL             ....   96
 Basis Dimension        Dim             ....  192

ORBITAL ENERGIES
----------------

  NO   OCC          E(Eh)            E(eV)
   0   2.0000     -18.790059      -511.3035
   1   2.0000     -18.775745      -510.9140
   2   2.0000     -18.770998      -510.7848
   3   2.0000     -18.755639      -510.3669
   4   2.0000     -18.753019      -510.2956
   5   2.0000     -18.745137      -510.0811
   6   2.0000      -9.989870      -271.8382
   7   2.0000      -9.958526      -270.9853
   8   2.0000      -9.951929      -270.8058
   9   2.0000      -9.946208      -270.6501
  10   2.0000      -9.942691      -270.5544
  11   2.0000      -9.930641      -270.2265
  12   2.0000      -0.990324       -26.9481
  13   2.0000      -0.969413       -26.3791
  14   2.0000      -0.940334       -25.5878
  15   2.0000      -0.925312       -25.1790
  16   2.0000      -0.922567       -25.1043
  17   2.0000      -0.918247       -24.9868
  18   2.0000      -0.713734       -19.4217
  19   2.0000      -0.697435       -18.9782
  20   2.0000      -0.621346       -16.9077
  21   2.0000      -0.598700       -16.2915
  22   2.0000      -0.571586       -15.5536
  23   2.0000      -0.529680       -14.4133
  24   2.0000      -0.517058       -14.0699
  25   2.0000      -0.498797       -13.5729
  26   2.0000      -0.491392       -13.3714
  27   2.0000      -0.459168       -12.4946
  28   2.0000      -0.441210       -12.0059
  29   2.0000      -0.431527       -11.7424
  30   2.0000      -0.414117       -11.2687
  31   2.0000      -0.407725       -11.0948
  32   2.0000      -0.390510       -10.6263
  33   2.0000      -0.379532       -10.3276
  34   2.0000      -0.368753       -10.0343
  35   2.0000      -0.362863        -9.8740
  36   2.0000      -0.346113        -9.4182
  37   2.0000      -0.319010        -8.6807
  38   2.0000      -0.315531        -8.5860
  39   2.0000      -0.305419        -8.3109
  40   2.0000      -0.296934        -8.0800
  41   2.0000      -0.266495        -7.2517
  42   2.0000      -0.265232        -7.2173
  43   2.0000      -0.249840        -6.7985
  44   2.0000      -0.244821        -6.6619
  45   2.0000      -0.225627        -6.1396
  46   2.0000      -0.220693        -6.0054
  47   2.0000      -0.204955        -5.5771
  48   0.0000       0.002262         0.0616
  49   0.0000       0.021798         0.5932
  50   0.0000       0.031711         0.8629
  51   0.0000       0.041434         1.1275
  52   0.0000       0.062610         1.7037

MULLIKEN ATOMIC CHARGES
-----------------------
   0 C :    0.063748
   1 C :    0.059166
   2 H :    0.060987
   3 C :   -0.059706
   4 H :    0.089087
   5 C :    0.038821
   6 H :    0.048294
   7 C :    0.097339
   8 H :    0.073385
   9 C :    0.158657
  10 H :    0.079685
  11 O :   -0.307641
  12 O :   -0.396130
  13 O :   -0.410899
  14 O :   -0.418995
  15 O :   -0.415869
  16 O :   -0.441718
  17 H :    0.086708
  18 H :    0.070399
  19 H :    0.306877
  20 H :    0.310664
  21 H :    0.301494
  22 H :    0.307976
  23 H :    0.297669
Sum of atomic charges:    0.0000000

LOEWDIN ATOMIC CHARGES
----------------------
   0 C :   -0.134384
   1 C :   -0.076556
   2 H :    0.112166
   3 C :   -0.093836
   4 H :    0.123391
   5 C :   -0.084825
   6 H :    0.101642
   7 C :   -0.073451
   8 H :    0.112529
   9 C :    0.001788
  10 H :    0.108261
  11 O :   -0.138535
  12 O :   -0.306766
  13 O :   -0.313649
  14 O :   -0.328558
  15 O :   -0.300449
  16 O :   -0.336620
  17 H :    0.112212
  18 H :    0.094775
  19 H :    0.286871
  20 H :    0.291960
  21 H :    0.280112
  22 H :    0.288851
  23 H :    0.273071

  Mayer bond orders larger than 0.100000
B(  0-C ,  1-C ) :   1.0506 B(  0-C , 16-O ) :   1.0760 B(  0-C , 17-H ) :   0.9198
B(  0-C , 18-H ) :   0.9047 B(  1-C ,  2-H ) :   0.8787 B(  1-C ,  3-C ) :   0.9725
B(  1-C , 11-O ) :   0.9757 B(  3-C ,  4-H ) :   0.8745 B(  3-C ,  5-C ) :   1.0376
B(  3-C , 15-O ) :   0.9834 B(  5-C ,  6-H ) :   0.8525 B(  5-C ,  7-C ) :   1.0405
B(  5-C , 14-O ) :   1.1097 B(  7-C ,  8-H ) :   0.8805 B(  7-C ,  9-C ) :   0.9869
B(  7-C , 13-O ) :   1.0946 B(  9-C , 10-H ) :   0.8920 B(  9-C , 11-O ) :   1.0739
B(  9-C , 12-O ) :   1.0970 B( 12-O , 19-H ) :   0.8350 B( 13-O , 20-H ) :   0.8451
B( 14-O , 21-H ) :   0.8236 B( 15-O , 22-H ) :   0.8382 B( 16-O , 23-H ) :   0.8296

Dispersion correction           -0.024723674
FINAL SINGLE POINT ENERGY      -685.694343703794

DIPOLE MOMENT
-------------

Method             : SCF
Type of density    : Electron Density
Multiplicity       :   1
Irrep              :   0
Energy             :  -685.8265206346661671 Eh
Relativity type    :
Basis              : AO
                                X                 Y                 Z
Electronic contribution:      1.844182273       0.655189794       0.712836760
Nuclear contribution   :     -1.912166843      -0.307043744      -0.660149186
                        -----------------------------------------
Total Dipole Moment    :     -0.067984570       0.348146050       0.052687574
                        -----------------------------------------
Magnitude (a.u.)       :      0.358613377
Magnitude (Debye)      :      0.911522765

Rotational constants in cm-1:             0.043834             0.026470             0.018792
Rotational constants in MHz :          1314.103332           793.557265           563.379766

                             ****ORCA TERMINATED NORMALLY****
TOTAL RUN TIME: 0 days 0 hours 0 minutes 10 seconds 451 msec
