                         Program Version 6.0.1  -  RELEASE   -
|  1> ! r2scan-3c def2/J RI DEFGRID2 scfconv6 printgap
|  2> %output
|  3>     printlevel normal
|  4> end
|  5> * xyz 0 1
|  6> C 3.3440259477 -0.3200110662 0.8393493312
|  7> C 1.9606707522 -0.1699491124 0.2988549289
|  8> C 1.4522682682 1.0159751188 -0.0499843081
|  9> C 0.0892489473 1.2170292193 -0.5323026042
| 10> O -0.3693307139 2.3311553385 -0.6928580894
| 11> C -0.7597841654 -0.0164457427 -0.810722318
| 12> H -1.1963224307 0.1501400224 -1.8038269173
| 13> C 0.0678565868 -1.3021670698 -0.8811718613
| 14> C 1.1492285689 -1.4213124969 0.1900373422
| 15> C -1.9645285498 -0.0077409818 0.1615890568
| 16> C -3.0553761158 -0.9786131268 -0.2844289033
| 17> C -1.5848825063 -0.2744590592 1.6158961245
| 18> H 3.8207981282 0.6456980072 0.9828748059
| 19> H 3.9493464997 -0.9105296797 0.1513561129
| 20> H 3.3198734256 -0.8503252257 1.790907671
| 21> H 2.0371008238 1.9203554662 0.0508705613
| 22> H -0.5915016508 -2.1698754999 -0.8357373443
| 23> H 0.5640250018 -1.3223584014 -1.8555392667
| 24> H 0.7093744395 -1.6305630052 1.1679055235
| 25> H 1.803563167 -2.2640493358 -0.0487194615
| 26> H -2.3725858996 1.0080442519 0.1027121866
| 27> H -2.7169694992 -2.0103582687 -0.216322077
| 28> H -3.3553566349 -0.7805973436 -1.3108048317
| 29> H -3.9293686897 -0.8703325802 0.3538396936
| 30> H -2.426453149 -0.0345836362 2.2629322223
| 31> H -0.7406403989 0.34183063 1.9164721084
| 32> H -1.3387674339 -1.3226246526 1.7695927205
| 33> *
| 34>
| 35>                          ****END OF INPUT****

CARTESIAN COORDINATES (ANGSTROEM)
---------------------------------
  C      3.344026   -0.320011    0.839349
  C      1.960671   -0.169949    0.298855
  C      1.452268    1.015975   -0.049984
  C      0.089249    1.217029   -0.532303
  O     -0.369331    2.331155   -0.692858
  C     -0.759784   -0.016446   -0.810722
  H     -1.196322    0.150140   -1.803827
  C      0.067857   -1.302167   -0.881172
  C      1.149229   -1.421312    0.190037
  C     -1.964529   -0.007741    0.161589
  C     -3.055376   -0.978613   -0.284429
  C     -1.584883   -0.274459    1.615896
  H      3.820798    0.645698    0.982875
  H      3.949346   -0.910530    0.151356
  H      3.319873   -0.850325    1.790908
  H      2.037101    1.920355    0.050871
  H     -0.591502   -2.169875   -0.835737
  H      0.564025   -1.322358   -1.855539
  H      0.709374   -1.630563    1.167906
  H      1.803563   -2.264049   -0.048719
  H     -2.372586    1.008044    0.102712
  H     -2.716969   -2.010358   -0.216322
  H     -3.355357   -0.780597   -1.310805
  H     -3.929369   -0.870333    0.353840
  H     -2.426453   -0.034584    2.262932
  H     -0.740640    0.341831    1.916472
  H     -1.338767   -1.322625    1.769593

 Total Charge           Charge          ....    0
 Multiplicity           Mult            ....    1
 Number of Electrons    NEL             ....   84
 Basis Dimension        Dim             ....  294

ORBITAL ENERGIES
----------------

  NO   OCC          E(Eh)            E(eV)
   0   2.0000     -18.921884      -514.8906
   1   2.0000     -10.102872      -274.9131
   2   2.0000     -10.067951      -273.9629
   3   2.0000     -10.045956      -273.3644
   4   2.0000     -10.041981      -273.2562
   5   2.0000     -10.038529      -273.1623
   6   2.0000     -10.037764      -273.1415
   7   2.0000     -10.036582      -273.1093
   8   2.0000     -10.029108      -272.9059
   9   2.0000     -10.018756      -272.6242
  10   2.0000     -10.017987      -272.6033
  11   2.0000      -0.991985       -26.9933
  12   2.0000      -0.822375       -22.3780
  13   2.0000      -0.779518       -21.2118
  14   2.0000      -0.727928       -19.8079
  15   2.0000      -0.698470       -19.0063
  16   2.0000      -0.667787       -18.1714
  17   2.0000      -0.652971       -17.7682
  18   2.0000      -0.595566       -16.2062
  19   2.0000      -0.551811       -15.0155
  20   2.0000      -0.525909       -14.3107
  21   2.0000      -0.476163       -12.9571
  22   2.0000      -0.458556       -12.4779
  23   2.0000      -0.442587       -12.0434
  24   2.0000      -0.421642       -11.4735
  25   2.0000      -0.417655       -11.3650
  26   2.0000      -0.410106       -11.1595
  27   2.0000      -0.390667       -10.6306
  28   2.0000      -0.387521       -10.5450
  29   2.0000      -0.377423       -10.2702
  30   2.0000      -0.365016        -9.9326
  31   2.0000      -0.358875        -9.7655
  32   2.0000      -0.354872        -9.6566
  33   2.0000      -0.350558        -9.5392
  34   2.0000      -0.338750        -9.2179
  35   2.0000      -0.326586        -8.8869
  36   2.0000      -0.311885        -8.4868
  37   2.0000      -0.299322        -8.1450
  38   2.0000      -0.286921        -7.8075
  39   2.0000      -0.280696        -7.6381
  40   2.0000      -0.241749        -6.5783
  41   2.0000      -0.201773        -5.4905
  42   0.0000      -0.075594        -2.0570
  43   0.0000       0.034611         0.9418
  44   0.0000       0.064474         1.7544
  45   0.0000       0.089767         2.4427
  46   0.0000       0.101198         2.7537

MULLIKEN ATOMIC CHARGES
-----------------------
   0 C :   -0.515566
   1 C :    0.194104
   2 C :   -0.294546
   3 C :    0.154204
   4 O :   -0.345282
   5 C :   -0.006137
   6 H :    0.176999
   7 C :   -0.415463
   8 C :   -0.266836
   9 C :   -0.055179
  10 C :   -0.496677
  11 C :   -0.564189
  12 H :    0.159975
  13 H :    0.167566
  14 H :    0.158326
  15 H :    0.167651
  16 H :    0.163067
  17 H :    0.167345
  18 H :    0.180157
  19 H :    0.160912
  20 H :    0.188934
  21 H :    0.148354
  22 H :    0.151705
  23 H :    0.150924
  24 H :    0.153943
  25 H :    0.168638
  26 H :    0.147071
Sum of atomic charges:   -0.0000000

LOEWDIN ATOMIC CHARGES
----------------------
   0 C :   -0.386353
   1 C :   -0.064621
   2 C :   -0.170103
   3 C :    0.227354
   4 O :   -0.473104
   5 C :   -0.191492
   6 H :    0.187839
   7 C :   -0.275425
   8 C :   -0.277893
   9 C :   -0.215439
  10 C :   -0.412267
  11 C :   -0.406989
  12 H :    0.162976
  13 H :    0.168955
  14 H :    0.167988
  15 H :    0.182483
  16 H :    0.162416
  17 H :    0.166030
  18 H :    0.176717
  19 H :    0.165988
  20 H :    0.177180
  21 H :    0.149078
  22 H :    0.155357
  23 H :    0.156139
  24 H :    0.156513
  25 H :    0.161476
  26 H :    0.149198

  Mayer bond orders larger than 0.100000
B(  0-C ,  1-C ) :   0.8378 B(  0-C , 12-H ) :   0.9934 B(  0-C , 13-H ) :   0.9676
B(  0-C , 14-H ) :   0.9602 B(  1-C ,  2-C ) :   1.6456 B(  1-C ,  8-C ) :   0.8616
B(  2-C ,  3-C ) :   1.1312 B(  2-C , 15-H ) :   0.9466 B(  3-C ,  4-O ) :   1.9210
B(  3-C ,  5-C ) :   0.9187 B(  5-C ,  6-H ) :   0.9690 B(  5-C ,  7-C ) :   0.8539
B(  5-C ,  9-C ) :   0.8592 B(  7-C ,  8-C ) :   0.9040 B(  7-C , 16-H ) :   0.9949
B(  7-C , 17-H ) :   0.9879 B(  8-C , 18-H ) :   0.9528 B(  8-C , 19-H ) :   0.9744
B(  9-C , 10-C ) :   0.8845 B(  9-C , 11-C ) :   0.8574 B(  9-C , 20-H ) :   0.9623
B( 10-C , 21-H ) :   0.9851 B( 10-C , 22-H ) :   0.9834 B( 10-C , 23-H ) :   0.9721
B( 11-C , 24-H ) :   0.9642 B( 11-C , 25-H ) :   0.9737 B( 11-C , 26-H ) :   0.9832

Dispersion correction           -0.009871818
FINAL SINGLE POINT ENERGY      -465.791294174310

DIPOLE MOMENT
-------------

Method             : SCF
Type of density    : Electron Density
Multiplicity       :   1
Irrep              :   0
Energy             :  -465.7930573524229203 Eh
Relativity type    :
Basis              : AO
                                X                 Y                 Z
Electronic contribution:      2.968214787       8.023899685      -3.825717677
Nuclear contribution   :     -2.317010549      -9.441035195       4.191317500
                        -----------------------------------------
Total Dipole Moment    :      0.651204238      -1.417135510       0.365599823
                        -----------------------------------------
Magnitude (a.u.)       :      1.601874915
Magnitude (Debye)      :      4.071642456

Rotational constants in cm-1:             0.056441             0.027617             0.022957
Rotational constants in MHz :          1692.047452           827.943189           688.244355

                             ****ORCA TERMINATED NORMALLY****
TOTAL RUN TIME: 0 days 0 hours 0 minutes 48 seconds 529 msec
