                         Program Version 6.0.1  -  RELEASE   -
|  1> ! r2scan-3c def2/J RI DEFGRID2 scfconv6 printgap
|  2> %output
|  3>     printlevel normal
|  4> end
|  5> * xyz 0 1
|  6> C 2.7499494234 -0.813918239 0.1413132248
|  7> C 1.9581034956 0.4573743707 -0.1308100437
|  8> C 0.4750297628 0.2436294706 -0.0615934238
|  9> C -0.423569944 1.2887331773 -0.2988616723
| 10> N -1.7309631699 1.1195171329 -0.2416832385
| 11> C -2.1719560912 -0.0967257313 0.0537114314
| 12> C -1.2907096779 -1.1396640236 0.290765104
| 13> N 0.0213539097 -0.9680132278 0.2328528637
| 14> H 3.8167970007 -0.6130540879 0.0815964616
| 15> H 2.4926547173 -1.5792662454 -0.5853390862
| 16> H 2.5164532872 -1.1970762645 1.1304932773
| 17> H 2.2039340531 0.8488825131 -1.1224085632
| 18> H 2.2282978518 1.2306452057 0.5946396187
| 19> H -0.0797191554 2.2861442611 -0.5408169728
| 20> H -3.2446968006 -0.2218745197 0.097061394
| 21> H -1.6297671048 -2.1380220168 0.5327381493
| 22> *
| 23>
| 24>                          ****END OF INPUT****

CARTESIAN COORDINATES (ANGSTROEM)
---------------------------------
  C      2.749949   -0.813918    0.141313
  C      1.958103    0.457374   -0.130810
  C      0.475030    0.243629   -0.061593
  C     -0.423570    1.288733   -0.298862
  N     -1.730963    1.119517   -0.241683
  C     -2.171956   -0.096726    0.053711
  C     -1.290710   -1.139664    0.290765
  N      0.021354   -0.968013    0.232853
  H      3.816797   -0.613054    0.081596
  H      2.492655   -1.579266   -0.585339
  H      2.516453   -1.197076    1.130493
  H      2.203934    0.848883   -1.122409
  H      2.228298    1.230645    0.594640
  H     -0.079719    2.286144   -0.540817
  H     -3.244697   -0.221875    0.097061
  H     -1.629767   -2.138022    0.532738

 Total Charge           Charge          ....    0
 Multiplicity           Mult            ....    1
 Number of Electrons    NEL             ....   58
 Basis Dimension        Dim             ....  202

ORBITAL ENERGIES
----------------

  NO   OCC          E(Eh)            E(eV)
   0   2.0000     -14.172873      -385.6635
   1   2.0000     -14.170328      -385.5942
   2   2.0000     -10.084488      -274.4129
   3   2.0000     -10.076588      -274.1979
   4   2.0000     -10.074766      -274.1483
   5   2.0000     -10.073671      -274.1185
   6   2.0000     -10.042985      -273.2835
   7   2.0000     -10.019033      -272.6317
   8   2.0000      -0.955252       -25.9937
   9   2.0000      -0.880863       -23.9695
  10   2.0000      -0.775878       -21.1127
  11   2.0000      -0.717535       -19.5251
  12   2.0000      -0.639221       -17.3941
  13   2.0000      -0.627260       -17.0686
  14   2.0000      -0.570030       -15.5113
  15   2.0000      -0.495068       -13.4715
  16   2.0000      -0.485955       -13.2235
  17   2.0000      -0.447949       -12.1893
  18   2.0000      -0.437876       -11.9152
  19   2.0000      -0.406678       -11.0663
  20   2.0000      -0.392568       -10.6823
  21   2.0000      -0.367440        -9.9985
  22   2.0000      -0.346054        -9.4166
  23   2.0000      -0.327316        -8.9067
  24   2.0000      -0.326447        -8.8831
  25   2.0000      -0.310400        -8.4464
  26   2.0000      -0.273907        -7.4534
  27   2.0000      -0.249263        -6.7828
  28   2.0000      -0.214677        -5.8417
  29   0.0000      -0.074953        -2.0396
  30   0.0000      -0.050931        -1.3859
  31   0.0000       0.072977         1.9858
  32   0.0000       0.089126         2.4252
  33   0.0000       0.104482         2.8431

MULLIKEN ATOMIC CHARGES
-----------------------
   0 C :   -0.484488
   1 C :   -0.269717
   2 C :    0.268900
   3 C :   -0.228651
   4 N :   -0.147943
   5 C :   -0.070536
   6 C :   -0.068312
   7 N :   -0.169978
   8 H :    0.143122
   9 H :    0.157558
  10 H :    0.158160
  11 H :    0.149237
  12 H :    0.149952
  13 H :    0.139464
  14 H :    0.136143
  15 H :    0.137086
Sum of atomic charges:   -0.0000000

LOEWDIN ATOMIC CHARGES
----------------------
   0 C :   -0.401967
   1 C :   -0.258844
   2 C :    0.149779
   3 C :    0.104086
   4 N :   -0.570432
   5 C :    0.085326
   6 C :    0.101366
   7 N :   -0.584427
   8 H :    0.148195
   9 H :    0.161739
  10 H :    0.162157
  11 H :    0.170533
  12 H :    0.170876
  13 H :    0.188584
  14 H :    0.186697
  15 H :    0.186330

  Mayer bond orders larger than 0.100000
B(  0-C ,  1-C ) :   0.9385 B(  0-C ,  8-H ) :   0.9690 B(  0-C ,  9-H ) :   0.9762
B(  0-C , 10-H ) :   0.9754 B(  1-C ,  2-C ) :   0.9139 B(  1-C , 11-H ) :   0.9470
B(  1-C , 12-H ) :   0.9445 B(  2-C ,  3-C ) :   1.2813 B(  2-C ,  7-N ) :   1.3901
B(  3-C ,  4-N ) :   1.4927 B(  3-C ,  6-C ) :   0.1177 B(  3-C , 13-H ) :   0.9788
B(  4-N ,  5-C ) :   1.4161 B(  5-C ,  6-C ) :   1.3121 B(  5-C , 14-H ) :   0.9713
B(  6-C ,  7-N ) :   1.4147 B(  6-C , 15-H ) :   0.9678

Dispersion correction           -0.004844235
FINAL SINGLE POINT ENERGY      -342.850937878647

DIPOLE MOMENT
-------------

Method             : SCF
Type of density    : Electron Density
Multiplicity       :   1
Irrep              :   0
Energy             :  -342.8559535851227338 Eh
Relativity type    :
Basis              : AO
                                X                 Y                 Z
Electronic contribution:     -7.495258447       1.270560399      -0.172632011
Nuclear contribution   :      7.781137370      -1.297239999       0.176293905
                        -----------------------------------------
Total Dipole Moment    :      0.285878923      -0.026679600       0.003661894
                        -----------------------------------------
Magnitude (a.u.)       :      0.287144509
Magnitude (Debye)      :      0.729863339

Rotational constants in cm-1:             0.171758             0.053015             0.041127
Rotational constants in MHz :          5149.163751          1589.341359          1232.969344

                             ****ORCA TERMINATED NORMALLY****
TOTAL RUN TIME: 0 days 0 hours 0 minutes 22 seconds 509 msec
