                         Program Version 6.0.1  -  RELEASE   -
|  1> ! r2scan-3c def2/J RI DEFGRID2 scfconv6 printgap
|  2> %output
|  3>     printlevel normal
|  4> end
|  5> * xyz 0 1
|  6> C -1.1955935805 -1.2006372141 0.0091602861
|  7> C 0.184559119 -1.2030695796 0.0021962082
|  8> C 0.8712198742 4.77089e-05 -0.0006058686
|  9> C 0.1845458374 1.2031203129 0.0021395434
| 10> C -1.1956450262 1.2005683729 0.0091412493
| 11> C -1.9086123085 -3.70483e-05 0.0113317446
| 12> N -3.2843264726 3.75534e-05 -0.0543686485
| 13> Cl 2.6045759423 -6.784e-06 -0.0030713054
| 14> H -1.7341055477 -2.13702057 0.010926535
| 15> H 0.7277070985 -2.1350420045 0.0020962527
| 16> H 0.7275602232 2.1351621669 0.0021364123
| 17> H -1.7341307224 2.136963027 0.0109039172
| 18> H -3.7507056117 -0.8488826159 0.2192977875
| 19> H -3.7506497549 0.848625496 0.2206450387
| 20> *
| 21>
| 22>                          ****END OF INPUT****

CARTESIAN COORDINATES (ANGSTROEM)
---------------------------------
  C     -1.195594   -1.200637    0.009160
  C      0.184559   -1.203070    0.002196
  C      0.871220    0.000048   -0.000606
  C      0.184546    1.203120    0.002140
  C     -1.195645    1.200568    0.009141
  C     -1.908612   -0.000037    0.011332
  N     -3.284326    0.000038   -0.054369
  Cl     2.604576   -0.000007   -0.003071
  H     -1.734106   -2.137021    0.010927
  H      0.727707   -2.135042    0.002096
  H      0.727560    2.135162    0.002136
  H     -1.734131    2.136963    0.010904
  H     -3.750706   -0.848883    0.219298
  H     -3.750650    0.848625    0.220645

 Total Charge           Charge          ....    0
 Multiplicity           Mult            ....    1
 Number of Electrons    NEL             ....   66
 Basis Dimension        Dim             ....  195

ORBITAL ENERGIES
----------------

  NO   OCC          E(Eh)            E(eV)
   0   2.0000    -101.208164     -2754.0142
   1   2.0000     -14.176883      -385.7726
   2   2.0000     -10.084086      -274.4019
   3   2.0000     -10.082925      -274.3703
   4   2.0000     -10.043461      -273.2965
   5   2.0000     -10.043453      -273.2963
   6   2.0000     -10.038366      -273.1578
   7   2.0000     -10.038357      -273.1576
   8   2.0000      -9.364239      -254.8139
   9   2.0000      -7.110359      -193.4827
  10   2.0000      -7.100423      -193.2123
  11   2.0000      -7.100177      -193.2056
  12   2.0000      -0.901395       -24.5282
  13   2.0000      -0.848576       -23.0909
  14   2.0000      -0.787578       -21.4311
  15   2.0000      -0.727458       -19.7951
  16   2.0000      -0.683533       -18.5999
  17   2.0000      -0.598156       -16.2767
  18   2.0000      -0.569441       -15.4953
  19   2.0000      -0.504539       -13.7292
  20   2.0000      -0.496739       -13.5170
  21   2.0000      -0.450618       -12.2619
  22   2.0000      -0.417954       -11.3731
  23   2.0000      -0.412230       -11.2173
  24   2.0000      -0.399750       -10.8778
  25   2.0000      -0.377559       -10.2739
  26   2.0000      -0.352298        -9.5865
  27   2.0000      -0.331165        -9.0114
  28   2.0000      -0.326449        -8.8831
  29   2.0000      -0.276130        -7.5139
  30   2.0000      -0.269234        -7.3262
  31   2.0000      -0.245346        -6.6762
  32   2.0000      -0.186399        -5.0722
  33   0.0000      -0.040065        -1.0902
  34   0.0000      -0.019145        -0.5210
  35   0.0000       0.022798         0.6204
  36   0.0000       0.066981         1.8226
  37   0.0000       0.103628         2.8199

MULLIKEN ATOMIC CHARGES
-----------------------
   0 C :   -0.357032
   1 C :   -0.192617
   2 C :    0.156471
   3 C :   -0.192622
   4 C :   -0.356973
   5 C :    0.528409
   6 N :   -0.533667
   7 Cl:   -0.166216
   8 H :    0.140139
   9 H :    0.160379
  10 H :    0.160377
  11 H :    0.140146
  12 H :    0.256588
  13 H :    0.256620
Sum of atomic charges:    0.0000000

LOEWDIN ATOMIC CHARGES
----------------------
   0 C :   -0.155137
   1 C :   -0.162361
   2 C :   -0.197748
   3 C :   -0.162360
   4 C :   -0.155124
   5 C :    0.123724
   6 N :   -0.602174
   7 Cl:    0.109374
   8 H :    0.171070
   9 H :    0.177663
  10 H :    0.177662
  11 H :    0.171074
  12 H :    0.252152
  13 H :    0.252187

  Mayer bond orders larger than 0.100000
B(  0-C ,  1-C ) :   1.4091 B(  0-C ,  5-C ) :   1.3240 B(  0-C ,  8-H ) :   0.9505
B(  1-C ,  2-C ) :   1.3975 B(  1-C ,  9-H ) :   0.9361 B(  2-C ,  3-C ) :   1.3976
B(  2-C ,  7-Cl) :   0.8997 B(  3-C ,  4-C ) :   1.4090 B(  3-C , 10-H ) :   0.9361
B(  4-C ,  5-C ) :   1.3242 B(  4-C , 11-H ) :   0.9505 B(  5-C ,  6-N ) :   0.9390
B(  6-N , 12-H ) :   0.9279 B(  6-N , 13-H ) :   0.9279

Dispersion correction           -0.004861555
FINAL SINGLE POINT ENERGY      -747.109225311609

DIPOLE MOMENT
-------------

Method             : SCF
Type of density    : Electron Density
Multiplicity       :   1
Irrep              :   0
Energy             :  -747.1111622998635085 Eh
Relativity type    :
Basis              : AO
                                X                 Y                 Z
Electronic contribution:     11.042274316      -0.000008378      -0.143697844
Nuclear contribution   :    -12.440016401      -0.000173163       0.441017706
                        -----------------------------------------
Total Dipole Moment    :     -1.397742085      -0.000181542       0.297319862
                        -----------------------------------------
Magnitude (a.u.)       :      1.429014370
Magnitude (Debye)      :      3.632265868

Rotational constants in cm-1:             0.188587             0.032717             0.027893
Rotational constants in MHz :          5653.704783           980.826693           836.220704

                             ****ORCA TERMINATED NORMALLY****
TOTAL RUN TIME: 0 days 0 hours 0 minutes 20 seconds 497 msec
