                         Program Version 6.0.1  -  RELEASE   -
|  1> ! r2scan-3c def2/J RI DEFGRID2 scfconv6 printgap
|  2> %output
|  3>     printlevel normal
|  4> end
|  5> * xyz 0 1
|  6> C -0.1891439926 -2.3104373679 -0.2867316704
|  7> C 0.4976160635 -0.9976900422 -0.1204496111
|  8> C 1.8903370106 -0.959072826 -0.10866804
|  9> C 2.5918777217 0.2216017637 0.0410926544
| 10> C 1.9119685985 1.4222259432 0.1855352415
| 11> C 0.5347554281 1.4190746899 0.1775795963
| 12> C -0.1718442077 0.2257715514 0.0269624149
| 13> N -1.6089224902 0.3287289634 0.0323634248
| 14> O -2.2725475487 -0.681676272 -0.0754059922
| 15> O -2.0897583623 1.4389024251 0.1465737903
| 16> H -0.8284639678 -2.5227680221 0.5686732504
| 17> H -0.8366411159 -2.3006227072 -1.1620314901
| 18> H 0.5422887365 -3.1079215312 -0.3923267814
| 19> H 2.4324949213 -1.8863551104 -0.2206034729
| 20> H 3.6713103166 0.2068598711 0.045172433
| 21> H 2.4519100231 2.3484236947 0.3030339921
| 22> H -0.0259625753 2.3348187267 0.2877254801
| 23> *
| 24>
| 25>                          ****END OF INPUT****

CARTESIAN COORDINATES (ANGSTROEM)
---------------------------------
  C     -0.189144   -2.310437   -0.286732
  C      0.497616   -0.997690   -0.120450
  C      1.890337   -0.959073   -0.108668
  C      2.591878    0.221602    0.041093
  C      1.911969    1.422226    0.185535
  C      0.534755    1.419075    0.177580
  C     -0.171844    0.225772    0.026962
  N     -1.608922    0.328729    0.032363
  O     -2.272548   -0.681676   -0.075406
  O     -2.089758    1.438902    0.146574
  H     -0.828464   -2.522768    0.568673
  H     -0.836641   -2.300623   -1.162031
  H      0.542289   -3.107922   -0.392327
  H      2.432495   -1.886355   -0.220603
  H      3.671310    0.206860    0.045172
  H      2.451910    2.348424    0.303034
  H     -0.025963    2.334819    0.287725

 Total Charge           Charge          ....    0
 Multiplicity           Mult            ....    1
 Number of Electrons    NEL             ....   72
 Basis Dimension        Dim             ....  240

ORBITAL ENERGIES
----------------

  NO   OCC          E(Eh)            E(eV)
   0   2.0000     -18.979031      -516.4457
   1   2.0000     -18.976014      -516.3636
   2   2.0000     -14.392523      -391.6405
   3   2.0000     -10.100645      -274.8525
   4   2.0000     -10.081946      -274.3437
   5   2.0000     -10.064170      -273.8600
   6   2.0000     -10.063326      -273.8370
   7   2.0000     -10.058799      -273.7138
   8   2.0000     -10.058669      -273.7103
   9   2.0000     -10.038547      -273.1628
  10   2.0000      -1.204682       -32.7811
  11   2.0000      -1.024954       -27.8904
  12   2.0000      -0.866942       -23.5907
  13   2.0000      -0.784101       -21.3365
  14   2.0000      -0.766284       -20.8517
  15   2.0000      -0.695065       -18.9137
  16   2.0000      -0.656735       -17.8707
  17   2.0000      -0.593125       -16.1398
  18   2.0000      -0.567376       -15.4391
  19   2.0000      -0.522564       -14.2197
  20   2.0000      -0.512124       -13.9356
  21   2.0000      -0.485124       -13.2009
  22   2.0000      -0.476144       -12.9565
  23   2.0000      -0.454464       -12.3666
  24   2.0000      -0.429646       -11.6913
  25   2.0000      -0.405698       -11.0396
  26   2.0000      -0.404404       -11.0044
  27   2.0000      -0.373526       -10.1642
  28   2.0000      -0.357622        -9.7314
  29   2.0000      -0.350969        -9.5503
  30   2.0000      -0.338130        -9.2010
  31   2.0000      -0.288892        -7.8611
  32   2.0000      -0.275159        -7.4875
  33   2.0000      -0.267474        -7.2783
  34   2.0000      -0.255247        -6.9456
  35   2.0000      -0.252467        -6.8700
  36   0.0000      -0.117771        -3.2047
  37   0.0000      -0.053547        -1.4571
  38   0.0000      -0.030857        -0.8397
  39   0.0000       0.068118         1.8536
  40   0.0000       0.075731         2.0607

MULLIKEN ATOMIC CHARGES
-----------------------
   0 C :   -0.531506
   1 C :    0.030921
   2 C :   -0.191336
   3 C :   -0.111081
   4 C :   -0.140790
   5 C :   -0.176010
   6 C :    0.055127
   7 N :    0.361826
   8 O :   -0.224645
   9 O :   -0.226289
  10 H :    0.183762
  11 H :    0.182984
  12 H :    0.141939
  13 H :    0.153264
  14 H :    0.150744
  15 H :    0.153599
  16 H :    0.187491
Sum of atomic charges:    0.0000000

LOEWDIN ATOMIC CHARGES
----------------------
   0 C :   -0.357903
   1 C :   -0.017197
   2 C :   -0.156244
   3 C :   -0.127709
   4 C :   -0.159844
   5 C :   -0.067008
   6 C :    0.192999
   7 N :   -0.490663
   8 O :   -0.031891
   9 O :   -0.029821
  10 H :    0.184589
  11 H :    0.184455
  12 H :    0.154041
  13 H :    0.173621
  14 H :    0.171755
  15 H :    0.172954
  16 H :    0.203866

  Mayer bond orders larger than 0.100000
B(  0-C ,  1-C ) :   0.8746 B(  0-C , 10-H ) :   0.9585 B(  0-C , 11-H ) :   0.9595
B(  0-C , 12-H ) :   0.9811 B(  1-C ,  2-C ) :   1.3445 B(  1-C ,  6-C ) :   1.4305
B(  2-C ,  3-C ) :   1.4382 B(  2-C , 13-H ) :   0.9317 B(  3-C ,  4-C ) :   1.3751
B(  3-C , 14-H ) :   0.9454 B(  4-C ,  5-C ) :   1.3493 B(  4-C , 15-H ) :   0.9562
B(  5-C ,  6-C ) :   1.3724 B(  5-C , 16-H ) :   0.9343 B(  6-C ,  7-N ) :   0.9623
B(  7-N ,  8-O ) :   1.7817 B(  7-N ,  9-O ) :   1.8395 B(  8-O ,  9-O ) :   0.2423

Dispersion correction           -0.006026207
FINAL SINGLE POINT ENERGY      -475.971505834385

DIPOLE MOMENT
-------------

Method             : SCF
Type of density    : Electron Density
Multiplicity       :   1
Irrep              :   0
Energy             :  -475.9765111731309730 Eh
Relativity type    :
Basis              : AO
                                X                 Y                 Z
Electronic contribution:     -5.198054122       4.293724487       0.504841138
Nuclear contribution   :      6.875541341      -4.609882749      -0.533860716
                        -----------------------------------------
Total Dipole Moment    :      1.677487219      -0.316158262      -0.029019578
                        -----------------------------------------
Magnitude (a.u.)       :      1.707267277
Magnitude (Debye)      :      4.339528549

Rotational constants in cm-1:             0.076737             0.042969             0.027685
Rotational constants in MHz :          2300.521430          1288.164596           829.967800

                             ****ORCA TERMINATED NORMALLY****
TOTAL RUN TIME: 0 days 0 hours 0 minutes 21 seconds 910 msec
