                         Program Version 6.0.0  -   RELEASE  -
|  1> ! r2SCAN-3c DEF2-TZVP FREQ
|  2> * xyzfile 0 1 censo.xyz
|  3>
|  4>                          ****END OF INPUT****

CARTESIAN COORDINATES (ANGSTROEM)
---------------------------------
  C      0.664666    1.680620   -0.034344
  C      1.410650    0.368610   -0.260663
  H      1.650739    0.253878   -1.324249
  C      0.538046   -0.795793    0.181137
  H      0.392359   -0.735379    1.273057
  C     -0.821084   -0.712340   -0.515903
  H     -0.669236   -0.835896   -1.593832
  C     -1.480491    0.650742   -0.295699
  H     -2.367410    0.755007   -0.930404
  O     -0.605336    1.692475   -0.713366
  O     -1.830122    0.751074    1.072066
  O     -1.678662   -1.782162   -0.113228
  O      1.203292   -2.017455   -0.156312
  O      2.667383    0.395133    0.425227
  H      1.235872    2.514882   -0.447035
  H      0.526235    1.845817    1.043768
  H     -2.498157    1.443702    1.160970
  H     -1.892385   -1.642467    0.820797
  H      0.600334   -2.739092    0.071364
  H      2.482315    0.473625    1.372409

 Total Charge           Charge          ....    0
 Multiplicity           Mult            ....    1
 Number of Electrons    NEL             ....   80
 Basis Dimension        Dim             ....  370

ORBITAL ENERGIES
----------------

  NO   OCC          E(Eh)            E(eV)
   0   2.0000     -18.985116      -516.6113
   1   2.0000     -18.975323      -516.3448
   2   2.0000     -18.968398      -516.1563
   3   2.0000     -18.957569      -515.8617
   4   2.0000     -18.953056      -515.7389
   5   2.0000     -10.146354      -276.0963
   6   2.0000     -10.095717      -274.7184
   7   2.0000     -10.091614      -274.6068
   8   2.0000     -10.090137      -274.5666
   9   2.0000     -10.087326      -274.4901
  10   2.0000      -1.048956       -28.5435
  11   2.0000      -1.005072       -27.3494
  12   2.0000      -0.996157       -27.1068
  13   2.0000      -0.982322       -26.7303
  14   2.0000      -0.975339       -26.5403
  15   2.0000      -0.753180       -20.4951
  16   2.0000      -0.728036       -19.8109
  17   2.0000      -0.625243       -17.0137
  18   2.0000      -0.612193       -16.6586
  19   2.0000      -0.574439       -15.6313
  20   2.0000      -0.520478       -14.1629
  21   2.0000      -0.505042       -13.7429
  22   2.0000      -0.486667       -13.2429
  23   2.0000      -0.472524       -12.8580
  24   2.0000      -0.456022       -12.4090
  25   2.0000      -0.446622       -12.1532
  26   2.0000      -0.417604       -11.3636
  27   2.0000      -0.397590       -10.8190
  28   2.0000      -0.385466       -10.4891
  29   2.0000      -0.376947       -10.2573
  30   2.0000      -0.359086        -9.7712
  31   2.0000      -0.340144        -9.2558
  32   2.0000      -0.327989        -8.9250
  33   2.0000      -0.309911        -8.4331
  34   2.0000      -0.300417        -8.1748
  35   2.0000      -0.294133        -8.0038
  36   2.0000      -0.278563        -7.5801
  37   2.0000      -0.257618        -7.0101
  38   2.0000      -0.242673        -6.6035
  39   2.0000      -0.231176        -6.2906
  40   0.0000       0.013506         0.3675
  41   0.0000       0.022801         0.6205
  42   0.0000       0.035700         0.9715
  43   0.0000       0.055792         1.5182
  44   0.0000       0.071932         1.9574

MULLIKEN ATOMIC CHARGES
-----------------------
   0 C :   -0.006252
   1 C :    0.095031
   2 H :    0.074073
   3 C :    0.054809
   4 H :    0.060001
   5 C :    0.093288
   6 H :    0.087449
   7 C :    0.155539
   8 H :    0.089477
   9 O :   -0.312006
  10 O :   -0.464447
  11 O :   -0.472736
  12 O :   -0.435221
  13 O :   -0.438450
  14 H :    0.120986
  15 H :    0.070849
  16 H :    0.316768
  17 H :    0.310944
  18 H :    0.305782
  19 H :    0.294119
Sum of atomic charges:    0.0000000

LOEWDIN ATOMIC CHARGES
----------------------
   0 C :   -0.283263
   1 C :   -0.325440
   2 H :    0.151973
   3 C :   -0.327431
   4 H :    0.135903
   5 C :   -0.315873
   6 H :    0.157148
   7 C :   -0.417836
   8 H :    0.132266
   9 O :    0.167088
  10 O :   -0.004714
  11 O :   -0.013452
  12 O :   -0.006790
  13 O :   -0.004648
  14 H :    0.133900
  15 H :    0.120058
  16 H :    0.181306
  17 H :    0.174882
  18 H :    0.173464
  19 H :    0.171459

  Mayer bond orders larger than 0.100000
B(  0-C ,  1-C ) :   0.9718 B(  0-C ,  9-O ) :   0.9382 B(  0-C , 14-H ) :   0.9653
B(  0-C , 15-H ) :   0.9444 B(  1-C ,  2-H ) :   0.9316 B(  1-C ,  3-C ) :   0.9648
B(  1-C , 13-O ) :   0.9509 B(  3-C ,  4-H ) :   0.9355 B(  3-C ,  5-C ) :   0.9615
B(  3-C , 12-O ) :   1.0552 B(  5-C ,  6-H ) :   0.9366 B(  5-C ,  7-C ) :   0.9431
B(  5-C , 11-O ) :   0.9410 B(  7-C ,  8-H ) :   0.9535 B(  7-C ,  9-O ) :   1.0239
B(  7-C , 10-O ) :   1.1019 B( 10-O , 16-H ) :   0.8884 B( 11-O , 17-H ) :   0.8787
B( 12-O , 18-H ) :   0.8821 B( 13-O , 19-H ) :   0.8918

Dispersion correction           -0.006279590
FINAL SINGLE POINT ENERGY      -572.595002530062

DIPOLE MOMENT
-------------

Method             : SCF
Type of density    : Electron Density
Multiplicity       :   1
Irrep              :   0
Energy             :  -572.6046740484490556 Eh
Relativity type    :
Basis              : AO
                                X                 Y                 Z
Electronic contribution:     -0.616571825      -0.658918683      -0.605781166
Nuclear contribution   :     -0.465901267       1.219380239       1.454928180
                        -----------------------------------------
Total Dipole Moment    :     -1.082473092       0.560461556       0.849147014
                        -----------------------------------------
Magnitude (a.u.)       :      1.485569185
Magnitude (Debye)      :      3.776016782

VIBRATIONAL FREQUENCIES
-----------------------

Scaling factor for frequencies =  1.000000000  (already applied!)

     0:       0.00 cm**-1
     1:       0.00 cm**-1
     2:       0.00 cm**-1
     3:       0.00 cm**-1
     4:       0.00 cm**-1
     5:       0.00 cm**-1
     6:     113.85 cm**-1
     7:     129.33 cm**-1
     8:     248.86 cm**-1
     9:     252.83 cm**-1
    10:     269.48 cm**-1
    11:     282.37 cm**-1
    12:     335.73 cm**-1
    13:     362.65 cm**-1
    14:     383.08 cm**-1
    15:     388.40 cm**-1
    16:     404.28 cm**-1
    17:     439.17 cm**-1
    18:     468.58 cm**-1
    19:     504.96 cm**-1
    20:     527.66 cm**-1
    21:     564.64 cm**-1
    22:     589.43 cm**-1
    23:     750.50 cm**-1
    24:     893.01 cm**-1
    25:     897.59 cm**-1
    26:     922.45 cm**-1
    27:     984.00 cm**-1
    28:    1016.62 cm**-1
    29:    1034.20 cm**-1
    30:    1058.34 cm**-1
    31:    1089.04 cm**-1
    32:    1098.39 cm**-1
    33:    1122.42 cm**-1
    34:    1129.50 cm**-1
    35:    1183.86 cm**-1
    36:    1219.36 cm**-1
    37:    1235.17 cm**-1
    38:    1258.11 cm**-1
    39:    1307.77 cm**-1
    40:    1314.86 cm**-1
    41:    1330.48 cm**-1
    42:    1352.68 cm**-1
    43:    1369.27 cm**-1
    44:    1383.40 cm**-1
    45:    1403.03 cm**-1
    46:    1411.47 cm**-1
    47:    1427.01 cm**-1
    48:    1432.12 cm**-1
    49:    1486.31 cm**-1
    50:    2954.86 cm**-1
    51:    2994.76 cm**-1
    52:    3046.58 cm**-1
    53:    3051.98 cm**-1
    54:    3064.70 cm**-1
    55:    3103.83 cm**-1
    56:    3737.22 cm**-1
    57:    3740.87 cm**-1
    58:    3752.28 cm**-1
    59:    3772.62 cm**-1

IR SPECTRUM
-----------

 Mode   freq       eps      Int      T**2         TX        TY        TZ
       cm**-1   L/(mol*cm) km/mol    a.u.
----------------------------------------------------------------------------
  6:    113.85   0.000028    0.14  0.000078  (-0.001102 -0.003612 -0.007977)
  7:    129.33   0.000077    0.39  0.000186  (-0.012605  0.000963  0.005075)
  8:    248.86   0.000427    2.16  0.000536  ( 0.016322 -0.007384  0.014651)
  9:    252.83   0.002852   14.41  0.003520  (-0.015830  0.036276 -0.044201)
 10:    269.48   0.001245    6.29  0.001442  ( 0.025776  0.024089  0.014055)
 11:    282.37   0.001503    7.60  0.001661  (-0.030747  0.026732 -0.000988)
 12:    335.73   0.015771   79.70  0.014659  ( 0.004536  0.120985  0.001014)
 13:    362.65   0.000314    1.59  0.000270  (-0.009675 -0.005335  0.012175)
 14:    383.08   0.003970   20.06  0.003234  (-0.046898 -0.009121  0.030850)
 15:    388.40   0.013639   68.92  0.010958  ( 0.066672  0.049830  0.063481)
 16:    404.28   0.005185   26.20  0.004002  ( 0.017214  0.006996 -0.060473)
 17:    439.17   0.009810   49.57  0.006971  ( 0.006898  0.078900 -0.026415)
 18:    468.58   0.030081  152.02  0.020034  ( 0.108037 -0.059088  0.069787)
 19:    504.96   0.001739    8.79  0.001075  (-0.003346 -0.031763  0.007400)
 20:    527.66   0.001860    9.40  0.001100  (-0.030984  0.001582 -0.011736)
 21:    564.64   0.007178   36.28  0.003967  (-0.000909 -0.062402 -0.008516)
 22:    589.43   0.004019   20.31  0.002128  (-0.031280  0.012322  0.031586)
 23:    750.50   0.011143   56.31  0.004633  ( 0.051581 -0.034825 -0.027566)
 24:    893.01   0.006406   32.37  0.002238  ( 0.043244  0.016436 -0.009913)
 25:    897.59   0.002187   11.05  0.000760  ( 0.011732  0.016902 -0.018355)
 26:    922.45   0.008473   42.82  0.002867  ( 0.009457  0.040076 -0.034220)
 27:    984.00   0.008055   40.71  0.002555  ( 0.004530  0.030738  0.039865)
 28:   1016.62   0.048732  246.27  0.014959  (-0.116261 -0.037706  0.004525)
 29:   1034.20   0.012550   63.42  0.003787  ( 0.060036  0.013449 -0.001217)
 30:   1058.34   0.023589  119.21  0.006955  ( 0.007763 -0.080723  0.019469)
 31:   1089.04   0.002345   11.85  0.000672  (-0.010422 -0.019425 -0.013636)
 32:   1098.39   0.002686   13.57  0.000763  (-0.011590 -0.015230 -0.019918)
 33:   1122.42   0.006495   32.82  0.001806  ( 0.037246 -0.003086  0.020225)
 34:   1129.50   0.017832   90.11  0.004927  ( 0.020994 -0.025807 -0.061805)
 35:   1183.86   0.007125   36.01  0.001878  (-0.042106 -0.007106  0.007401)
 36:   1219.36   0.003252   16.44  0.000832  ( 0.001499 -0.014563 -0.024859)
 37:   1235.17   0.000038    0.19  0.000010  (-0.002054 -0.001106 -0.002031)
 38:   1258.11   0.006644   33.58  0.001648  ( 0.013388 -0.038119  0.003975)
 39:   1307.77   0.002026   10.24  0.000483  (-0.018598 -0.011486  0.002366)
 40:   1314.86   0.005426   27.42  0.001288  ( 0.021729 -0.011856 -0.025980)
 41:   1330.48   0.001324    6.69  0.000311  (-0.011585  0.013239  0.001013)
 42:   1352.68   0.003131   15.82  0.000722  (-0.012220 -0.016443  0.017393)
 43:   1369.27   0.000299    1.51  0.000068  (-0.000069  0.005697  0.005980)
 44:   1383.40   0.002841   14.36  0.000641  (-0.012337 -0.015740  0.015522)
 45:   1403.03   0.011929   60.29  0.002653  ( 0.047024 -0.006572  0.019973)
 46:   1411.47   0.008820   44.57  0.001950  (-0.014696 -0.040552  0.009459)
 47:   1427.01   0.002974   15.03  0.000650  (-0.016220 -0.000238 -0.019678)
 48:   1432.12   0.001386    7.00  0.000302  (-0.010811 -0.012855 -0.004460)
 49:   1486.31   0.000943    4.77  0.000198  (-0.007431 -0.009249 -0.007565)
 50:   2954.86   0.006447   32.58  0.000681  ( 0.004927 -0.007364 -0.024543)
 51:   2994.76   0.008091   40.89  0.000843  ( 0.011715  0.014094  0.022522)
 52:   3046.58   0.006833   34.53  0.000700  ( 0.022579  0.001381  0.013720)
 53:   3051.98   0.001601    8.09  0.000164  ( 0.004097 -0.005767 -0.010662)
 54:   3064.70   0.005979   30.22  0.000609  ( 0.004112  0.000338  0.024327)
 55:   3103.83   0.003673   18.56  0.000369  (-0.008742 -0.012339  0.011859)
 56:   3737.22   0.002770   14.00  0.000231  ( 0.007897  0.000860  0.012968)
 57:   3740.87   0.006624   33.48  0.000553  ( 0.012700  0.004786 -0.019194)
 58:   3752.28   0.006089   30.77  0.000506  ( 0.008173  0.020966 -0.000105)
 59:   3772.62   0.009814   49.60  0.000812  ( 0.021402 -0.016645 -0.008757)

--------------------------
THERMOCHEMISTRY AT 298.15K
--------------------------

Temperature         ...   298.15 K
Pressure            ...     1.00 atm
Total Mass          ...   150.13 AMU
Quasi RRHO          ...     True
Cut-Off Frequency   ...     1.00 cm^-1

Throughout the following assumptions are being made:
  (1) The electronic state is orbitally nondegenerate
  (2) There are no thermally accessible electronically excited states
  (3) Hindered rotations indicated by low frequency modes are not
      treated as such but are treated as vibrations and this may
      cause some error
  (4) All equations used are the standard statistical mechanics
      equations for an ideal gas
  (5) All vibrations are strictly harmonic

freq.     113.85  E(vib)   ...       0.44
freq.     129.33  E(vib)   ...       0.43
freq.     248.86  E(vib)   ...       0.31
freq.     252.83  E(vib)   ...       0.30
freq.     269.48  E(vib)   ...       0.29
freq.     282.37  E(vib)   ...       0.28
freq.     335.73  E(vib)   ...       0.24
freq.     362.65  E(vib)   ...       0.22
freq.     383.08  E(vib)   ...       0.20
freq.     388.40  E(vib)   ...       0.20
freq.     404.28  E(vib)   ...       0.19
freq.     439.17  E(vib)   ...       0.17
freq.     468.58  E(vib)   ...       0.16
freq.     504.96  E(vib)   ...       0.14
freq.     527.66  E(vib)   ...       0.13
freq.     564.64  E(vib)   ...       0.11
freq.     589.43  E(vib)   ...       0.10
freq.     750.50  E(vib)   ...       0.06
freq.     893.01  E(vib)   ...       0.03
freq.     897.59  E(vib)   ...       0.03
freq.     922.45  E(vib)   ...       0.03
freq.     984.00  E(vib)   ...       0.02
freq.    1016.62  E(vib)   ...       0.02
freq.    1034.20  E(vib)   ...       0.02
freq.    1058.34  E(vib)   ...       0.02
freq.    1089.04  E(vib)   ...       0.02
freq.    1098.39  E(vib)   ...       0.02
freq.    1122.42  E(vib)   ...       0.01
freq.    1129.50  E(vib)   ...       0.01
freq.    1183.86  E(vib)   ...       0.01
freq.    1219.36  E(vib)   ...       0.01
freq.    1235.17  E(vib)   ...       0.01
freq.    1258.11  E(vib)   ...       0.01
freq.    1307.77  E(vib)   ...       0.01
freq.    1314.86  E(vib)   ...       0.01
freq.    1330.48  E(vib)   ...       0.01
freq.    1352.68  E(vib)   ...       0.01
freq.    1369.27  E(vib)   ...       0.01
freq.    1383.40  E(vib)   ...       0.00
freq.    1403.03  E(vib)   ...       0.00
freq.    1411.47  E(vib)   ...       0.00
freq.    1427.01  E(vib)   ...       0.00
freq.    1432.12  E(vib)   ...       0.00
freq.    1486.31  E(vib)   ...       0.00
freq.    2954.86  E(vib)   ...       0.00
freq.    2994.76  E(vib)   ...       0.00
freq.    3046.58  E(vib)   ...       0.00
freq.    3051.98  E(vib)   ...       0.00
freq.    3064.70  E(vib)   ...       0.00
freq.    3103.83  E(vib)   ...       0.00
freq.    3737.22  E(vib)   ...       0.00
freq.    3740.87  E(vib)   ...       0.00
freq.    3752.28  E(vib)   ...       0.00
freq.    3772.62  E(vib)   ...       0.00

------------
INNER ENERGY
------------

The inner energy is: U= E(el) + E(ZPE) + E(vib) + E(rot) + E(trans)
    E(el)   - is the total energy from the electronic structure calculation
              = E(kin-el) + E(nuc-el) + E(el-el) + E(nuc-nuc)
    E(ZPE)  - the the zero temperature vibrational energy from the frequency calculation
    E(vib)  - the the finite temperature correction to E(ZPE) due to population
              of excited vibrational states
    E(rot)  - is the rotational thermal energy
    E(trans)- is the translational thermal energy

Summary of contributions to the inner energy U:
Electronic energy                ...   -572.59500253 Eh
Zero point energy                ...      0.16310761 Eh     102.35 kcal/mol
Thermal vibrational correction   ...      0.00686743 Eh       4.31 kcal/mol
Thermal rotational correction    ...      0.00141627 Eh       0.89 kcal/mol
Thermal translational correction ...      0.00141627 Eh       0.89 kcal/mol
-----------------------------------------------------------------------
Total thermal energy                   -572.42219495 Eh

Summary of corrections to the electronic energy:
(perhaps to be used in another calculation)
Total thermal correction                  0.00969998 Eh       6.09 kcal/mol
Non-thermal (ZPE) correction              0.16310761 Eh     102.35 kcal/mol
-----------------------------------------------------------------------
Total correction                          0.17280758 Eh     108.44 kcal/mol

--------
ENTHALPY
--------

The enthalpy is H = U + kB*T
                kB is Boltzmann's constant
Total thermal energy              ...   -572.42219495 Eh
Thermal Enthalpy correction       ...      0.00094421 Eh       0.59 kcal/mol
-----------------------------------------------------------------------
Total Enthalpy                    ...   -572.42125074 Eh

Note: Only C1 symmetry has been detected, increase convergence thresholds
      if your molecule has a higher symmetry. Symmetry factor of 1.0 is
      used for the rotational entropy correction.

Note: Rotational entropy computed according to Herzberg
Infrared and Raman Spectra, Chapter V,1, Van Nostrand Reinhold, 1945
Point Group:  C1, Symmetry Number:   1
Rotational constants in cm-1:     0.056290     0.043968     0.028672

Vibrational entropy computed according to the QRRHO of S. Grimme
Chem.Eur.J. 2012 18 9955 using a reference frequency of 100.0 cm-1

-------
ENTROPY
-------

The entropy contributions are T*S = T*(S(el)+S(vib)+S(rot)+S(trans))
     S(el)   - electronic entropy
     S(vib)  - vibrational entropy
     S(rot)  - rotational entropy
     S(trans)- translational entropy
The entropies will be listed as multiplied by the temperature to get
units of energy

Electronic entropy                ...      0.00000000 Eh      0.00 kcal/mol
Vibrational entropy               ...      0.01103445 Eh      6.92 kcal/mol
Rotational entropy                ...      0.01402087 Eh      8.80 kcal/mol
Translational entropy             ...      0.01944672 Eh     12.20 kcal/mol
-----------------------------------------------------------------------
Final entropy term                ...      0.04450203 Eh     27.93 kcal/mol

In case the symmetry of your molecule has not been determined correctly
or in case you have a reason to use a different symmetry number we print
out the resulting rotational entropy values for sn=1,12:

 non-linear molecules -----------------------------------
|  sn= 1 | S(rot)=       0.01402087 Eh      8.80 kcal/mol|
|  sn= 2 | S(rot)=       0.01336641 Eh      8.39 kcal/mol|
|  sn= 3 | S(rot)=       0.01298358 Eh      8.15 kcal/mol|
|  sn= 4 | S(rot)=       0.01271195 Eh      7.98 kcal/mol|
|  sn= 5 | S(rot)=       0.01250127 Eh      7.84 kcal/mol|
|  sn= 6 | S(rot)=       0.01232912 Eh      7.74 kcal/mol|

                             ****ORCA TERMINATED NORMALLY****
TOTAL RUN TIME: 0 days 0 hours 20 minutes 23 seconds 958 msec
