                         Program Version 6.0.0  -   RELEASE  -
|  1> ! r2SCAN-3c DEF2-TZVP FREQ
|  2> * xyzfile 0 1 vacuum_censo.xyz
|  3>
|  4>                          ****END OF INPUT****

CARTESIAN COORDINATES (ANGSTROEM)
---------------------------------
  C      0.670978    1.683460   -0.018083
  C      1.408272    0.378727   -0.284298
  H      1.579177    0.268798   -1.368744
  C      0.542650   -0.776604    0.187475
  H      0.400734   -0.684034    1.277637
  C     -0.815148   -0.720283   -0.507973
  H     -0.665312   -0.871351   -1.583226
  C     -1.464235    0.651342   -0.304755
  H     -2.347638    0.761284   -0.947258
  O     -0.599692    1.695727   -0.691722
  O     -1.830874    0.716501    1.069221
  O     -1.660910   -1.781675   -0.069684
  O      1.228186   -1.988933   -0.123199
  O      2.644572    0.438130    0.417327
  H      1.231082    2.531027   -0.417993
  H      0.540342    1.820150    1.063623
  H     -2.386680    1.493779    1.195757
  H     -1.997767   -1.519415    0.798473
  H      0.617375   -2.712854    0.064659
  H      3.031880   -0.445023    0.374712

 Total Charge           Charge          ....    0
 Multiplicity           Mult            ....    1
 Number of Electrons    NEL             ....   80
 Basis Dimension        Dim             ....  370

ORBITAL ENERGIES
----------------

  NO   OCC          E(Eh)            E(eV)
   0   2.0000     -18.982962      -516.5526
   1   2.0000     -18.976901      -516.3877
   2   2.0000     -18.967125      -516.1217
   3   2.0000     -18.961266      -515.9623
   4   2.0000     -18.954901      -515.7891
   5   2.0000     -10.146661      -276.1047
   6   2.0000     -10.094707      -274.6909
   7   2.0000     -10.088009      -274.5087
   8   2.0000     -10.087736      -274.5013
   9   2.0000     -10.084421      -274.4111
  10   2.0000      -1.050193       -28.5772
  11   2.0000      -1.008949       -27.4549
  12   2.0000      -0.998389       -27.1676
  13   2.0000      -0.982696       -26.7405
  14   2.0000      -0.979415       -26.6512
  15   2.0000      -0.753935       -20.5156
  16   2.0000      -0.728999       -19.8371
  17   2.0000      -0.624839       -17.0027
  18   2.0000      -0.610900       -16.6234
  19   2.0000      -0.567295       -15.4369
  20   2.0000      -0.515417       -14.0252
  21   2.0000      -0.510908       -13.9025
  22   2.0000      -0.491794       -13.3824
  23   2.0000      -0.468301       -12.7431
  24   2.0000      -0.453467       -12.3395
  25   2.0000      -0.449696       -12.2368
  26   2.0000      -0.414047       -11.2668
  27   2.0000      -0.397951       -10.8288
  28   2.0000      -0.393470       -10.7069
  29   2.0000      -0.377603       -10.2751
  30   2.0000      -0.361727        -9.8431
  31   2.0000      -0.337736        -9.1903
  32   2.0000      -0.331446        -9.0191
  33   2.0000      -0.319021        -8.6810
  34   2.0000      -0.294758        -8.0208
  35   2.0000      -0.286636        -7.7998
  36   2.0000      -0.277292        -7.5455
  37   2.0000      -0.258417        -7.0319
  38   2.0000      -0.245162        -6.6712
  39   2.0000      -0.233994        -6.3673
  40   0.0000       0.018462         0.5024
  41   0.0000       0.023540         0.6406
  42   0.0000       0.053775         1.4633
  43   0.0000       0.064940         1.7671
  44   0.0000       0.074041         2.0148

MULLIKEN ATOMIC CHARGES
-----------------------
   0 C :    0.029017
   1 C :    0.092275
   2 H :    0.054894
   3 C :    0.086051
   4 H :    0.070383
   5 C :    0.084965
   6 H :    0.083560
   7 C :    0.153617
   8 H :    0.088770
   9 O :   -0.312266
  10 O :   -0.468315
  11 O :   -0.479160
  12 O :   -0.480936
  13 O :   -0.464917
  14 H :    0.115798
  15 H :    0.081761
  16 H :    0.312716
  17 H :    0.317022
  18 H :    0.316543
  19 H :    0.318221
Sum of atomic charges:    0.0000000

LOEWDIN ATOMIC CHARGES
----------------------
   0 C :   -0.265920
   1 C :   -0.337149
   2 H :    0.139205
   3 C :   -0.330215
   4 H :    0.142318
   5 C :   -0.318704
   6 H :    0.154269
   7 C :   -0.419256
   8 H :    0.132384
   9 O :    0.178169
  10 O :   -0.010508
  11 O :   -0.012902
  12 O :   -0.016997
  13 O :   -0.006301
  14 H :    0.133665
  15 H :    0.126616
  16 H :    0.178388
  17 H :    0.176421
  18 H :    0.177283
  19 H :    0.179234

  Mayer bond orders larger than 0.100000
B(  0-C ,  1-C ) :   0.9553 B(  0-C ,  9-O ) :   0.9350 B(  0-C , 14-H ) :   0.9594
B(  0-C , 15-H ) :   0.9489 B(  1-C ,  2-H ) :   0.9651 B(  1-C ,  3-C ) :   0.9408
B(  1-C , 13-O ) :   1.0510 B(  3-C ,  4-H ) :   0.9463 B(  3-C ,  5-C ) :   0.9677
B(  3-C , 12-O ) :   1.0039 B(  5-C ,  6-H ) :   0.9396 B(  5-C ,  7-C ) :   0.9497
B(  5-C , 11-O ) :   0.9580 B(  7-C ,  8-H ) :   0.9547 B(  7-C ,  9-O ) :   1.0380
B(  7-C , 10-O ) :   1.0704 B( 10-O , 16-H ) :   0.8893 B( 11-O , 17-H ) :   0.8724
B( 12-O , 18-H ) :   0.8778 B( 13-O , 19-H ) :   0.8830

Dispersion correction           -0.006282028
FINAL SINGLE POINT ENERGY      -572.601337452712

DIPOLE MOMENT
-------------

Method             : SCF
Type of density    : Electron Density
Multiplicity       :   1
Irrep              :   0
Energy             :  -572.6112765171545789 Eh
Relativity type    :
Basis              : AO
                                X                 Y                 Z
Electronic contribution:     -0.713346288      -0.401804954      -0.208231004
Nuclear contribution   :     -0.039157476       0.555182652       0.504382640
                        -----------------------------------------
Total Dipole Moment    :     -0.752503764       0.153377697       0.296151636
                        -----------------------------------------
Magnitude (a.u.)       :      0.823099280
Magnitude (Debye)      :      2.092152104

VIBRATIONAL FREQUENCIES
-----------------------

Scaling factor for frequencies =  1.000000000  (already applied!)

     0:       0.00 cm**-1
     1:       0.00 cm**-1
     2:       0.00 cm**-1
     3:       0.00 cm**-1
     4:       0.00 cm**-1
     5:       0.00 cm**-1
     6:     118.03 cm**-1
     7:     128.43 cm**-1
     8:     237.49 cm**-1
     9:     251.38 cm**-1
    10:     265.17 cm**-1
    11:     281.39 cm**-1
    12:     346.64 cm**-1
    13:     350.81 cm**-1
    14:     377.71 cm**-1
    15:     381.47 cm**-1
    16:     398.57 cm**-1
    17:     437.50 cm**-1
    18:     474.13 cm**-1
    19:     505.97 cm**-1
    20:     535.19 cm**-1
    21:     565.77 cm**-1
    22:     589.30 cm**-1
    23:     751.90 cm**-1
    24:     889.57 cm**-1
    25:     907.18 cm**-1
    26:     937.60 cm**-1
    27:     996.36 cm**-1
    28:    1031.09 cm**-1
    29:    1046.35 cm**-1
    30:    1070.74 cm**-1
    31:    1089.18 cm**-1
    32:    1110.37 cm**-1
    33:    1119.25 cm**-1
    34:    1127.90 cm**-1
    35:    1203.91 cm**-1
    36:    1210.85 cm**-1
    37:    1243.62 cm**-1
    38:    1266.55 cm**-1
    39:    1294.73 cm**-1
    40:    1314.39 cm**-1
    41:    1344.18 cm**-1
    42:    1350.98 cm**-1
    43:    1377.82 cm**-1
    44:    1382.80 cm**-1
    45:    1410.90 cm**-1
    46:    1421.76 cm**-1
    47:    1427.68 cm**-1
    48:    1432.49 cm**-1
    49:    1495.48 cm**-1
    50:    2956.58 cm**-1
    51:    2972.40 cm**-1
    52:    3016.62 cm**-1
    53:    3025.76 cm**-1
    54:    3055.31 cm**-1
    55:    3107.17 cm**-1
    56:    3752.02 cm**-1
    57:    3776.71 cm**-1
    58:    3785.85 cm**-1
    59:    3807.19 cm**-1

IR SPECTRUM
-----------

 Mode   freq       eps      Int      T**2         TX        TY        TZ
       cm**-1   L/(mol*cm) km/mol    a.u.
----------------------------------------------------------------------------
  6:    118.03   0.000357    1.81  0.000944  ( 0.029622  0.000620  0.008158)
  7:    128.43   0.000088    0.45  0.000214  ( 0.008686  0.005007 -0.010675)
  8:    237.49   0.001645    8.31  0.002161  ( 0.000481  0.021846 -0.041034)
  9:    251.38   0.000470    2.38  0.000584  (-0.011641  0.020362 -0.005808)
 10:    265.17   0.001695    8.56  0.001995  (-0.041389 -0.013800  0.009544)
 11:    281.39   0.001858    9.39  0.002061  (-0.030408  0.033439  0.004261)
 12:    346.64   0.013744   69.46  0.012373  (-0.098692 -0.026830 -0.043739)
 13:    350.81   0.017502   88.45  0.015569  ( 0.084754  0.044366 -0.080110)
 14:    377.71   0.012625   63.80  0.010431  (-0.027040  0.018536  0.096725)
 15:    381.47   0.004929   24.91  0.004032  (-0.050392 -0.035624  0.014946)
 16:    398.57   0.000413    2.08  0.000323  (-0.006909  0.002988 -0.016320)
 17:    437.50   0.004738   23.94  0.003379  ( 0.018609  0.041889 -0.035755)
 18:    474.13   0.027522  139.08  0.018114  (-0.086152  0.059262 -0.084736)
 19:    505.97   0.000765    3.87  0.000472  ( 0.011404 -0.013041  0.013104)
 20:    535.19   0.005180   26.18  0.003021  (-0.051760  0.002191 -0.018349)
 21:    565.77   0.004623   23.36  0.002550  ( 0.005837 -0.048984 -0.010794)
 22:    589.30   0.002751   13.90  0.001457  ( 0.020192 -0.008924 -0.031137)
 23:    751.90   0.011640   58.82  0.004831  ( 0.054040 -0.029989 -0.031800)
 24:    889.57   0.007986   40.36  0.002802  ( 0.036378  0.029109 -0.025119)
 25:    907.18   0.000349    1.76  0.000120  ( 0.000393 -0.008600  0.006775)
 26:    937.60   0.007369   37.24  0.002453  (-0.013673  0.033396 -0.033916)
 27:    996.36   0.009185   46.42  0.002877  ( 0.017806 -0.035246 -0.036297)
 28:   1031.09   0.046583  235.41  0.014099  ( 0.113640  0.031287  0.014343)
 29:   1046.35   0.015723   79.46  0.004689  ( 0.042512  0.043650 -0.031250)
 30:   1070.74   0.007540   38.10  0.002197  ( 0.039038  0.025949  0.000248)
 31:   1089.18   0.013998   70.74  0.004011  ( 0.005489 -0.058703  0.023115)
 32:   1110.37   0.000217    1.10  0.000061  (-0.005015 -0.005995  0.000036)
 33:   1119.25   0.022775  115.09  0.006350  (-0.019259  0.049326  0.059548)
 34:   1127.90   0.009688   48.96  0.002680  ( 0.046610 -0.003914  0.022196)
 35:   1203.91   0.005359   27.08  0.001389  ( 0.030052  0.002633 -0.021885)
 36:   1210.85   0.002473   12.50  0.000637  ( 0.020281  0.012471  0.008396)
 37:   1243.62   0.002145   10.84  0.000538  (-0.015614  0.000351 -0.017158)
 38:   1266.55   0.006850   34.62  0.001688  ( 0.008578  0.039945  0.004312)
 39:   1294.73   0.002814   14.22  0.000678  ( 0.008428 -0.021889  0.011318)
 40:   1314.39   0.006968   35.22  0.001654  (-0.034716 -0.001454  0.021145)
 41:   1344.18   0.001678    8.48  0.000389  ( 0.018994 -0.003697 -0.003877)
 42:   1350.98   0.004787   24.19  0.001106  (-0.024700  0.014757 -0.016673)
 43:   1377.82   0.004802   24.27  0.001088  ( 0.027277  0.015337 -0.010403)
 44:   1382.80   0.002546   12.87  0.000575  ( 0.005357  0.023276 -0.002058)
 45:   1410.90   0.007132   36.04  0.001577  (-0.002353 -0.035272  0.018104)
 46:   1421.76   0.003704   18.72  0.000813  (-0.024289 -0.001646 -0.014846)
 47:   1427.68   0.001320    6.67  0.000289  ( 0.016881 -0.001376 -0.001301)
 48:   1432.49   0.003890   19.66  0.000847  ( 0.016056  0.024009  0.003628)
 49:   1495.48   0.000743    3.76  0.000155  (-0.004959 -0.009654 -0.006106)
 50:   2956.58   0.001166    5.89  0.000123  (-0.004521  0.002807 -0.009735)
 51:   2972.40   0.009181   46.40  0.000964  ( 0.004255 -0.005580 -0.030243)
 52:   3016.62   0.009040   45.68  0.000935  (-0.012195 -0.014976 -0.023709)
 53:   3025.76   0.006732   34.02  0.000694  (-0.023399  0.002108 -0.011931)
 54:   3055.31   0.004937   24.95  0.000504  (-0.000444  0.000278 -0.022449)
 55:   3107.17   0.003492   17.64  0.000351  (-0.008992 -0.012525  0.010627)
 56:   3752.02   0.008551   43.21  0.000711  (-0.016822  0.002665  0.020520)
 57:   3776.71   0.008225   41.57  0.000680  ( 0.012430  0.022878 -0.001301)
 58:   3785.85   0.008508   42.99  0.000701  (-0.015937  0.020969 -0.002752)
 59:   3807.19   0.009212   46.55  0.000755  (-0.017965  0.018345  0.009787)

--------------------------
THERMOCHEMISTRY AT 298.15K
--------------------------

Temperature         ...   298.15 K
Pressure            ...     1.00 atm
Total Mass          ...   150.13 AMU
Quasi RRHO          ...     True
Cut-Off Frequency   ...     1.00 cm^-1

Throughout the following assumptions are being made:
  (1) The electronic state is orbitally nondegenerate
  (2) There are no thermally accessible electronically excited states
  (3) Hindered rotations indicated by low frequency modes are not
      treated as such but are treated as vibrations and this may
      cause some error
  (4) All equations used are the standard statistical mechanics
      equations for an ideal gas
  (5) All vibrations are strictly harmonic

freq.     118.03  E(vib)   ...       0.44
freq.     128.43  E(vib)   ...       0.43
freq.     237.49  E(vib)   ...       0.32
freq.     251.38  E(vib)   ...       0.30
freq.     265.17  E(vib)   ...       0.29
freq.     281.39  E(vib)   ...       0.28
freq.     346.64  E(vib)   ...       0.23
freq.     350.81  E(vib)   ...       0.23
freq.     377.71  E(vib)   ...       0.21
freq.     381.47  E(vib)   ...       0.21
freq.     398.57  E(vib)   ...       0.20
freq.     437.50  E(vib)   ...       0.17
freq.     474.13  E(vib)   ...       0.15
freq.     505.97  E(vib)   ...       0.14
freq.     535.19  E(vib)   ...       0.13
freq.     565.77  E(vib)   ...       0.11
freq.     589.30  E(vib)   ...       0.10
freq.     751.90  E(vib)   ...       0.06
freq.     889.57  E(vib)   ...       0.04
freq.     907.18  E(vib)   ...       0.03
freq.     937.60  E(vib)   ...       0.03
freq.     996.36  E(vib)   ...       0.02
freq.    1031.09  E(vib)   ...       0.02
freq.    1046.35  E(vib)   ...       0.02
freq.    1070.74  E(vib)   ...       0.02
freq.    1089.18  E(vib)   ...       0.02
freq.    1110.37  E(vib)   ...       0.02
freq.    1119.25  E(vib)   ...       0.01
freq.    1127.90  E(vib)   ...       0.01
freq.    1203.91  E(vib)   ...       0.01
freq.    1210.85  E(vib)   ...       0.01
freq.    1243.62  E(vib)   ...       0.01
freq.    1266.55  E(vib)   ...       0.01
freq.    1294.73  E(vib)   ...       0.01
freq.    1314.39  E(vib)   ...       0.01
freq.    1344.18  E(vib)   ...       0.01
freq.    1350.98  E(vib)   ...       0.01
freq.    1377.82  E(vib)   ...       0.01
freq.    1382.80  E(vib)   ...       0.01
freq.    1410.90  E(vib)   ...       0.00
freq.    1421.76  E(vib)   ...       0.00
freq.    1427.68  E(vib)   ...       0.00
freq.    1432.49  E(vib)   ...       0.00
freq.    1495.48  E(vib)   ...       0.00
freq.    2956.58  E(vib)   ...       0.00
freq.    2972.40  E(vib)   ...       0.00
freq.    3016.62  E(vib)   ...       0.00
freq.    3025.76  E(vib)   ...       0.00
freq.    3055.31  E(vib)   ...       0.00
freq.    3107.17  E(vib)   ...       0.00
freq.    3752.02  E(vib)   ...       0.00
freq.    3776.71  E(vib)   ...       0.00
freq.    3785.85  E(vib)   ...       0.00
freq.    3807.19  E(vib)   ...       0.00

------------
INNER ENERGY
------------

The inner energy is: U= E(el) + E(ZPE) + E(vib) + E(rot) + E(trans)
    E(el)   - is the total energy from the electronic structure calculation
              = E(kin-el) + E(nuc-el) + E(el-el) + E(nuc-nuc)
    E(ZPE)  - the the zero temperature vibrational energy from the frequency calculation
    E(vib)  - the the finite temperature correction to E(ZPE) due to population
              of excited vibrational states
    E(rot)  - is the rotational thermal energy
    E(trans)- is the translational thermal energy

Summary of contributions to the inner energy U:
Electronic energy                ...   -572.60133745 Eh
Zero point energy                ...      0.16347259 Eh     102.58 kcal/mol
Thermal vibrational correction   ...      0.00688133 Eh       4.32 kcal/mol
Thermal rotational correction    ...      0.00141627 Eh       0.89 kcal/mol
Thermal translational correction ...      0.00141627 Eh       0.89 kcal/mol
-----------------------------------------------------------------------
Total thermal energy                   -572.42815099 Eh

Summary of corrections to the electronic energy:
(perhaps to be used in another calculation)
Total thermal correction                  0.00971387 Eh       6.10 kcal/mol
Non-thermal (ZPE) correction              0.16347259 Eh     102.58 kcal/mol
-----------------------------------------------------------------------
Total correction                          0.17318646 Eh     108.68 kcal/mol

--------
ENTHALPY
--------

The enthalpy is H = U + kB*T
                kB is Boltzmann's constant
Total thermal energy              ...   -572.42815099 Eh
Thermal Enthalpy correction       ...      0.00094421 Eh       0.59 kcal/mol
-----------------------------------------------------------------------
Total Enthalpy                    ...   -572.42720678 Eh

Note: Only C1 symmetry has been detected, increase convergence thresholds
      if your molecule has a higher symmetry. Symmetry factor of 1.0 is
      used for the rotational entropy correction.

Note: Rotational entropy computed according to Herzberg
Infrared and Raman Spectra, Chapter V,1, Van Nostrand Reinhold, 1945
Point Group:  C1, Symmetry Number:   1
Rotational constants in cm-1:     0.057198     0.044232     0.028788

Vibrational entropy computed according to the QRRHO of S. Grimme
Chem.Eur.J. 2012 18 9955 using a reference frequency of 100.0 cm-1

-------
ENTROPY
-------

The entropy contributions are T*S = T*(S(el)+S(vib)+S(rot)+S(trans))
     S(el)   - electronic entropy
     S(vib)  - vibrational entropy
     S(rot)  - rotational entropy
     S(trans)- translational entropy
The entropies will be listed as multiplied by the temperature to get
units of energy

Electronic entropy                ...      0.00000000 Eh      0.00 kcal/mol
Vibrational entropy               ...      0.01107963 Eh      6.95 kcal/mol
Rotational entropy                ...      0.01400857 Eh      8.79 kcal/mol
Translational entropy             ...      0.01944672 Eh     12.20 kcal/mol
-----------------------------------------------------------------------
Final entropy term                ...      0.04453491 Eh     27.95 kcal/mol

In case the symmetry of your molecule has not been determined correctly
or in case you have a reason to use a different symmetry number we print
out the resulting rotational entropy values for sn=1,12:

 non-linear molecules -----------------------------------
|  sn= 1 | S(rot)=       0.01400857 Eh      8.79 kcal/mol|
|  sn= 2 | S(rot)=       0.01335411 Eh      8.38 kcal/mol|
|  sn= 3 | S(rot)=       0.01297128 Eh      8.14 kcal/mol|
|  sn= 4 | S(rot)=       0.01269965 Eh      7.97 kcal/mol|
|  sn= 5 | S(rot)=       0.01248897 Eh      7.84 kcal/mol|
|  sn= 6 | S(rot)=       0.01231682 Eh      7.73 kcal/mol|

                             ****ORCA TERMINATED NORMALLY****
TOTAL RUN TIME: 0 days 0 hours 20 minutes 42 seconds 586 msec
