                         Program Version 6.0.1  -  RELEASE   -
|  1> ! pbe def2-sv(p) def2/J RI DEFGRID1 loosescf d4 GCP(DFT/SV(P)) printgap
|  2> %output
|  3>     printlevel normal
|  4> end
|  5> * xyz 0 1
|  6> C -3.8918282797 -0.0610638409 -1.4234885942
|  7> N -2.6188970235 0.0276780315 -0.7519150444
|  8> C -2.4870873752 -0.256901137 0.5654928342
|  9> O -3.3922639218 -0.5802293986 1.2857071889
| 10> O -1.2198005477 -0.1994906867 1.0565059472
| 11> C -0.1984796596 0.4733481248 0.41464359
| 12> C -0.323605586 1.7876648754 0.0363759624
| 13> C 0.7564034958 2.4560672595 -0.5569712449
| 14> C 1.944220945 1.8130542104 -0.7633199723
| 15> C 2.1088372151 0.4663102728 -0.3772136246
| 16> C 1.0236447054 -0.2234600264 0.2240010183
| 17> C 1.1864248164 -1.569324842 0.6105744859
| 18> C 2.3778400132 -2.2080696858 0.4089540172
| 19> C 3.4542389337 -1.5307521894 -0.1846884041
| 20> C 3.3233375977 -0.2255217076 -0.5685643022
| 21> H -3.8835812716 -0.8566344727 -2.1711797579
| 22> H -4.1320519892 0.8862480462 -1.9092503388
| 23> H -4.6441440731 -0.2843553191 -0.6693528845
| 24> H -1.7982315786 0.2065869596 -1.3096839175
| 25> H -1.2546406096 2.3083461339 0.2069566978
| 26> H 0.6350283474 3.4896414845 -0.8440846379
| 27> H 2.7762668287 2.3283489023 -1.2199262965
| 28> H 0.3528221207 -2.0756255224 1.0728254157
| 29> H 2.4990503459 -3.2388180654 0.7069229168
| 30> H 4.3890544215 -2.0506858522 -0.3344368321
| 31> H 4.1506089594 0.2999698469 -1.0235312524
| 32> *
| 33>
| 34>                          ****END OF INPUT****

CARTESIAN COORDINATES (ANGSTROEM)
---------------------------------
  C     -3.891828   -0.061064   -1.423489
  N     -2.618897    0.027678   -0.751915
  C     -2.487087   -0.256901    0.565493
  O     -3.392264   -0.580229    1.285707
  O     -1.219801   -0.199491    1.056506
  C     -0.198480    0.473348    0.414644
  C     -0.323606    1.787665    0.036376
  C      0.756403    2.456067   -0.556971
  C      1.944221    1.813054   -0.763320
  C      2.108837    0.466310   -0.377214
  C      1.023645   -0.223460    0.224001
  C      1.186425   -1.569325    0.610574
  C      2.377840   -2.208070    0.408954
  C      3.454239   -1.530752   -0.184688
  C      3.323338   -0.225522   -0.568564
  H     -3.883581   -0.856634   -2.171180
  H     -4.132052    0.886248   -1.909250
  H     -4.644144   -0.284355   -0.669353
  H     -1.798232    0.206587   -1.309684
  H     -1.254641    2.308346    0.206957
  H      0.635028    3.489641   -0.844085
  H      2.776267    2.328349   -1.219926
  H      0.352822   -2.075626    1.072825
  H      2.499050   -3.238818    0.706923
  H      4.389054   -2.050686   -0.334437
  H      4.150609    0.299970   -1.023531

 Total Charge           Charge          ....    0
 Multiplicity           Mult            ....    1
 Number of Electrons    NEL             ....  106
 Basis Dimension        Dim             ....  232

ORBITAL ENERGIES
----------------

  NO   OCC          E(Eh)            E(eV)
   0   2.0000     -18.808098      -511.7944
   1   2.0000     -18.718339      -509.3519
   2   2.0000     -14.022940      -381.5836
   3   2.0000     -10.027137      -272.8523
   4   2.0000      -9.968264      -271.2502
   5   2.0000      -9.922689      -270.0101
   6   2.0000      -9.915045      -269.8021
   7   2.0000      -9.914831      -269.7963
   8   2.0000      -9.907450      -269.5954
   9   2.0000      -9.906859      -269.5793
  10   2.0000      -9.902885      -269.4712
  11   2.0000      -9.902588      -269.4631
  12   2.0000      -9.902484      -269.4603
  13   2.0000      -9.901363      -269.4298
  14   2.0000      -9.900969      -269.4191
  15   2.0000      -1.016354       -27.6564
  16   2.0000      -0.925136       -25.1742
  17   2.0000      -0.842858       -22.9353
  18   2.0000      -0.805297       -21.9133
  19   2.0000      -0.755993       -20.5716
  20   2.0000      -0.708953       -19.2916
  21   2.0000      -0.680678       -18.5222
  22   2.0000      -0.660906       -17.9842
  23   2.0000      -0.644556       -17.5393
  24   2.0000      -0.591831       -16.1045
  25   2.0000      -0.566950       -15.4275
  26   2.0000      -0.563970       -15.3464
  27   2.0000      -0.537590       -14.6286
  28   2.0000      -0.512374       -13.9424
  29   2.0000      -0.478290       -13.0149
  30   2.0000      -0.460907       -12.5419
  31   2.0000      -0.453512       -12.3407
  32   2.0000      -0.438079       -11.9207
  33   2.0000      -0.426704       -11.6112
  34   2.0000      -0.406996       -11.0749
  35   2.0000      -0.391098       -10.6423
  36   2.0000      -0.390088       -10.6148
  37   2.0000      -0.385594       -10.4925
  38   2.0000      -0.371941       -10.1210
  39   2.0000      -0.369689       -10.0598
  40   2.0000      -0.363477        -9.8907
  41   2.0000      -0.354083        -9.6351
  42   2.0000      -0.348492        -9.4830
  43   2.0000      -0.336639        -9.1604
  44   2.0000      -0.313906        -8.5418
  45   2.0000      -0.309228        -8.4145
  46   2.0000      -0.302688        -8.2366
  47   2.0000      -0.279034        -7.5929
  48   2.0000      -0.253140        -6.8883
  49   2.0000      -0.238552        -6.4913
  50   2.0000      -0.226928        -6.1750
  51   2.0000      -0.220404        -5.9975
  52   2.0000      -0.201072        -5.4714
  53   0.0000      -0.079306        -2.1580
  54   0.0000      -0.051626        -1.4048
  55   0.0000      -0.014673        -0.3993
  56   0.0000       0.020358         0.5540
  57   0.0000       0.033704         0.9171

MULLIKEN ATOMIC CHARGES
-----------------------
   0 C :   -0.181306
   1 N :   -0.332178
   2 C :    0.196231
   3 O :   -0.187748
   4 O :   -0.207327
   5 C :    0.116458
   6 C :   -0.158598
   7 C :   -0.038121
   8 C :   -0.112739
   9 C :    0.140725
  10 C :    0.102827
  11 C :   -0.128517
  12 C :   -0.037742
  13 C :   -0.034463
  14 C :   -0.131523
  15 H :    0.115965
  16 H :    0.112177
  17 H :    0.141676
  18 H :    0.248006
  19 H :    0.057059
  20 H :    0.058956
  21 H :    0.041001
  22 H :    0.060318
  23 H :    0.058678
  24 H :    0.057275
  25 H :    0.042908
Sum of atomic charges:    0.0000000

LOEWDIN ATOMIC CHARGES
----------------------
   0 C :   -0.258262
   1 N :   -0.190219
   2 C :    0.028370
   3 O :   -0.176223
   4 O :   -0.035188
   5 C :    0.029985
   6 C :   -0.155534
   7 C :   -0.121052
   8 C :   -0.118282
   9 C :   -0.022548
  10 C :   -0.038837
  11 C :   -0.107166
  12 C :   -0.119099
  13 C :   -0.119398
  14 C :   -0.109577
  15 H :    0.117661
  16 H :    0.116643
  17 H :    0.139132
  18 H :    0.237668
  19 H :    0.133961
  20 H :    0.128356
  21 H :    0.126088
  22 H :    0.134051
  23 H :    0.127259
  24 H :    0.126420
  25 H :    0.125791

  Mayer bond orders larger than 0.100000
B(  0-C ,  1-N ) :   1.0280 B(  0-C , 15-H ) :   0.9588 B(  0-C , 16-H ) :   0.9569
B(  0-C , 17-H ) :   0.9352 B(  1-N ,  2-C ) :   1.1908 B(  1-N , 18-H ) :   0.8372
B(  2-C ,  3-O ) :   2.1050 B(  2-C ,  4-O ) :   1.0332 B(  4-O ,  5-C ) :   1.0804
B(  5-C ,  6-C ) :   1.4303 B(  5-C , 10-C ) :   1.2289 B(  6-C ,  7-C ) :   1.2204
B(  6-C , 19-H ) :   0.9612 B(  7-C ,  8-C ) :   1.4395 B(  7-C , 20-H ) :   0.9621
B(  8-C ,  9-C ) :   1.2341 B(  8-C , 21-H ) :   0.9685 B(  9-C , 10-C ) :   1.2574
B(  9-C , 14-C ) :   1.2414 B( 10-C , 11-C ) :   1.2684 B( 11-C , 12-C ) :   1.4376
B( 11-C , 22-H ) :   0.9626 B( 12-C , 13-C ) :   1.2561 B( 12-C , 23-H ) :   0.9637
B( 13-C , 14-C ) :   1.4614 B( 13-C , 24-H ) :   0.9622 B( 14-C , 25-H ) :   0.9650

Dispersion correction           -0.032743110
FINAL SINGLE POINT ENERGY      -667.731812681814

DIPOLE MOMENT
-------------

Method             : SCF
Type of density    : Electron Density
Multiplicity       :   1
Irrep              :   0
Energy             :  -667.8076176895292519 Eh
Relativity type    :
Basis              : AO
                                X                 Y                 Z
Electronic contribution:      1.704565655      -0.512449287       5.509022965
Nuclear contribution   :     -0.936250634       0.938992693      -7.000791607
                        -----------------------------------------
Total Dipole Moment    :      0.768315021       0.426543407      -1.491768641
                        -----------------------------------------
Magnitude (a.u.)       :      1.731363893
Magnitude (Debye)      :      4.400777279

Rotational constants in cm-1:             0.038239             0.013483             0.011211
Rotational constants in MHz :          1146.386379           404.214545           336.106585

                             ****ORCA TERMINATED NORMALLY****
TOTAL RUN TIME: 0 days 0 hours 0 minutes 44 seconds 551 msec
