                         Program Version 6.0.1  -  RELEASE   -
|  1> ! pbe def2-sv(p) def2/J RI DEFGRID1 loosescf d4 GCP(DFT/SV(P)) printgap
|  2> %output
|  3>     printlevel normal
|  4> end
|  5> * xyz 0 1
|  6> C 1.328898776 1.2337382227 0.211220931
|  7> C 0.4943314556 0.1169697951 -0.418734329
|  8> C 0.9119189081 -1.2612657271 0.0820713971
|  9> C -0.9698856017 0.3719263288 -0.1690289577
| 10> O -1.7657324189 -0.427886387 0.2323360629
| 11> H 2.3808151658 1.090847087 -0.0228285325
| 12> H 1.2136126333 1.2254553192 1.2927950557
| 13> H 1.0209153448 2.207552407 -0.1631412315
| 14> H 0.6219910592 0.1640538277 -1.5088084996
| 15> H 0.807848128 -1.3128287942 1.1632052024
| 16> H 1.9463643502 -1.4668229391 -0.1809969156
| 17> H 0.2769438428 -2.0271121716 -0.3556568671
| 18> H -1.275655016 1.4130580341 -0.4035015608
| 19> *
| 20>
| 21>                          ****END OF INPUT****

CARTESIAN COORDINATES (ANGSTROEM)
---------------------------------
  C      1.328899    1.233738    0.211221
  C      0.494331    0.116970   -0.418734
  C      0.911919   -1.261266    0.082071
  C     -0.969886    0.371926   -0.169029
  O     -1.765732   -0.427886    0.232336
  H      2.380815    1.090847   -0.022829
  H      1.213613    1.225455    1.292795
  H      1.020915    2.207552   -0.163141
  H      0.621991    0.164054   -1.508808
  H      0.807848   -1.312829    1.163205
  H      1.946364   -1.466823   -0.180997
  H      0.276944   -2.027112   -0.355657
  H     -1.275655    1.413058   -0.403502

 Total Charge           Charge          ....    0
 Multiplicity           Mult            ....    1
 Number of Electrons    NEL             ....   40
 Basis Dimension        Dim             ....   86

ORBITAL ENERGIES
----------------

  NO   OCC          E(Eh)            E(eV)
   0   2.0000     -18.751773      -510.2617
   1   2.0000      -9.970293      -271.3055
   2   2.0000      -9.909982      -269.6643
   3   2.0000      -9.891567      -269.1632
   4   2.0000      -9.878841      -268.8169
   5   2.0000      -0.950968       -25.8771
   6   2.0000      -0.733464       -19.9586
   7   2.0000      -0.623348       -16.9622
   8   2.0000      -0.580794       -15.8042
   9   2.0000      -0.488708       -13.2984
  10   2.0000      -0.443420       -12.0661
  11   2.0000      -0.410901       -11.1812
  12   2.0000      -0.393906       -10.7187
  13   2.0000      -0.362201        -9.8560
  14   2.0000      -0.349959        -9.5229
  15   2.0000      -0.343284        -9.3412
  16   2.0000      -0.329222        -8.9586
  17   2.0000      -0.307439        -8.3658
  18   2.0000      -0.305470        -8.3123
  19   2.0000      -0.204542        -5.5659
  20   0.0000      -0.058732        -1.5982
  21   0.0000       0.036744         0.9998
  22   0.0000       0.069286         1.8854
  23   0.0000       0.075204         2.0464
  24   0.0000       0.094396         2.5687

MULLIKEN ATOMIC CHARGES
-----------------------
   0 C :   -0.275297
   1 C :   -0.184313
   2 C :   -0.242121
   3 C :    0.036771
   4 O :   -0.146018
   5 H :    0.115130
   6 H :    0.111899
   7 H :    0.110481
   8 H :    0.104754
   9 H :    0.105429
  10 H :    0.099805
  11 H :    0.115453
  12 H :    0.048027
Sum of atomic charges:    0.0000000

LOEWDIN ATOMIC CHARGES
----------------------
   0 C :   -0.325648
   1 C :   -0.202640
   2 C :   -0.328772
   3 C :    0.008827
   4 O :   -0.106744
   5 H :    0.126121
   6 H :    0.123795
   7 H :    0.120883
   8 H :    0.139162
   9 H :    0.123756
  10 H :    0.119831
  11 H :    0.126480
  12 H :    0.074950

  Mayer bond orders larger than 0.100000
B(  0-C ,  1-C ) :   1.0842 B(  0-C ,  5-H ) :   0.9505 B(  0-C ,  6-H ) :   0.9523
B(  0-C ,  7-H ) :   0.9476 B(  1-C ,  2-C ) :   1.1141 B(  1-C ,  3-C ) :   0.9310
B(  1-C ,  8-H ) :   0.8735 B(  2-C ,  9-H ) :   0.9518 B(  2-C , 10-H ) :   0.9505
B(  2-C , 11-H ) :   0.9455 B(  3-C ,  4-O ) :   2.2074 B(  3-C , 12-H ) :   0.9106

Dispersion correction           -0.008478141
FINAL SINGLE POINT ENERGY      -231.920867738460

DIPOLE MOMENT
-------------

Method             : SCF
Type of density    : Electron Density
Multiplicity       :   1
Irrep              :   0
Energy             :  -231.9655563728873346 Eh
Relativity type    :
Basis              : AO
                                X                 Y                 Z
Electronic contribution:     -5.761175449      -0.755337755      -0.133421937
Nuclear contribution   :      6.534252824       1.207831030      -0.164423402
                        -----------------------------------------
Total Dipole Moment    :      0.773077374       0.452493275      -0.297845340
                        -----------------------------------------
Magnitude (a.u.)       :      0.943986566
Magnitude (Debye)      :      2.399423166

Rotational constants in cm-1:             0.257052             0.136351             0.099136
Rotational constants in MHz :          7706.236012          4087.701736          2972.025784

                             ****ORCA TERMINATED NORMALLY****
TOTAL RUN TIME: 0 days 0 hours 0 minutes 12 seconds 453 msec
