                         Program Version 6.0.0  -   RELEASE  -
|  1> ! r2SCAN-3c DEF2-TZVP FREQ
|  2> * xyzfile 0 1 censo.xyz
|  3>
|  4>                          ****END OF INPUT****

CARTESIAN COORDINATES (ANGSTROEM)
---------------------------------
  C     -2.467645   -0.736983   -1.255853
  C     -1.971818    0.003227   -0.000233
  C     -2.579933    1.409264    0.001657
  C     -2.469108   -0.740861    1.252496
  C     -0.441511    0.033107    0.000392
  C      0.281030   -1.169888    0.000297
  C      1.669481   -1.195435    0.000269
  C      2.379242    0.004617    0.000269
  C      1.693091    1.213909    0.000419
  C      0.298125    1.218525    0.000488
  O      3.757436   -0.064541    0.000116
  H     -2.106401   -1.769558   -1.282394
  H     -3.563134   -0.762410   -1.268933
  H     -2.125324   -0.231592   -2.165488
  H     -2.287276    1.980547   -0.885733
  H     -3.671735    1.328717    0.001445
  H     -2.287366    1.978006    0.890711
  H     -3.564610   -0.766182    1.264161
  H     -2.108129   -1.773581    1.276248
  H     -2.127845   -0.238375    2.164133
  H     -0.248115   -2.118064    0.000170
  H      2.208560   -2.137787    0.000199
  H      2.246288    2.149600    0.000443
  H     -0.204474    2.178886    0.000577
  H      4.113575    0.834911   -0.000054

 Total Charge           Charge          ....    0
 Multiplicity           Mult            ....    1
 Number of Electrons    NEL             ....   82
 Basis Dimension        Dim             ....  425

ORBITAL ENERGIES
----------------

  NO   OCC          E(Eh)            E(eV)
   0   2.0000     -18.983177      -516.5585
   1   2.0000     -10.093694      -274.6634
   2   2.0000     -10.051380      -273.5120
   3   2.0000     -10.035654      -273.0840
   4   2.0000     -10.035235      -273.0726
   5   2.0000     -10.034650      -273.0567
   6   2.0000     -10.034550      -273.0540
   7   2.0000     -10.030674      -272.9485
   8   2.0000     -10.020413      -272.6693
   9   2.0000     -10.019474      -272.6438
  10   2.0000     -10.019473      -272.6437
  11   2.0000      -1.020409       -27.7667
  12   2.0000      -0.824306       -22.4305
  13   2.0000      -0.779616       -21.2144
  14   2.0000      -0.715372       -19.4663
  15   2.0000      -0.694807       -18.9067
  16   2.0000      -0.653488       -17.7823
  17   2.0000      -0.650899       -17.7118
  18   2.0000      -0.590646       -16.0723
  19   2.0000      -0.574579       -15.6351
  20   2.0000      -0.517782       -14.0896
  21   2.0000      -0.511625       -13.9220
  22   2.0000      -0.453859       -12.3501
  23   2.0000      -0.435359       -11.8467
  24   2.0000      -0.418070       -11.3763
  25   2.0000      -0.409378       -11.1397
  26   2.0000      -0.399694       -10.8762
  27   2.0000      -0.389643       -10.6027
  28   2.0000      -0.378000       -10.2859
  29   2.0000      -0.372467       -10.1353
  30   2.0000      -0.360180        -9.8010
  31   2.0000      -0.355964        -9.6863
  32   2.0000      -0.341856        -9.3024
  33   2.0000      -0.334163        -9.0930
  34   2.0000      -0.317069        -8.6279
  35   2.0000      -0.311818        -8.4850
  36   2.0000      -0.294686        -8.0188
  37   2.0000      -0.293246        -7.9796
  38   2.0000      -0.288231        -7.8432
  39   2.0000      -0.235746        -6.4150
  40   2.0000      -0.200066        -5.4441
  41   0.0000      -0.034998        -0.9523
  42   0.0000      -0.015815        -0.4304
  43   0.0000       0.036601         0.9960
  44   0.0000       0.037888         1.0310
  45   0.0000       0.066471         1.8088

MULLIKEN ATOMIC CHARGES
-----------------------
   0 C :   -0.340639
   1 C :    0.139497
   2 C :   -0.378602
   3 C :   -0.340717
   4 C :    0.185192
   5 C :   -0.213644
   6 C :   -0.227322
   7 C :    0.305954
   8 C :   -0.209405
   9 C :   -0.204543
  10 O :   -0.402975
  11 H :    0.103055
  12 H :    0.102825
  13 H :    0.112798
  14 H :    0.113099
  15 H :    0.109656
  16 H :    0.113182
  17 H :    0.102839
  18 H :    0.103029
  19 H :    0.112809
  20 H :    0.098851
  21 H :    0.106462
  22 H :    0.089682
  23 H :    0.106799
  24 H :    0.312117
Sum of atomic charges:    0.0000000

LOEWDIN ATOMIC CHARGES
----------------------
   0 C :   -0.250047
   1 C :   -0.318583
   2 C :   -0.260315
   3 C :   -0.250068
   4 C :   -0.109917
   5 C :   -0.104108
   6 C :   -0.120607
   7 C :   -0.268284
   8 C :   -0.148283
   9 C :   -0.112725
  10 O :    0.067318
  11 H :    0.120756
  12 H :    0.121507
  13 H :    0.125183
  14 H :    0.122961
  15 H :    0.124504
  16 H :    0.122987
  17 H :    0.121516
  18 H :    0.120728
  19 H :    0.125184
  20 H :    0.146213
  21 H :    0.148705
  22 H :    0.140109
  23 H :    0.149030
  24 H :    0.186238

  Mayer bond orders larger than 0.100000
B(  0-C ,  1-C ) :   0.9524 B(  0-C , 11-H ) :   0.9658 B(  0-C , 12-H ) :   0.9698
B(  0-C , 13-H ) :   0.9740 B(  1-C ,  2-C ) :   0.9209 B(  1-C ,  3-C ) :   0.9523
B(  1-C ,  4-C ) :   0.9100 B(  2-C , 14-H ) :   0.9731 B(  2-C , 15-H ) :   0.9798
B(  2-C , 16-H ) :   0.9732 B(  3-C , 17-H ) :   0.9698 B(  3-C , 18-H ) :   0.9658
B(  3-C , 19-H ) :   0.9740 B(  4-C ,  5-C ) :   1.2983 B(  4-C ,  9-C ) :   1.3163
B(  5-C ,  6-C ) :   1.4614 B(  5-C , 20-H ) :   0.9784 B(  6-C ,  7-C ) :   1.3513
B(  6-C , 21-H ) :   0.9854 B(  7-C ,  8-C ) :   1.3329 B(  7-C , 10-O ) :   1.1004
B(  8-C ,  9-C ) :   1.4191 B(  8-C , 22-H ) :   0.9573 B(  9-C , 23-H ) :   0.9581
B( 10-O , 24-H ) :   0.8871

Dispersion correction           -0.009119613
FINAL SINGLE POINT ENERGY      -464.635806176495

DIPOLE MOMENT
-------------

Method             : SCF
Type of density    : Electron Density
Multiplicity       :   1
Irrep              :   0
Energy             :  -464.6367229525069433 Eh
Relativity type    :
Basis              : AO
                                X                 Y                 Z
Electronic contribution:     14.660794519      -0.102631367       0.003935993
Nuclear contribution   :    -14.778286379       0.603034494      -0.004208144
                        -----------------------------------------
Total Dipole Moment    :     -0.117491860       0.500403128      -0.000272151
                        -----------------------------------------
Magnitude (a.u.)       :      0.514011382
Magnitude (Debye)      :      1.306513104

VIBRATIONAL FREQUENCIES
-----------------------

Scaling factor for frequencies =  1.000000000  (already applied!)

     0:       0.00 cm**-1
     1:       0.00 cm**-1
     2:       0.00 cm**-1
     3:       0.00 cm**-1
     4:       0.00 cm**-1
     5:       0.00 cm**-1
     6:      65.46 cm**-1
     7:     100.96 cm**-1
     8:     211.42 cm**-1
     9:     227.54 cm**-1
    10:     265.05 cm**-1
    11:     290.58 cm**-1
    12:     306.23 cm**-1
    13:     341.42 cm**-1
    14:     351.77 cm**-1
    15:     369.78 cm**-1
    16:     414.75 cm**-1
    17:     417.01 cm**-1
    18:     426.48 cm**-1
    19:     446.92 cm**-1
    20:     478.71 cm**-1
    21:     511.40 cm**-1
    22:     551.25 cm**-1
    23:     659.74 cm**-1
    24:     667.35 cm**-1
    25:     745.52 cm**-1
    26:     802.42 cm**-1
    27:     822.49 cm**-1
    28:     840.45 cm**-1
    29:     858.70 cm**-1
    30:     913.96 cm**-1
    31:     929.15 cm**-1
    32:     944.39 cm**-1
    33:     950.66 cm**-1
    34:     957.76 cm**-1
    35:    1032.01 cm**-1
    36:    1041.81 cm**-1
    37:    1047.02 cm**-1
    38:    1132.38 cm**-1
    39:    1132.86 cm**-1
    40:    1193.58 cm**-1
    41:    1203.39 cm**-1
    42:    1221.75 cm**-1
    43:    1227.99 cm**-1
    44:    1262.70 cm**-1
    45:    1286.44 cm**-1
    46:    1331.68 cm**-1
    47:    1368.29 cm**-1
    48:    1385.03 cm**-1
    49:    1388.21 cm**-1
    50:    1419.94 cm**-1
    51:    1455.80 cm**-1
    52:    1471.72 cm**-1
    53:    1476.03 cm**-1
    54:    1482.17 cm**-1
    55:    1496.84 cm**-1
    56:    1499.65 cm**-1
    57:    1515.53 cm**-1
    58:    1536.14 cm**-1
    59:    1626.85 cm**-1
    60:    1641.02 cm**-1
    61:    2997.59 cm**-1
    62:    2998.66 cm**-1
    63:    3005.06 cm**-1
    64:    3073.34 cm**-1
    65:    3075.01 cm**-1
    66:    3081.59 cm**-1
    67:    3082.64 cm**-1
    68:    3086.85 cm**-1
    69:    3089.15 cm**-1
    70:    3147.35 cm**-1
    71:    3158.65 cm**-1
    72:    3177.12 cm**-1
    73:    3186.92 cm**-1
    74:    3759.85 cm**-1

IR SPECTRUM
-----------

 Mode   freq       eps      Int      T**2         TX        TY        TZ
       cm**-1   L/(mol*cm) km/mol    a.u.
----------------------------------------------------------------------------
  6:     65.46   0.000069    0.35  0.000327  (-0.000045 -0.000067  0.018080)
  7:    100.96   0.000035    0.18  0.000109  ( 0.000001  0.000061 -0.010433)
  8:    211.42   0.000125    0.63  0.000185  ( 0.011984 -0.006398 -0.000018)
  9:    227.54   0.000000    0.00  0.000000  ( 0.000042 -0.000040 -0.000542)
 10:    265.05   0.000014    0.07  0.000016  ( 0.000055  0.000022 -0.003997)
 11:    290.58   0.000008    0.04  0.000009  ( 0.002825 -0.000889  0.000000)
 12:    306.23   0.000026    0.13  0.000026  ( 0.005117  0.000221  0.000018)
 13:    341.42   0.000168    0.85  0.000153  ( 0.012177 -0.002203 -0.000019)
 14:    351.77   0.000003    0.02  0.000003  ( 0.000145 -0.000021  0.001642)
 15:    369.78   0.000001    0.01  0.000001  (-0.000023 -0.000003  0.001007)
 16:    414.75   0.014526   73.41  0.010930  ( 0.000017  0.000016  0.104544)
 17:    417.01   0.001413    7.14  0.001057  (-0.032508 -0.000625  0.000102)
 18:    426.48   0.004002   20.22  0.002928  (-0.000046 -0.000030 -0.054114)
 19:    446.92   0.000000    0.00  0.000000  (-0.000036 -0.000045 -0.000030)
 20:    478.71   0.000411    2.08  0.000268  (-0.015196 -0.006076  0.000007)
 21:    511.40   0.000573    2.90  0.000350  ( 0.018522 -0.002618 -0.000017)
 22:    551.25   0.005447   27.53  0.003084  (-0.000018  0.000036  0.055532)
 23:    659.74   0.000101    0.51  0.000048  ( 0.005749 -0.003867 -0.000001)
 24:    667.35   0.001515    7.66  0.000709  (-0.026588  0.001265  0.000007)
 25:    745.52   0.000115    0.58  0.000048  (-0.000087 -0.000023  0.006935)
 26:    802.42   0.002772   14.01  0.001078  ( 0.000026 -0.000013  0.032831)
 27:    822.49   0.004291   21.69  0.001628  (-0.040349 -0.000194 -0.000012)
 28:    840.45   0.006261   31.64  0.002325  ( 0.000032 -0.000025  0.048216)
 29:    858.70   0.000399    2.01  0.000145  (-0.012035 -0.000153  0.000021)
 30:    913.96   0.000012    0.06  0.000004  (-0.000007 -0.000015 -0.002009)
 31:    929.15   0.000144    0.73  0.000048  (-0.000019  0.000004  0.006962)
 32:    944.39   0.000159    0.80  0.000053  ( 0.004774 -0.005455 -0.000000)
 33:    950.66   0.000005    0.03  0.000002  (-0.000002 -0.000014 -0.001330)
 34:    957.76   0.000007    0.04  0.000002  (-0.000008 -0.000010  0.001546)
 35:   1032.01   0.000199    1.00  0.000060  ( 0.007746  0.000312 -0.000003)
 36:   1041.81   0.000130    0.66  0.000039  ( 0.005080 -0.003629  0.000003)
 37:   1047.02   0.000007    0.04  0.000002  ( 0.000048  0.000007 -0.001483)
 38:   1132.38   0.000020    0.10  0.000005  ( 0.002328 -0.000010 -0.000021)
 39:   1132.86   0.002852   14.41  0.000786  ( 0.016409  0.022726  0.000010)
 40:   1193.58   0.041830  211.39  0.010937  ( 0.104568 -0.001417 -0.000005)
 41:   1203.39   0.004531   22.90  0.001175  ( 0.033834 -0.005491 -0.000004)
 42:   1221.75   0.000756    3.82  0.000193  (-0.000060 -0.000014  0.013893)
 43:   1227.99   0.003756   18.98  0.000954  ( 0.030707 -0.003392  0.000006)
 44:   1262.70   0.009915   50.11  0.002450  (-0.049435 -0.002579  0.000002)
 45:   1286.44   0.002857   14.44  0.000693  (-0.026008  0.004076  0.000016)
 46:   1331.68   0.000803    4.06  0.000188  (-0.003118  0.013361  0.000003)
 47:   1368.29   0.005333   26.95  0.001216  (-0.031904 -0.014088  0.000011)
 48:   1385.03   0.001701    8.59  0.000383  ( 0.000024  0.000017 -0.019575)
 49:   1388.21   0.003396   17.16  0.000763  ( 0.019154 -0.019912 -0.000018)
 50:   1419.94   0.000809    4.09  0.000178  ( 0.013333  0.000276  0.000008)
 51:   1455.80   0.003990   20.16  0.000855  (-0.027621 -0.009606 -0.000003)
 52:   1471.72   0.000000    0.00  0.000000  (-0.000000 -0.000005  0.000075)
 53:   1476.03   0.000021    0.11  0.000004  (-0.000025  0.000008 -0.002115)
 54:   1482.17   0.000192    0.97  0.000040  ( 0.000837 -0.006305 -0.000022)
 55:   1496.84   0.001701    8.60  0.000355  (-0.003251 -0.018548  0.000031)
 56:   1499.65   0.001541    7.79  0.000321  (-0.000055 -0.000016 -0.017910)
 57:   1515.53   0.001064    5.38  0.000219  ( 0.014774 -0.000862  0.000038)
 58:   1536.14   0.020238  102.28  0.004111  (-0.063994  0.004016  0.000010)
 59:   1626.85   0.004185   21.15  0.000803  (-0.026938  0.008775  0.000004)
 60:   1641.02   0.005288   26.72  0.001006  (-0.031520 -0.003468  0.000009)
 61:   2997.59   0.006836   34.55  0.000712  (-0.000246 -0.000440 -0.026672)
 62:   2998.66   0.006157   31.11  0.000641  ( 0.009322  0.023528 -0.000520)
 63:   3005.06   0.005278   26.67  0.000548  (-0.022628  0.006007  0.000081)
 64:   3073.34   0.001089    5.50  0.000111  (-0.000202 -0.000005  0.010512)
 65:   3075.01   0.003229   16.32  0.000328  ( 0.018087 -0.000709  0.000104)
 66:   3081.59   0.004049   20.46  0.000410  (-0.000240 -0.000026  0.020248)
 67:   3082.64   0.016323   82.49  0.001652  ( 0.039310  0.010347  0.000138)
 68:   3086.85   0.003340   16.88  0.000338  (-0.000284  0.000519 -0.018367)
 69:   3089.15   0.008862   44.79  0.000895  ( 0.015243 -0.025745 -0.000330)
 70:   3147.35   0.003975   20.09  0.000394  (-0.017349 -0.009651 -0.000002)
 71:   3158.65   0.001888    9.54  0.000187  (-0.011265 -0.007724 -0.000006)
 72:   3177.12   0.001952    9.86  0.000192  ( 0.004048 -0.013241 -0.000002)
 73:   3186.92   0.001216    6.14  0.000119  (-0.000850  0.010878 -0.000002)
 74:   3759.85   0.010932   55.24  0.000907  (-0.024862 -0.017005  0.000004)

--------------------------
THERMOCHEMISTRY AT 298.15K
--------------------------

Temperature         ...   298.15 K
Pressure            ...     1.00 atm
Total Mass          ...   150.22 AMU
Quasi RRHO          ...     True
Cut-Off Frequency   ...     1.00 cm^-1

Throughout the following assumptions are being made:
  (1) The electronic state is orbitally nondegenerate
  (2) There are no thermally accessible electronically excited states
  (3) Hindered rotations indicated by low frequency modes are not
      treated as such but are treated as vibrations and this may
      cause some error
  (4) All equations used are the standard statistical mechanics
      equations for an ideal gas
  (5) All vibrations are strictly harmonic

freq.      65.46  E(vib)   ...       0.50
freq.     100.96  E(vib)   ...       0.46
freq.     211.42  E(vib)   ...       0.34
freq.     227.54  E(vib)   ...       0.33
freq.     265.05  E(vib)   ...       0.29
freq.     290.58  E(vib)   ...       0.27
freq.     306.23  E(vib)   ...       0.26
freq.     341.42  E(vib)   ...       0.23
freq.     351.77  E(vib)   ...       0.23
freq.     369.78  E(vib)   ...       0.21
freq.     414.75  E(vib)   ...       0.19
freq.     417.01  E(vib)   ...       0.18
freq.     426.48  E(vib)   ...       0.18
freq.     446.92  E(vib)   ...       0.17
freq.     478.71  E(vib)   ...       0.15
freq.     511.40  E(vib)   ...       0.14
freq.     551.25  E(vib)   ...       0.12
freq.     659.74  E(vib)   ...       0.08
freq.     667.35  E(vib)   ...       0.08
freq.     745.52  E(vib)   ...       0.06
freq.     802.42  E(vib)   ...       0.05
freq.     822.49  E(vib)   ...       0.05
freq.     840.45  E(vib)   ...       0.04
freq.     858.70  E(vib)   ...       0.04
freq.     913.96  E(vib)   ...       0.03
freq.     929.15  E(vib)   ...       0.03
freq.     944.39  E(vib)   ...       0.03
freq.     950.66  E(vib)   ...       0.03
freq.     957.76  E(vib)   ...       0.03
freq.    1032.01  E(vib)   ...       0.02
freq.    1041.81  E(vib)   ...       0.02
freq.    1047.02  E(vib)   ...       0.02
freq.    1132.38  E(vib)   ...       0.01
freq.    1132.86  E(vib)   ...       0.01
freq.    1193.58  E(vib)   ...       0.01
freq.    1203.39  E(vib)   ...       0.01
freq.    1221.75  E(vib)   ...       0.01
freq.    1227.99  E(vib)   ...       0.01
freq.    1262.70  E(vib)   ...       0.01
freq.    1286.44  E(vib)   ...       0.01
freq.    1331.68  E(vib)   ...       0.01
freq.    1368.29  E(vib)   ...       0.01
freq.    1385.03  E(vib)   ...       0.00
freq.    1388.21  E(vib)   ...       0.00
freq.    1419.94  E(vib)   ...       0.00
freq.    1455.80  E(vib)   ...       0.00
freq.    1471.72  E(vib)   ...       0.00
freq.    1476.03  E(vib)   ...       0.00
freq.    1482.17  E(vib)   ...       0.00
freq.    1496.84  E(vib)   ...       0.00
freq.    1499.65  E(vib)   ...       0.00
freq.    1515.53  E(vib)   ...       0.00
freq.    1536.14  E(vib)   ...       0.00
freq.    1626.85  E(vib)   ...       0.00
freq.    1641.02  E(vib)   ...       0.00
freq.    2997.59  E(vib)   ...       0.00
freq.    2998.66  E(vib)   ...       0.00
freq.    3005.06  E(vib)   ...       0.00
freq.    3073.34  E(vib)   ...       0.00
freq.    3075.01  E(vib)   ...       0.00
freq.    3081.59  E(vib)   ...       0.00
freq.    3082.64  E(vib)   ...       0.00
freq.    3086.85  E(vib)   ...       0.00
freq.    3089.15  E(vib)   ...       0.00
freq.    3147.35  E(vib)   ...       0.00
freq.    3158.65  E(vib)   ...       0.00
freq.    3177.12  E(vib)   ...       0.00
freq.    3186.92  E(vib)   ...       0.00
freq.    3759.85  E(vib)   ...       0.00

------------
INNER ENERGY
------------

The inner energy is: U= E(el) + E(ZPE) + E(vib) + E(rot) + E(trans)
    E(el)   - is the total energy from the electronic structure calculation
              = E(kin-el) + E(nuc-el) + E(el-el) + E(nuc-nuc)
    E(ZPE)  - the the zero temperature vibrational energy from the frequency calculation
    E(vib)  - the the finite temperature correction to E(ZPE) due to population
              of excited vibrational states
    E(rot)  - is the rotational thermal energy
    E(trans)- is the translational thermal energy

Summary of contributions to the inner energy U:
Electronic energy                ...   -464.63580618 Eh
Zero point energy                ...      0.21566486 Eh     135.33 kcal/mol
Thermal vibrational correction   ...      0.00794298 Eh       4.98 kcal/mol
Thermal rotational correction    ...      0.00141627 Eh       0.89 kcal/mol
Thermal translational correction ...      0.00141627 Eh       0.89 kcal/mol
-----------------------------------------------------------------------
Total thermal energy                   -464.40936579 Eh

Summary of corrections to the electronic energy:
(perhaps to be used in another calculation)
Total thermal correction                  0.01077553 Eh       6.76 kcal/mol
Non-thermal (ZPE) correction              0.21566486 Eh     135.33 kcal/mol
-----------------------------------------------------------------------
Total correction                          0.22644039 Eh     142.09 kcal/mol

--------
ENTHALPY
--------

The enthalpy is H = U + kB*T
                kB is Boltzmann's constant
Total thermal energy              ...   -464.40936579 Eh
Thermal Enthalpy correction       ...      0.00094421 Eh       0.59 kcal/mol
-----------------------------------------------------------------------
Total Enthalpy                    ...   -464.40842158 Eh

Note: Only C1 symmetry has been detected, increase convergence thresholds
      if your molecule has a higher symmetry. Symmetry factor of 1.0 is
      used for the rotational entropy correction.

Note: Rotational entropy computed according to Herzberg
Infrared and Raman Spectra, Chapter V,1, Van Nostrand Reinhold, 1945
Point Group:  C1, Symmetry Number:   1
Rotational constants in cm-1:     0.085092     0.021353     0.019225

Vibrational entropy computed according to the QRRHO of S. Grimme
Chem.Eur.J. 2012 18 9955 using a reference frequency of 100.0 cm-1

-------
ENTROPY
-------

The entropy contributions are T*S = T*(S(el)+S(vib)+S(rot)+S(trans))
     S(el)   - electronic entropy
     S(vib)  - vibrational entropy
     S(rot)  - rotational entropy
     S(trans)- translational entropy
The entropies will be listed as multiplied by the temperature to get
units of energy

Electronic entropy                ...      0.00000000 Eh      0.00 kcal/mol
Vibrational entropy               ...      0.01279186 Eh      8.03 kcal/mol
Rotational entropy                ...      0.01435547 Eh      9.01 kcal/mol

                             ****ORCA TERMINATED NORMALLY****
TOTAL RUN TIME: 0 days 0 hours 33 minutes 12 seconds 965 msec
