                         Program Version 6.0.0  -   RELEASE  -
|  1> ! r2SCAN-3c DEF2-TZVP FREQ
|  2> * xyzfile 0 1 vacuum_censo.xyz
|  3>
|  4>                          ****END OF INPUT****

CARTESIAN COORDINATES (ANGSTROEM)
---------------------------------
  C     -2.583257    1.408586   -0.000722
  C     -1.971720    0.002744    0.000009
  C     -2.467826   -0.736703    1.257150
  C     -2.467917   -0.738015   -1.256326
  C     -0.441428    0.035043   -0.000030
  C      0.282621   -1.165617    0.000052
  C      1.668313   -1.192523    0.000050
  C      2.380993    0.005276   -0.000007
  C      1.691392    1.212563   -0.000058
  C      0.297425    1.218307   -0.000076
  O      3.748770   -0.073119   -0.000010
  H     -3.674887    1.330295   -0.000746
  H     -2.291458    1.977776    0.887955
  H     -2.291322    1.976866   -0.889938
  H     -2.119945   -0.232056    2.164056
  H     -3.563061   -0.764467    1.274203
  H     -2.105414   -1.768150    1.286138
  H     -3.563160   -0.765359   -1.273500
  H     -2.119705   -0.234599   -2.163788
  H     -2.105949   -1.769650   -1.284023
  H     -0.245870   -2.113867    0.000105
  H      2.212076   -2.131044    0.000083
  H      2.236353    2.153875   -0.000091
  H     -0.205556    2.178031   -0.000136
  H      4.112599    0.819227   -0.000124

 Total Charge           Charge          ....    0
 Multiplicity           Mult            ....    1
 Number of Electrons    NEL             ....   82
 Basis Dimension        Dim             ....  425

ORBITAL ENERGIES
----------------

  NO   OCC          E(Eh)            E(eV)
   0   2.0000     -18.984062      -516.5826
   1   2.0000     -10.093145      -274.6484
   2   2.0000     -10.051265      -273.5088
   3   2.0000     -10.034731      -273.0589
   4   2.0000     -10.034351      -273.0486
   5   2.0000     -10.033903      -273.0364
   6   2.0000     -10.033555      -273.0269
   7   2.0000     -10.029397      -272.9138
   8   2.0000     -10.020026      -272.6588
   9   2.0000     -10.019042      -272.6320
  10   2.0000     -10.019041      -272.6320
  11   2.0000      -1.025189       -27.8968
  12   2.0000      -0.824331       -22.4312
  13   2.0000      -0.779146       -21.2016
  14   2.0000      -0.715255       -19.4631
  15   2.0000      -0.694950       -18.9105
  16   2.0000      -0.652985       -17.7686
  17   2.0000      -0.650857       -17.7107
  18   2.0000      -0.591941       -16.1075
  19   2.0000      -0.574406       -15.6304
  20   2.0000      -0.517987       -14.0951
  21   2.0000      -0.513045       -13.9607
  22   2.0000      -0.453784       -12.3481
  23   2.0000      -0.435761       -11.8577
  24   2.0000      -0.417335       -11.3563
  25   2.0000      -0.409311       -11.1379
  26   2.0000      -0.399356       -10.8670
  27   2.0000      -0.388845       -10.5810
  28   2.0000      -0.379724       -10.3328
  29   2.0000      -0.372053       -10.1241
  30   2.0000      -0.360692        -9.8149
  31   2.0000      -0.356719        -9.7068
  32   2.0000      -0.341868        -9.3027
  33   2.0000      -0.333776        -9.0825
  34   2.0000      -0.316289        -8.6067
  35   2.0000      -0.312187        -8.4951
  36   2.0000      -0.294785        -8.0215
  37   2.0000      -0.293510        -7.9868
  38   2.0000      -0.287295        -7.8177
  39   2.0000      -0.235482        -6.4078
  40   2.0000      -0.199630        -5.4322
  41   0.0000      -0.034160        -0.9295
  42   0.0000      -0.015012        -0.4085
  43   0.0000       0.037210         1.0125
  44   0.0000       0.038386         1.0445
  45   0.0000       0.067035         1.8241

MULLIKEN ATOMIC CHARGES
-----------------------
   0 C :   -0.379031
   1 C :    0.140509
   2 C :   -0.341499
   3 C :   -0.341523
   4 C :    0.183368
   5 C :   -0.214601
   6 C :   -0.224146
   7 C :    0.305917
   8 C :   -0.211627
   9 C :   -0.202819
  10 O :   -0.400768
  11 H :    0.109864
  12 H :    0.112944
  13 H :    0.112969
  14 H :    0.112853
  15 H :    0.103067
  16 H :    0.102972
  17 H :    0.103069
  18 H :    0.112866
  19 H :    0.102962
  20 H :    0.098361
  21 H :    0.105637
  22 H :    0.089642
  23 H :    0.106862
  24 H :    0.312151
Sum of atomic charges:   -0.0000000

LOEWDIN ATOMIC CHARGES
----------------------
   0 C :   -0.260420
   1 C :   -0.316756
   2 C :   -0.250196
   3 C :   -0.250201
   4 C :   -0.111048
   5 C :   -0.104580
   6 C :   -0.120840
   7 C :   -0.276054
   8 C :   -0.148598
   9 C :   -0.113406
  10 O :    0.078871
  11 H :    0.124208
  12 H :    0.122823
  13 H :    0.122833
  14 H :    0.125092
  15 H :    0.121312
  16 H :    0.120481
  17 H :    0.121313
  18 H :    0.125095
  19 H :    0.120472
  20 H :    0.146413
  21 H :    0.148507
  22 H :    0.140291
  23 H :    0.149071
  24 H :    0.185317

  Mayer bond orders larger than 0.100000
B(  0-C ,  1-C ) :   0.9207 B(  0-C , 11-H ) :   0.9800 B(  0-C , 12-H ) :   0.9732
B(  0-C , 13-H ) :   0.9732 B(  1-C ,  2-C ) :   0.9522 B(  1-C ,  3-C ) :   0.9522
B(  1-C ,  4-C ) :   0.9116 B(  2-C , 14-H ) :   0.9742 B(  2-C , 15-H ) :   0.9697
B(  2-C , 16-H ) :   0.9661 B(  3-C , 17-H ) :   0.9697 B(  3-C , 18-H ) :   0.9742
B(  3-C , 19-H ) :   0.9661 B(  4-C ,  5-C ) :   1.2965 B(  4-C ,  9-C ) :   1.3184
B(  5-C ,  6-C ) :   1.4656 B(  5-C , 20-H ) :   0.9787 B(  6-C ,  7-C ) :   1.3474
B(  6-C , 21-H ) :   0.9859 B(  7-C ,  8-C ) :   1.3316 B(  7-C , 10-O ) :   1.1080
B(  8-C ,  9-C ) :   1.4194 B(  8-C , 22-H ) :   0.9567 B(  9-C , 23-H ) :   0.9577
B( 10-O , 24-H ) :   0.8872

Dispersion correction           -0.009122864
FINAL SINGLE POINT ENERGY      -464.636017732023

DIPOLE MOMENT
-------------

Method             : SCF
Type of density    : Electron Density
Multiplicity       :   1
Irrep              :   0
Energy             :  -464.6369226720527195 Eh
Relativity type    :
Basis              : AO
                                X                 Y                 Z
Electronic contribution:     14.679947189      -0.108613415      -0.000198844
Nuclear contribution   :    -14.763212939       0.607415616       0.000134603
                        -----------------------------------------
Total Dipole Moment    :     -0.083265750       0.498802201      -0.000064241
                        -----------------------------------------
Magnitude (a.u.)       :      0.505704286
Magnitude (Debye)      :      1.285398143

VIBRATIONAL FREQUENCIES
-----------------------

Scaling factor for frequencies =  1.000000000  (already applied!)

     0:       0.00 cm**-1
     1:       0.00 cm**-1
     2:       0.00 cm**-1
     3:       0.00 cm**-1
     4:       0.00 cm**-1
     5:       0.00 cm**-1
     6:      58.48 cm**-1
     7:      97.09 cm**-1
     8:     208.72 cm**-1
     9:     219.98 cm**-1
    10:     259.03 cm**-1
    11:     282.14 cm**-1
    12:     303.29 cm**-1
    13:     339.56 cm**-1
    14:     347.00 cm**-1
    15:     358.06 cm**-1
    16:     369.34 cm**-1
    17:     411.98 cm**-1
    18:     421.60 cm**-1
    19:     445.50 cm**-1
    20:     476.39 cm**-1
    21:     511.36 cm**-1
    22:     548.67 cm**-1
    23:     660.56 cm**-1
    24:     669.15 cm**-1
    25:     744.54 cm**-1
    26:     803.53 cm**-1
    27:     825.83 cm**-1
    28:     839.00 cm**-1
    29:     861.23 cm**-1
    30:     914.18 cm**-1
    31:     927.26 cm**-1
    32:     940.36 cm**-1
    33:     949.02 cm**-1
    34:     956.08 cm**-1
    35:    1032.41 cm**-1
    36:    1040.62 cm**-1
    37:    1045.55 cm**-1
    38:    1132.53 cm**-1
    39:    1134.55 cm**-1
    40:    1190.53 cm**-1
    41:    1203.09 cm**-1
    42:    1220.66 cm**-1
    43:    1225.88 cm**-1
    44:    1282.01 cm**-1
    45:    1285.96 cm**-1
    46:    1335.05 cm**-1
    47:    1370.72 cm**-1
    48:    1383.78 cm**-1
    49:    1387.01 cm**-1
    50:    1418.64 cm**-1
    51:    1458.31 cm**-1
    52:    1470.79 cm**-1
    53:    1476.27 cm**-1
    54:    1482.06 cm**-1
    55:    1495.54 cm**-1
    56:    1499.75 cm**-1
    57:    1514.85 cm**-1
    58:    1541.80 cm**-1
    59:    1629.00 cm**-1
    60:    1649.02 cm**-1
    61:    3001.87 cm**-1
    62:    3002.03 cm**-1
    63:    3008.47 cm**-1
    64:    3078.24 cm**-1
    65:    3079.12 cm**-1
    66:    3084.64 cm**-1
    67:    3085.92 cm**-1
    68:    3091.96 cm**-1
    69:    3094.11 cm**-1
    70:    3140.82 cm**-1
    71:    3161.50 cm**-1
    72:    3184.44 cm**-1
    73:    3189.99 cm**-1
    74:    3808.30 cm**-1

IR SPECTRUM
-----------

 Mode   freq       eps      Int      T**2         TX        TY        TZ
       cm**-1   L/(mol*cm) km/mol    a.u.
----------------------------------------------------------------------------
  6:     58.48   0.000132    0.67  0.000706  (-0.000025  0.000018  0.026562)
  7:     97.09   0.000045    0.23  0.000146  ( 0.000022 -0.000032 -0.012072)
  8:    208.72   0.000146    0.74  0.000219  ( 0.013122 -0.006845  0.000005)
  9:    219.98   0.000003    0.02  0.000005  (-0.000042  0.000019  0.002179)
 10:    259.03   0.000048    0.24  0.000058  (-0.000006 -0.000011 -0.007607)
 11:    282.14   0.000005    0.02  0.000005  (-0.002149  0.000755 -0.000008)
 12:    303.29   0.000044    0.22  0.000045  ( 0.006713 -0.000166 -0.000013)
 13:    339.56   0.000169    0.85  0.000155  ( 0.012244 -0.002267 -0.000023)
 14:    347.00   0.000046    0.23  0.000041  (-0.000076  0.000013 -0.006436)
 15:    358.06   0.018359   92.78  0.016000  (-0.000012  0.000022  0.126492)
 16:    369.34   0.000435    2.20  0.000368  ( 0.000004  0.000003  0.019182)
 17:    411.98   0.001492    7.54  0.001130  (-0.033620 -0.000365 -0.000003)
 18:    421.60   0.000108    0.55  0.000080  (-0.000004 -0.000008  0.008940)
 19:    445.50   0.000006    0.03  0.000004  ( 0.000004  0.000016 -0.002039)
 20:    476.39   0.000383    1.93  0.000251  (-0.014754 -0.005737 -0.000001)
 21:    511.36   0.000505    2.55  0.000308  (-0.017375  0.002482 -0.000001)
 22:    548.67   0.005043   25.49  0.002868  ( 0.000016 -0.000014  0.053557)
 23:    660.56   0.000063    0.32  0.000030  ( 0.003855 -0.003854 -0.000001)
 24:    669.15   0.001359    6.87  0.000634  ( 0.025130 -0.001549 -0.000000)
 25:    744.54   0.000139    0.70  0.000058  ( 0.000010  0.000009  0.007638)
 26:    803.53   0.002498   12.62  0.000970  (-0.000004 -0.000001  0.031147)
 27:    825.83   0.003576   18.07  0.001351  (-0.036760 -0.000013  0.000005)
 28:    839.00   0.006548   33.09  0.002435  (-0.000015  0.000005  0.049349)
 29:    861.23   0.000579    2.92  0.000210  (-0.014479  0.000063 -0.000007)
 30:    914.18   0.000003    0.01  0.000001  (-0.000005 -0.000003  0.000968)
 31:    927.26   0.000128    0.65  0.000043  (-0.000005  0.000002 -0.006567)
 32:    940.36   0.000161    0.81  0.000054  (-0.004795  0.005524 -0.000001)
 33:    949.02   0.000006    0.03  0.000002  ( 0.000003 -0.000001  0.001387)
 34:    956.08   0.000009    0.04  0.000003  (-0.000003  0.000003  0.001678)
 35:   1032.41   0.000152    0.77  0.000046  ( 0.006741  0.000751  0.000001)
 36:   1040.62   0.000132    0.67  0.000040  ( 0.005347 -0.003318  0.000000)
 37:   1045.55   0.000007    0.04  0.000002  ( 0.000009  0.000001  0.001451)
 38:   1132.53   0.001102    5.57  0.000304  (-0.012749 -0.011876 -0.000001)
 39:   1134.55   0.002337   11.81  0.000643  (-0.016784 -0.019001  0.000005)
 40:   1190.53   0.041303  208.73  0.010826  ( 0.103899 -0.005615 -0.000000)
 41:   1203.09   0.000476    2.40  0.000123  ( 0.010145  0.004524 -0.000000)
 42:   1220.66   0.000791    4.00  0.000202  (-0.000007  0.000008  0.014225)
 43:   1225.88   0.002314   11.70  0.000589  ( 0.023938 -0.004015  0.000010)
 44:   1282.01   0.017013   85.98  0.004141  (-0.064351 -0.000407  0.000002)
 45:   1285.96   0.001410    7.12  0.000342  (-0.017984  0.004327 -0.000005)
 46:   1335.05   0.000709    3.58  0.000166  (-0.003341  0.012432 -0.000001)
 47:   1370.72   0.005638   28.49  0.001284  (-0.031935 -0.016238 -0.000003)
 48:   1383.78   0.001707    8.63  0.000385  ( 0.000003 -0.000007 -0.019623)
 49:   1387.01   0.003379   17.08  0.000760  ( 0.019880 -0.019108  0.000010)
 50:   1418.64   0.000752    3.80  0.000165  (-0.012861  0.000157  0.000000)
 51:   1458.31   0.003399   17.18  0.000727  ( 0.025506  0.008760 -0.000003)
 52:   1470.79   0.000000    0.00  0.000000  ( 0.000004  0.000003  0.000177)
 53:   1476.27   0.000015    0.08  0.000003  (-0.000013  0.000005  0.001798)
 54:   1482.06   0.000187    0.94  0.000039  ( 0.000327 -0.006264  0.000007)
 55:   1495.54   0.001709    8.64  0.000357  ( 0.001848  0.018794  0.000002)
 56:   1499.75   0.001548    7.82  0.000322  (-0.000015 -0.000001  0.017948)
 57:   1514.85   0.001243    6.28  0.000256  (-0.015994  0.000480  0.000009)
 58:   1541.80   0.021492  108.61  0.004350  ( 0.065854 -0.003657  0.000005)
 59:   1629.00   0.003789   19.15  0.000726  (-0.025229  0.009451  0.000000)
 60:   1649.02   0.007023   35.49  0.001329  (-0.036356 -0.002711  0.000001)
 61:   3001.87   0.006627   33.49  0.000689  (-0.000176 -0.000542  0.026241)
 62:   3002.03   0.006140   31.03  0.000638  ( 0.006926  0.024289  0.000589)
 63:   3008.47   0.005813   29.38  0.000603  ( 0.024409 -0.002676  0.000019)
 64:   3078.24   0.000942    4.76  0.000095  (-0.000039  0.000003 -0.009771)
 65:   3079.12   0.001481    7.49  0.000150  ( 0.011519 -0.004177 -0.000036)
 66:   3084.64   0.004564   23.06  0.000462  ( 0.000124  0.000017  0.021487)
 67:   3085.92   0.018410   93.04  0.001862  (-0.042618 -0.006740  0.000060)
 68:   3091.96   0.003161   15.97  0.000319  (-0.000051  0.000132  0.017860)
 69:   3094.11   0.008001   40.44  0.000807  (-0.009738  0.026687 -0.000086)
 70:   3140.82   0.004146   20.95  0.000412  (-0.017488 -0.010301  0.000001)
 71:   3161.50   0.002167   10.95  0.000214  ( 0.011062  0.009566 -0.000003)
 72:   3184.44   0.002087   10.55  0.000205  ( 0.005617 -0.013154  0.000001)
 73:   3189.99   0.000973    4.92  0.000095  (-0.000896  0.009717  0.000001)
 74:   3808.30   0.011246   56.83  0.000922  ( 0.025142  0.017012 -0.000003)

--------------------------
THERMOCHEMISTRY AT 298.15K
--------------------------

Temperature         ...   298.15 K
Pressure            ...     1.00 atm
Total Mass          ...   150.22 AMU
Quasi RRHO          ...     True
Cut-Off Frequency   ...     1.00 cm^-1

Throughout the following assumptions are being made:
  (1) The electronic state is orbitally nondegenerate
  (2) There are no thermally accessible electronically excited states
  (3) Hindered rotations indicated by low frequency modes are not
      treated as such but are treated as vibrations and this may
      cause some error
  (4) All equations used are the standard statistical mechanics
      equations for an ideal gas
  (5) All vibrations are strictly harmonic

freq.      58.48  E(vib)   ...       0.51
freq.      97.09  E(vib)   ...       0.46
freq.     208.72  E(vib)   ...       0.34
freq.     219.98  E(vib)   ...       0.33
freq.     259.03  E(vib)   ...       0.30
freq.     282.14  E(vib)   ...       0.28
freq.     303.29  E(vib)   ...       0.26
freq.     339.56  E(vib)   ...       0.23
freq.     347.00  E(vib)   ...       0.23
freq.     358.06  E(vib)   ...       0.22
freq.     369.34  E(vib)   ...       0.21
freq.     411.98  E(vib)   ...       0.19
freq.     421.60  E(vib)   ...       0.18
freq.     445.50  E(vib)   ...       0.17
freq.     476.39  E(vib)   ...       0.15
freq.     511.36  E(vib)   ...       0.14
freq.     548.67  E(vib)   ...       0.12
freq.     660.56  E(vib)   ...       0.08
freq.     669.15  E(vib)   ...       0.08
freq.     744.54  E(vib)   ...       0.06
freq.     803.53  E(vib)   ...       0.05
freq.     825.83  E(vib)   ...       0.04
freq.     839.00  E(vib)   ...       0.04
freq.     861.23  E(vib)   ...       0.04
freq.     914.18  E(vib)   ...       0.03
freq.     927.26  E(vib)   ...       0.03
freq.     940.36  E(vib)   ...       0.03
freq.     949.02  E(vib)   ...       0.03
freq.     956.08  E(vib)   ...       0.03
freq.    1032.41  E(vib)   ...       0.02
freq.    1040.62  E(vib)   ...       0.02
freq.    1045.55  E(vib)   ...       0.02
freq.    1132.53  E(vib)   ...       0.01
freq.    1134.55  E(vib)   ...       0.01
freq.    1190.53  E(vib)   ...       0.01
freq.    1203.09  E(vib)   ...       0.01
freq.    1220.66  E(vib)   ...       0.01
freq.    1225.88  E(vib)   ...       0.01
freq.    1282.01  E(vib)   ...       0.01
freq.    1285.96  E(vib)   ...       0.01
freq.    1335.05  E(vib)   ...       0.01
freq.    1370.72  E(vib)   ...       0.01
freq.    1383.78  E(vib)   ...       0.00
freq.    1387.01  E(vib)   ...       0.00
freq.    1418.64  E(vib)   ...       0.00
freq.    1458.31  E(vib)   ...       0.00
freq.    1470.79  E(vib)   ...       0.00
freq.    1476.27  E(vib)   ...       0.00
freq.    1482.06  E(vib)   ...       0.00
freq.    1495.54  E(vib)   ...       0.00
freq.    1499.75  E(vib)   ...       0.00
freq.    1514.85  E(vib)   ...       0.00
freq.    1541.80  E(vib)   ...       0.00
freq.    1629.00  E(vib)   ...       0.00
freq.    1649.02  E(vib)   ...       0.00
freq.    3001.87  E(vib)   ...       0.00
freq.    3002.03  E(vib)   ...       0.00
freq.    3008.47  E(vib)   ...       0.00
freq.    3078.24  E(vib)   ...       0.00
freq.    3079.12  E(vib)   ...       0.00
freq.    3084.64  E(vib)   ...       0.00
freq.    3085.92  E(vib)   ...       0.00
freq.    3091.96  E(vib)   ...       0.00
freq.    3094.11  E(vib)   ...       0.00
freq.    3140.82  E(vib)   ...       0.00
freq.    3161.50  E(vib)   ...       0.00
freq.    3184.44  E(vib)   ...       0.00
freq.    3189.99  E(vib)   ...       0.00
freq.    3808.30  E(vib)   ...       0.00

------------
INNER ENERGY
------------

The inner energy is: U= E(el) + E(ZPE) + E(vib) + E(rot) + E(trans)
    E(el)   - is the total energy from the electronic structure calculation
              = E(kin-el) + E(nuc-el) + E(el-el) + E(nuc-nuc)
    E(ZPE)  - the the zero temperature vibrational energy from the frequency calculation
    E(vib)  - the the finite temperature correction to E(ZPE) due to population
              of excited vibrational states
    E(rot)  - is the rotational thermal energy
    E(trans)- is the translational thermal energy

Summary of contributions to the inner energy U:
Electronic energy                ...   -464.63601773 Eh
Zero point energy                ...      0.21566668 Eh     135.33 kcal/mol
Thermal vibrational correction   ...      0.00808038 Eh       5.07 kcal/mol
Thermal rotational correction    ...      0.00141627 Eh       0.89 kcal/mol
Thermal translational correction ...      0.00141627 Eh       0.89 kcal/mol
-----------------------------------------------------------------------
Total thermal energy                   -464.40943813 Eh

Summary of corrections to the electronic energy:
(perhaps to be used in another calculation)
Total thermal correction                  0.01091292 Eh       6.85 kcal/mol
Non-thermal (ZPE) correction              0.21566668 Eh     135.33 kcal/mol
-----------------------------------------------------------------------
Total correction                          0.22657960 Eh     142.18 kcal/mol

--------
ENTHALPY
--------

The enthalpy is H = U + kB*T
                kB is Boltzmann's constant
Total thermal energy              ...   -464.40943813 Eh
Thermal Enthalpy correction       ...      0.00094421 Eh       0.59 kcal/mol
-----------------------------------------------------------------------
Total Enthalpy                    ...   -464.40849392 Eh

Note: Only C1 symmetry has been detected, increase convergence thresholds
      if your molecule has a higher symmetry. Symmetry factor of 1.0 is
      used for the rotational entropy correction.

Note: Rotational entropy computed according to Herzberg
Infrared and Raman Spectra, Chapter V,1, Van Nostrand Reinhold, 1945
Point Group:  C1, Symmetry Number:   1
Rotational constants in cm-1:     0.085168     0.021373     0.019255

Vibrational entropy computed according to the QRRHO of S. Grimme
Chem.Eur.J. 2012 18 9955 using a reference frequency of 100.0 cm-1

-------
ENTROPY
-------

The entropy contributions are T*S = T*(S(el)+S(vib)+S(rot)+S(trans))
     S(el)   - electronic entropy
     S(vib)  - vibrational entropy
     S(rot)  - rotational entropy
     S(trans)- translational entropy
The entropies will be listed as multiplied by the temperature to get
units of energy

Electronic entropy                ...      0.00000000 Eh      0.00 kcal/mol
Vibrational entropy               ...      0.01307501 Eh      8.20 kcal/mol
Rotational entropy                ...      0.01435386 Eh      9.01 kcal/mol

                             ****ORCA TERMINATED NORMALLY****
TOTAL RUN TIME: 0 days 0 hours 33 minutes 13 seconds 167 msec
