                         Program Version 6.0.1  -  RELEASE   -
|  1> ! pbe def2-sv(p) def2/J RI DEFGRID1 loosescf d4 GCP(DFT/SV(P)) printgap
|  2> %output
|  3>     printlevel normal
|  4> end
|  5> * xyz 0 1
|  6> C -2.7726206656 0.40310857 0.0002637468
|  7> O -1.7901732751 -0.6026413444 -0.0002646629
|  8> C -0.4777224313 -0.2326311979 -8.72576e-05
|  9> C -0.0194831099 1.0795830183 -0.0001270399
| 10> C 1.3431029485 1.3324266599 -2.86456e-05
| 11> C 2.256119679 0.295444616 5.33564e-05
| 12> C 1.7993239176 -1.0138997282 7.21117e-05
| 13> C 0.4462704512 -1.278835248 5.92375e-05
| 14> H -2.7057480781 1.0324761161 -0.8933853125
| 15> H -2.704728328 1.0326202177 0.8937806158
| 16> H -3.7285984467 -0.1184744932 0.0009127488
| 17> H -0.7081592994 1.9100566304 -0.0002029038
| 18> H 1.6873866213 2.3565638184 0.0001312612
| 19> H 3.3154066871 0.5027741963 0.0001280434
| 20> H 2.503462423 -1.8327598936 0.0002359289
| 21> H 0.0723842395 -2.2906358149 0.0001518519
| 22> *
| 23>
| 24>                          ****END OF INPUT****

CARTESIAN COORDINATES (ANGSTROEM)
---------------------------------
  C     -2.772621    0.403109    0.000264
  O     -1.790173   -0.602641   -0.000265
  C     -0.477722   -0.232631   -0.000087
  C     -0.019483    1.079583   -0.000127
  C      1.343103    1.332427   -0.000029
  C      2.256120    0.295445    0.000053
  C      1.799324   -1.013900    0.000072
  C      0.446270   -1.278835    0.000059
  H     -2.705748    1.032476   -0.893385
  H     -2.704728    1.032620    0.893781
  H     -3.728598   -0.118474    0.000913
  H     -0.708159    1.910057   -0.000203
  H      1.687387    2.356564    0.000131
  H      3.315407    0.502774    0.000128
  H      2.503462   -1.832760    0.000236
  H      0.072384   -2.290636    0.000152

 Total Charge           Charge          ....    0
 Multiplicity           Mult            ....    1
 Number of Electrons    NEL             ....   58
 Basis Dimension        Dim             ....  128

ORBITAL ENERGIES
----------------

  NO   OCC          E(Eh)            E(eV)
   0   2.0000     -18.783939      -511.1370
   1   2.0000      -9.948426      -270.7104
   2   2.0000      -9.940476      -270.4941
   3   2.0000      -9.891542      -269.1625
   4   2.0000      -9.890114      -269.1237
   5   2.0000      -9.889128      -269.0968
   6   2.0000      -9.884341      -268.9666
   7   2.0000      -9.883363      -268.9400
   8   2.0000      -0.968417       -26.3520
   9   2.0000      -0.770601       -20.9691
  10   2.0000      -0.682347       -18.5676
  11   2.0000      -0.668752       -18.1977
  12   2.0000      -0.622541       -16.9402
  13   2.0000      -0.544572       -14.8186
  14   2.0000      -0.527160       -14.3448
  15   2.0000      -0.487097       -13.2546
  16   2.0000      -0.434269       -11.8171
  17   2.0000      -0.427511       -11.6332
  18   2.0000      -0.420345       -11.4382
  19   2.0000      -0.394751       -10.7417
  20   2.0000      -0.375618       -10.2211
  21   2.0000      -0.367445        -9.9987
  22   2.0000      -0.338864        -9.2210
  23   2.0000      -0.319557        -8.6956
  24   2.0000      -0.310359        -8.4453
  25   2.0000      -0.280369        -7.6292
  26   2.0000      -0.278552        -7.5798
  27   2.0000      -0.227406        -6.1880
  28   2.0000      -0.192623        -5.2415
  29   0.0000      -0.031757        -0.8642
  30   0.0000      -0.017513        -0.4765
  31   0.0000       0.040855         1.1117
  32   0.0000       0.054784         1.4908
  33   0.0000       0.082309         2.2398

MULLIKEN ATOMIC CHARGES
-----------------------
   0 C :   -0.117899
   1 O :   -0.264086
   2 C :    0.263154
   3 C :   -0.192137
   4 C :   -0.054061
   5 C :   -0.048441
   6 C :   -0.056120
   7 C :   -0.111945
   8 H :    0.109426
   9 H :    0.109430
  10 H :    0.124823
  11 H :    0.039932
  12 H :    0.051704
  13 H :    0.047953
  14 H :    0.053811
  15 H :    0.044457
Sum of atomic charges:   -0.0000000

LOEWDIN ATOMIC CHARGES
----------------------
   0 C :   -0.204499
   1 O :   -0.089224
   2 C :    0.031154
   3 C :   -0.176527
   4 C :   -0.115756
   5 C :   -0.147329
   6 C :   -0.116915
   7 C :   -0.142621
   8 H :    0.108264
   9 H :    0.108264
  10 H :    0.121757
  11 H :    0.125367
  12 H :    0.123111
  13 H :    0.121751
  14 H :    0.124073
  15 H :    0.129132

  Mayer bond orders larger than 0.100000
B(  0-C ,  1-O ) :   0.9950 B(  0-C ,  8-H ) :   0.9411 B(  0-C ,  9-H ) :   0.9410
B(  0-C , 10-H ) :   0.9588 B(  1-O ,  2-C ) :   1.1376 B(  2-C ,  3-C ) :   1.3070
B(  2-C ,  7-C ) :   1.3519 B(  3-C ,  4-C ) :   1.3550 B(  3-C , 11-H ) :   0.9623
B(  4-C ,  5-C ) :   1.3975 B(  4-C , 12-H ) :   0.9612 B(  5-C ,  6-C ) :   1.3510
B(  5-C , 13-H ) :   0.9674 B(  6-C ,  7-C ) :   1.3940 B(  6-C , 14-H ) :   0.9649
B(  7-C , 15-H ) :   0.9634

Dispersion correction           -0.015180414
FINAL SINGLE POINT ENERGY      -346.012609140644

DIPOLE MOMENT
-------------

Method             : SCF
Type of density    : Electron Density
Multiplicity       :   1
Irrep              :   0
Energy             :  -346.0624970120110788 Eh
Relativity type    :
Basis              : AO
                                X                 Y                 Z
Electronic contribution:      1.789815172      -2.035575900      -0.001313128
Nuclear contribution   :     -2.154850985       2.423388234       0.001639971
                        -----------------------------------------
Total Dipole Moment    :     -0.365035813       0.387812334       0.000326843
                        -----------------------------------------
Magnitude (a.u.)       :      0.532587700
Magnitude (Debye)      :      1.353730350

Rotational constants in cm-1:             0.170707             0.052420             0.040414
Rotational constants in MHz :          5117.672878          1571.505766          1211.587836

                             ****ORCA TERMINATED NORMALLY****
TOTAL RUN TIME: 0 days 0 hours 0 minutes 16 seconds 327 msec
