                         Program Version 6.0.0  -   RELEASE  -
|  1> ! r2SCAN-3c DEF2-TZVP FREQ
|  2> * xyzfile 0 1 censo.xyz
|  3>
|  4>                          ****END OF INPUT****

CARTESIAN COORDINATES (ANGSTROEM)
---------------------------------
  C     -1.234845    0.000044    0.000134
  C     -0.567800   -1.213027   -0.070998
  C      0.829697   -1.215111   -0.072927
  C      1.524141   -0.000160   -0.000114
  C      0.829909    1.214898    0.072956
  C     -0.567596    1.213033    0.071250
  Cl    -1.472534    2.680603    0.164337
  Cl     1.684940    2.708270    0.165316
  Cl     3.248445   -0.000315   -0.000210
  Cl     1.684476   -2.708622   -0.165447
  Cl    -1.473037   -2.680455   -0.163844
  N     -2.715344    0.000194   -0.000129
  O     -3.263600   -0.136800    1.079691
  O     -3.263201    0.137888   -1.079993

 Total Charge           Charge          ....    0
 Multiplicity           Mult            ....    1
 Number of Electrons    NEL             ....  144
 Basis Dimension        Dim             ....  464

ORBITAL ENERGIES
----------------

  NO   OCC          E(Eh)            E(eV)
   0   2.0000    -101.235218     -2754.7503
   1   2.0000    -101.235215     -2754.7502
   2   2.0000    -101.232247     -2754.6695
   3   2.0000    -101.232246     -2754.6695
   4   2.0000    -101.232037     -2754.6638
   5   2.0000     -19.018589      -517.5221
   6   2.0000     -19.018474      -517.5190
   7   2.0000     -14.425579      -392.5400
   8   2.0000     -10.160814      -276.4898
   9   2.0000     -10.160806      -276.4896
  10   2.0000     -10.159955      -276.4664
  11   2.0000     -10.158368      -276.4232
  12   2.0000     -10.158310      -276.4217
  13   2.0000     -10.145719      -276.0791
  14   2.0000      -9.410900      -256.0836
  15   2.0000      -9.410898      -256.0835
  16   2.0000      -9.407976      -256.0040
  17   2.0000      -9.407974      -256.0040
  18   2.0000      -9.407794      -255.9991
  19   2.0000      -7.156471      -194.7375
  20   2.0000      -7.156469      -194.7374
  21   2.0000      -7.153390      -194.6536
  22   2.0000      -7.153388      -194.6536
  23   2.0000      -7.153219      -194.6490
  24   2.0000      -7.145753      -194.4458
  25   2.0000      -7.145752      -194.4458
  26   2.0000      -7.144844      -194.4211
  27   2.0000      -7.144841      -194.4210
  28   2.0000      -7.142990      -194.3706
  29   2.0000      -7.142988      -194.3706
  30   2.0000      -7.142838      -194.3665
  31   2.0000      -7.141903      -194.3411
  32   2.0000      -7.141902      -194.3410
  33   2.0000      -7.141674      -194.3348
  34   2.0000      -1.227222       -33.3944
  35   2.0000      -1.055476       -28.7210
  36   2.0000      -0.949746       -25.8439
  37   2.0000      -0.903165       -24.5764
  38   2.0000      -0.893583       -24.3156
  39   2.0000      -0.856566       -23.3083
  40   2.0000      -0.844064       -22.9682
  41   2.0000      -0.822408       -22.3789
  42   2.0000      -0.779064       -21.1994
  43   2.0000      -0.726693       -19.7743
  44   2.0000      -0.688201       -18.7269
  45   2.0000      -0.622350       -16.9350
  46   2.0000      -0.598766       -16.2932
  47   2.0000      -0.561282       -15.2733
  48   2.0000      -0.549245       -14.9457
  49   2.0000      -0.511337       -13.9142
  50   2.0000      -0.506830       -13.7915
  51   2.0000      -0.503010       -13.6876
  52   2.0000      -0.473761       -12.8917
  53   2.0000      -0.463424       -12.6104
  54   2.0000      -0.458361       -12.4726
  55   2.0000      -0.437676       -11.9098
  56   2.0000      -0.421882       -11.4800
  57   2.0000      -0.400673       -10.9029
  58   2.0000      -0.389130       -10.5888
  59   2.0000      -0.351526        -9.5655
  60   2.0000      -0.343962        -9.3597
  61   2.0000      -0.341552        -9.2941
  62   2.0000      -0.339012        -9.2250
  63   2.0000      -0.329324        -8.9614
  64   2.0000      -0.321034        -8.7358
  65   2.0000      -0.320327        -8.7165
  66   2.0000      -0.318117        -8.6564
  67   2.0000      -0.302473        -8.2307
  68   2.0000      -0.298062        -8.1107
  69   2.0000      -0.297263        -8.0890
  70   2.0000      -0.260341        -7.0842
  71   2.0000      -0.258324        -7.0294
  72   0.0000      -0.132243        -3.5985
  73   0.0000      -0.098077        -2.6688
  74   0.0000      -0.097502        -2.6532
  75   0.0000      -0.092621        -2.5204
  76   0.0000      -0.032274        -0.8782

MULLIKEN ATOMIC CHARGES
-----------------------
   0 C :    0.222694
   1 C :   -0.094446
   2 C :    0.104496
   3 C :   -0.030310
   4 C :    0.104472
   5 C :   -0.094527
   6 Cl:   -0.014859
   7 Cl:   -0.022932
   8 Cl:   -0.021700
   9 Cl:   -0.022941
  10 Cl:   -0.014874
  11 N :    0.434319
  12 O :   -0.274638
  13 O :   -0.274753
Sum of atomic charges:    0.0000000

LOEWDIN ATOMIC CHARGES
----------------------
   0 C :   -0.168920
   1 C :   -0.421910
   2 C :   -0.449442
   3 C :   -0.445825
   4 C :   -0.449446
   5 C :   -0.421919
   6 Cl:    0.477636
   7 Cl:    0.466206
   8 Cl:    0.465357
   9 Cl:    0.466198
  10 Cl:    0.477609
  11 N :   -0.054655
  12 O :    0.029583
  13 O :    0.029530

  Mayer bond orders larger than 0.100000
B(  0-C ,  1-C ) :   1.2550 B(  0-C ,  5-C ) :   1.2551 B(  0-C , 11-N ) :   0.8806
B(  1-C ,  2-C ) :   1.2999 B(  1-C , 10-Cl) :   1.2400 B(  2-C ,  3-C ) :   1.2775
B(  2-C ,  9-Cl) :   1.2120 B(  3-C ,  4-C ) :   1.2775 B(  3-C ,  8-Cl) :   1.2315
B(  4-C ,  5-C ) :   1.2999 B(  4-C ,  7-Cl) :   1.2121 B(  5-C ,  6-Cl) :   1.2401
B( 11-N , 12-O ) :   1.5762 B( 11-N , 13-O ) :   1.5762 B( 12-O , 13-O ) :   0.2550

Dispersion correction           -0.009234269
FINAL SINGLE POINT ENERGY     -2734.601549354279

DIPOLE MOMENT
-------------

Method             : SCF
Type of density    : Electron Density
Multiplicity       :   1
Irrep              :   0
Energy             : -2734.6074462270998993 Eh
Relativity type    :
Basis              : AO
                                X                 Y                 Z
Electronic contribution:      6.086749971      -0.000935878       0.000460422
Nuclear contribution   :     -5.096770971       0.000665323      -0.000155815
                        -----------------------------------------
Total Dipole Moment    :      0.989979000      -0.000270555       0.000304607
                        -----------------------------------------
Magnitude (a.u.)       :      0.989979084
Magnitude (Debye)      :      2.516326856

VIBRATIONAL FREQUENCIES
-----------------------

Scaling factor for frequencies =  1.000000000  (already applied!)

     0:       0.00 cm**-1
     1:       0.00 cm**-1
     2:       0.00 cm**-1
     3:       0.00 cm**-1
     4:       0.00 cm**-1
     5:       0.00 cm**-1
     6:      70.65 cm**-1
     7:      74.40 cm**-1
     8:      84.74 cm**-1
     9:      96.69 cm**-1
    10:     153.98 cm**-1
    11:     163.16 cm**-1
    12:     206.12 cm**-1
    13:     217.41 cm**-1
    14:     217.76 cm**-1
    15:     230.51 cm**-1
    16:     263.92 cm**-1
    17:     295.85 cm**-1
    18:     321.03 cm**-1
    19:     334.68 cm**-1
    20:     356.33 cm**-1
    21:     383.74 cm**-1
    22:     461.91 cm**-1
    23:     567.15 cm**-1
    24:     599.63 cm**-1
    25:     652.77 cm**-1
    26:     657.50 cm**-1
    27:     670.30 cm**-1
    28:     714.39 cm**-1
    29:     805.13 cm**-1
    30:     815.41 cm**-1
    31:     874.24 cm**-1
    32:     930.85 cm**-1
    33:    1110.87 cm**-1
    34:    1207.45 cm**-1
    35:    1304.97 cm**-1
    36:    1355.92 cm**-1
    37:    1364.05 cm**-1
    38:    1379.40 cm**-1
    39:    1549.14 cm**-1
    40:    1566.78 cm**-1
    41:    1593.10 cm**-1

IR SPECTRUM
-----------

 Mode   freq       eps      Int      T**2         TX        TY        TZ
       cm**-1   L/(mol*cm) km/mol    a.u.
----------------------------------------------------------------------------
  6:     70.65   0.000088    0.44  0.000387  ( 0.000005  0.001412 -0.019621)
  7:     74.40   0.000000    0.00  0.000000  (-0.000635 -0.000001  0.000006)
  8:     84.74   0.000001    0.00  0.000003  (-0.001618 -0.000003  0.000008)
  9:     96.69   0.000046    0.23  0.000147  (-0.000009 -0.000682  0.012110)
 10:    153.98   0.000039    0.20  0.000079  ( 0.000006 -0.003150 -0.008341)
 11:    163.16   0.000283    1.43  0.000541  (-0.000008 -0.023188 -0.001778)
 12:    206.12   0.000023    0.11  0.000034  ( 0.005856 -0.000002  0.000029)
 13:    217.41   0.000015    0.07  0.000021  (-0.004614 -0.000031 -0.000016)
 14:    217.76   0.000017    0.09  0.000025  ( 0.000027 -0.004962 -0.000445)
 15:    230.51   0.000002    0.01  0.000003  (-0.000001 -0.001743 -0.000349)
 16:    263.92   0.000032    0.16  0.000037  (-0.000002 -0.000496  0.006097)
 17:    295.85   0.000013    0.07  0.000014  (-0.003724  0.000006 -0.000034)
 18:    321.03   0.000002    0.01  0.000002  ( 0.000001  0.001399  0.000131)
 19:    334.68   0.000006    0.03  0.000005  ( 0.002331 -0.000014 -0.000002)
 20:    356.33   0.000001    0.01  0.000001  (-0.000932  0.000002  0.000012)
 21:    383.74   0.000007    0.03  0.000005  (-0.002315  0.000002 -0.000005)
 22:    461.91   0.000012    0.06  0.000008  ( 0.000008 -0.002309  0.001660)
 23:    567.15   0.001822    9.21  0.001002  (-0.000020 -0.031498 -0.003188)
 24:    599.63   0.000002    0.01  0.000001  ( 0.000894 -0.000021 -0.000003)
 25:    652.77   0.013593   68.70  0.006498  (-0.080613 -0.000015  0.000013)
 26:    657.50   0.000116    0.59  0.000055  ( 0.000154  0.007375  0.000848)
 27:    670.30   0.013614   68.80  0.006338  (-0.000037  0.079418  0.005559)
 28:    714.39   0.000064    0.33  0.000028  (-0.000021  0.005220  0.000950)
 29:    805.13   0.002886   14.59  0.001119  ( 0.000001 -0.033438 -0.000752)
 30:    815.41   0.000027    0.14  0.000010  (-0.003235 -0.000020  0.000010)
 31:    874.24   0.000014    0.07  0.000005  ( 0.000004 -0.002156  0.000485)
 32:    930.85   0.005531   27.95  0.001854  (-0.043061  0.000005  0.000012)
 33:   1110.87   0.002301   11.63  0.000646  ( 0.025424  0.000000 -0.000004)
 34:   1207.45   0.005459   27.59  0.001411  ( 0.037562  0.000002  0.000000)
 35:   1304.97   0.002543   12.85  0.000608  (-0.000028 -0.024607 -0.001630)
 36:   1355.92   0.020889  105.56  0.004808  (-0.069336  0.000173  0.000032)
 37:   1364.05   0.033656  170.08  0.007700  ( 0.000140  0.087511  0.006453)
 38:   1379.40   0.026983  136.36  0.006104  ( 0.078131 -0.000003 -0.000099)
 39:   1549.14   0.001923    9.72  0.000387  (-0.019681 -0.000009  0.000013)
 40:   1566.78   0.000408    2.06  0.000081  ( 0.000007 -0.006648 -0.006085)
 41:   1593.10   0.051613  260.83  0.010110  (-0.000063  0.012902 -0.099719)

--------------------------
THERMOCHEMISTRY AT 298.15K
--------------------------

Temperature         ...   298.15 K
Pressure            ...     1.00 atm
Total Mass          ...   295.34 AMU
Quasi RRHO          ...     True
Cut-Off Frequency   ...     1.00 cm^-1

Throughout the following assumptions are being made:
  (1) The electronic state is orbitally nondegenerate
  (2) There are no thermally accessible electronically excited states
  (3) Hindered rotations indicated by low frequency modes are not
      treated as such but are treated as vibrations and this may
      cause some error
  (4) All equations used are the standard statistical mechanics
      equations for an ideal gas
  (5) All vibrations are strictly harmonic

freq.      70.65  E(vib)   ...       0.50
freq.      74.40  E(vib)   ...       0.49
freq.      84.74  E(vib)   ...       0.48
freq.      96.69  E(vib)   ...       0.46
freq.     153.98  E(vib)   ...       0.40
freq.     163.16  E(vib)   ...       0.39
freq.     206.12  E(vib)   ...       0.35
freq.     217.41  E(vib)   ...       0.34
freq.     217.76  E(vib)   ...       0.33
freq.     230.51  E(vib)   ...       0.32
freq.     263.92  E(vib)   ...       0.29
freq.     295.85  E(vib)   ...       0.27
freq.     321.03  E(vib)   ...       0.25
freq.     334.68  E(vib)   ...       0.24
freq.     356.33  E(vib)   ...       0.22
freq.     383.74  E(vib)   ...       0.20
freq.     461.91  E(vib)   ...       0.16
freq.     567.15  E(vib)   ...       0.11
freq.     599.63  E(vib)   ...       0.10
freq.     652.77  E(vib)   ...       0.08
freq.     657.50  E(vib)   ...       0.08
freq.     670.30  E(vib)   ...       0.08
freq.     714.39  E(vib)   ...       0.07
freq.     805.13  E(vib)   ...       0.05
freq.     815.41  E(vib)   ...       0.05
freq.     874.24  E(vib)   ...       0.04
freq.     930.85  E(vib)   ...       0.03
freq.    1110.87  E(vib)   ...       0.01
freq.    1207.45  E(vib)   ...       0.01
freq.    1304.97  E(vib)   ...       0.01
freq.    1355.92  E(vib)   ...       0.01
freq.    1364.05  E(vib)   ...       0.01
freq.    1379.40  E(vib)   ...       0.01
freq.    1549.14  E(vib)   ...       0.00
freq.    1566.78  E(vib)   ...       0.00
freq.    1593.10  E(vib)   ...       0.00

------------
INNER ENERGY
------------

The inner energy is: U= E(el) + E(ZPE) + E(vib) + E(rot) + E(trans)
    E(el)   - is the total energy from the electronic structure calculation
              = E(kin-el) + E(nuc-el) + E(el-el) + E(nuc-nuc)
    E(ZPE)  - the the zero temperature vibrational energy from the frequency calculation
    E(vib)  - the the finite temperature correction to E(ZPE) due to population
              of excited vibrational states
    E(rot)  - is the rotational thermal energy
    E(trans)- is the translational thermal energy

Summary of contributions to the inner energy U:
Electronic energy                ...  -2734.60154935 Eh
Zero point energy                ...      0.05388304 Eh      33.81 kcal/mol
Thermal vibrational correction   ...      0.01025424 Eh       6.43 kcal/mol
Thermal rotational correction    ...      0.00141627 Eh       0.89 kcal/mol
Thermal translational correction ...      0.00141627 Eh       0.89 kcal/mol
-----------------------------------------------------------------------
Total thermal energy                  -2734.53457953 Eh

Summary of corrections to the electronic energy:
(perhaps to be used in another calculation)
Total thermal correction                  0.01308679 Eh       8.21 kcal/mol
Non-thermal (ZPE) correction              0.05388304 Eh      33.81 kcal/mol
-----------------------------------------------------------------------
Total correction                          0.06696983 Eh      42.02 kcal/mol

--------
ENTHALPY
--------

The enthalpy is H = U + kB*T
                kB is Boltzmann's constant
Total thermal energy              ...  -2734.53457953 Eh
Thermal Enthalpy correction       ...      0.00094421 Eh       0.59 kcal/mol
-----------------------------------------------------------------------
Total Enthalpy                    ...  -2734.53363532 Eh

Note: Only C1 symmetry has been detected, increase convergence thresholds
      if your molecule has a higher symmetry. Symmetry factor of 1.0 is
      used for the rotational entropy correction.

Note: Rotational entropy computed according to Herzberg
Infrared and Raman Spectra, Chapter V,1, Van Nostrand Reinhold, 1945
Point Group:  C1, Symmetry Number:   1
Rotational constants in cm-1:     0.014756     0.013155     0.007178

Vibrational entropy computed according to the QRRHO of S. Grimme
Chem.Eur.J. 2012 18 9955 using a reference frequency of 100.0 cm-1

-------
ENTROPY
-------

The entropy contributions are T*S = T*(S(el)+S(vib)+S(rot)+S(trans))
     S(el)   - electronic entropy
     S(vib)  - vibrational entropy
     S(rot)  - rotational entropy
     S(trans)- translational entropy
The entropies will be listed as multiplied by the temperature to get
units of energy

Electronic entropy                ...      0.00000000 Eh      0.00 kcal/mol
Vibrational entropy               ...      0.01805469 Eh     11.33 kcal/mol
Rotational entropy                ...      0.01587635 Eh      9.96 kcal/mol
Translational entropy             ...      0.02040498 Eh     12.80 kcal/mol
-----------------------------------------------------------------------
Final entropy term                ...      0.05433602 Eh     34.10 kcal/mol

In case the symmetry of your molecule has not been determined correctly
or in case you have a reason to use a different symmetry number we print
out the resulting rotational entropy values for sn=1,12:

 non-linear molecules -----------------------------------
|  sn= 1 | S(rot)=       0.01587635 Eh      9.96 kcal/mol|
|  sn= 2 | S(rot)=       0.01522189 Eh      9.55 kcal/mol|
|  sn= 3 | S(rot)=       0.01483906 Eh      9.31 kcal/mol|
|  sn= 4 | S(rot)=       0.01456744 Eh      9.14 kcal/mol|
|  sn= 5 | S(rot)=       0.01435675 Eh      9.01 kcal/mol|
|  sn= 6 | S(rot)=       0.01418461 Eh      8.90 kcal/mol|
|  sn= 7 | S(rot)=       0.01403906 Eh      8.81 kcal/mol|
|  sn= 8 | S(rot)=       0.01391298 Eh      8.73 kcal/mol|
|  sn= 9 | S(rot)=       0.01380177 Eh      8.66 kcal/mol|
|  sn=10 | S(rot)=       0.01370229 Eh      8.60 kcal/mol|
|  sn=11 | S(rot)=       0.01361230 Eh      8.54 kcal/mol|
|  sn=12 | S(rot)=       0.01353015 Eh      8.49 kcal/mol|
 linear molecules ---------------------------------------
|  Dinfh | S(rot)=       0.00998692 Eh      6.27 kcal/mol|
|  Cinfv | S(rot)=       0.01064138 Eh      6.68 kcal/mol|
 --------------------------------------------------------

-------------------
GIBBS FREE ENERGY
-------------------

The Gibbs free energy is G = H - T*S

                             ****ORCA TERMINATED NORMALLY****
TOTAL RUN TIME: 0 days 0 hours 18 minutes 54 seconds 528 msec
