                         Program Version 6.0.0  -   RELEASE  -
|  1> ! r2SCAN-3c DEF2-TZVP FREQ
|  2> * xyzfile 0 1 vacuum_censo.xyz
|  3>
|  4>                          ****END OF INPUT****

CARTESIAN COORDINATES (ANGSTROEM)
---------------------------------
  C     -1.236746   -0.000137    0.000083
  C     -0.567049   -1.213240   -0.068776
  C      0.832373   -1.216033   -0.069030
  C      1.528088    0.000174   -0.000076
  C      0.832107    1.216230    0.068942
  C     -0.567311    1.213110    0.068827
  Cl    -1.469830    2.681476    0.151657
  Cl     1.687346    2.709323    0.153459
  Cl     3.251887    0.000344   -0.000157
  Cl     1.687968   -2.708913   -0.153651
  Cl    -1.469217   -2.681826   -0.151473
  N     -2.721051   -0.000278    0.000234
  O     -3.258961    0.059441   -1.089245
  O     -3.258772   -0.060236    1.089772

 Total Charge           Charge          ....    0
 Multiplicity           Mult            ....    1
 Number of Electrons    NEL             ....  144
 Basis Dimension        Dim             ....  464

ORBITAL ENERGIES
----------------

  NO   OCC          E(Eh)            E(eV)
   0   2.0000    -101.234974     -2754.7437
   1   2.0000    -101.234971     -2754.7436
   2   2.0000    -101.232024     -2754.6634
   3   2.0000    -101.232024     -2754.6634
   4   2.0000    -101.231794     -2754.6572
   5   2.0000     -19.019639      -517.5507
   6   2.0000     -19.019603      -517.5497
   7   2.0000     -14.426429      -392.5631
   8   2.0000     -10.160547      -276.4826
   9   2.0000     -10.160540      -276.4824
  10   2.0000     -10.159730      -276.4603
  11   2.0000     -10.158216      -276.4191
  12   2.0000     -10.158157      -276.4175
  13   2.0000     -10.145222      -276.0655
  14   2.0000      -9.410679      -256.0776
  15   2.0000      -9.410678      -256.0776
  16   2.0000      -9.407756      -255.9981
  17   2.0000      -9.407755      -255.9980
  18   2.0000      -9.407555      -255.9926
  19   2.0000      -7.156233      -194.7310
  20   2.0000      -7.156233      -194.7310
  21   2.0000      -7.153161      -194.6474
  22   2.0000      -7.153161      -194.6474
  23   2.0000      -7.152977      -194.6424
  24   2.0000      -7.145537      -194.4400
  25   2.0000      -7.145537      -194.4400
  26   2.0000      -7.144629      -194.4152
  27   2.0000      -7.144629      -194.4152
  28   2.0000      -7.142773      -194.3647
  29   2.0000      -7.142773      -194.3647
  30   2.0000      -7.142598      -194.3600
  31   2.0000      -7.141689      -194.3352
  32   2.0000      -7.141688      -194.3352
  33   2.0000      -7.141435      -194.3283
  34   2.0000      -1.229125       -33.4462
  35   2.0000      -1.058946       -28.8154
  36   2.0000      -0.948842       -25.8193
  37   2.0000      -0.902864       -24.5682
  38   2.0000      -0.893109       -24.3027
  39   2.0000      -0.856477       -23.3059
  40   2.0000      -0.843783       -22.9605
  41   2.0000      -0.821732       -22.3605
  42   2.0000      -0.777685       -21.1619
  43   2.0000      -0.725695       -19.7472
  44   2.0000      -0.687354       -18.7039
  45   2.0000      -0.621651       -16.9160
  46   2.0000      -0.598608       -16.2890
  47   2.0000      -0.561070       -15.2675
  48   2.0000      -0.550048       -14.9676
  49   2.0000      -0.512194       -13.9375
  50   2.0000      -0.506643       -13.7864
  51   2.0000      -0.503908       -13.7120
  52   2.0000      -0.473665       -12.8891
  53   2.0000      -0.462933       -12.5971
  54   2.0000      -0.457740       -12.4558
  55   2.0000      -0.437555       -11.9065
  56   2.0000      -0.421664       -11.4741
  57   2.0000      -0.400340       -10.8938
  58   2.0000      -0.388981       -10.5847
  59   2.0000      -0.351462        -9.5638
  60   2.0000      -0.343679        -9.3520
  61   2.0000      -0.341416        -9.2904
  62   2.0000      -0.338611        -9.2141
  63   2.0000      -0.329125        -8.9559
  64   2.0000      -0.320922        -8.7327
  65   2.0000      -0.320590        -8.7237
  66   2.0000      -0.319706        -8.6996
  67   2.0000      -0.301844        -8.2136
  68   2.0000      -0.298582        -8.1248
  69   2.0000      -0.297754        -8.1023
  70   2.0000      -0.260102        -7.0777
  71   2.0000      -0.257675        -7.0117
  72   0.0000      -0.131460        -3.5772
  73   0.0000      -0.097824        -2.6619
  74   0.0000      -0.097324        -2.6483
  75   0.0000      -0.091876        -2.5001
  76   0.0000      -0.031432        -0.8553

MULLIKEN ATOMIC CHARGES
-----------------------
   0 C :    0.219763
   1 C :   -0.091959
   2 C :    0.102202
   3 C :   -0.029599
   4 C :    0.102240
   5 C :   -0.091981
   6 Cl:   -0.015823
   7 Cl:   -0.022988
   8 Cl:   -0.021756
   9 Cl:   -0.022988
  10 Cl:   -0.015813
  11 N :    0.436677
  12 O :   -0.273972
  13 O :   -0.274003
Sum of atomic charges:   -0.0000000

LOEWDIN ATOMIC CHARGES
----------------------
   0 C :   -0.167533
   1 C :   -0.423391
   2 C :   -0.449910
   3 C :   -0.446661
   4 C :   -0.449905
   5 C :   -0.423392
   6 Cl:    0.477721
   7 Cl:    0.466306
   8 Cl:    0.465388
   9 Cl:    0.466309
  10 Cl:    0.477724
  11 N :   -0.057579
  12 O :    0.032470
  13 O :    0.032454

  Mayer bond orders larger than 0.100000
B(  0-C ,  1-C ) :   1.2567 B(  0-C ,  5-C ) :   1.2566 B(  0-C , 11-N ) :   0.8773
B(  1-C ,  2-C ) :   1.2988 B(  1-C , 10-Cl) :   1.2370 B(  2-C ,  3-C ) :   1.2774
B(  2-C ,  9-Cl) :   1.2121 B(  3-C ,  4-C ) :   1.2774 B(  3-C ,  8-Cl) :   1.2315
B(  4-C ,  5-C ) :   1.2987 B(  4-C ,  7-Cl) :   1.2121 B(  5-C ,  6-Cl) :   1.2370
B( 11-N , 12-O ) :   1.5790 B( 11-N , 13-O ) :   1.5790 B( 12-O , 13-O ) :   0.2557

Dispersion correction           -0.009230584
FINAL SINGLE POINT ENERGY     -2734.601709884291

DIPOLE MOMENT
-------------

Method             : SCF
Type of density    : Electron Density
Multiplicity       :   1
Irrep              :   0
Energy             : -2734.6075609931613144 Eh
Relativity type    :
Basis              : AO
                                X                 Y                 Z
Electronic contribution:      6.066320227       0.000709121      -0.000493716
Nuclear contribution   :     -5.101615276      -0.000579307       0.000355072
                        -----------------------------------------
Total Dipole Moment    :      0.964704952       0.000129814      -0.000138643
                        -----------------------------------------
Magnitude (a.u.)       :      0.964704970
Magnitude (Debye)      :      2.452085164

VIBRATIONAL FREQUENCIES
-----------------------

Scaling factor for frequencies =  1.000000000  (already applied!)

     0:       0.00 cm**-1
     1:       0.00 cm**-1
     2:       0.00 cm**-1
     3:       0.00 cm**-1
     4:       0.00 cm**-1
     5:       0.00 cm**-1
     6:      69.74 cm**-1
     7:      73.70 cm**-1
     8:      79.05 cm**-1
     9:      96.17 cm**-1
    10:     152.14 cm**-1
    11:     158.75 cm**-1
    12:     205.28 cm**-1
    13:     217.24 cm**-1
    14:     217.42 cm**-1
    15:     230.30 cm**-1
    16:     263.53 cm**-1
    17:     294.87 cm**-1
    18:     321.06 cm**-1
    19:     335.41 cm**-1
    20:     355.83 cm**-1
    21:     383.90 cm**-1
    22:     463.05 cm**-1
    23:     564.46 cm**-1
    24:     600.73 cm**-1
    25:     651.59 cm**-1
    26:     659.19 cm**-1
    27:     670.75 cm**-1
    28:     715.81 cm**-1
    29:     802.49 cm**-1
    30:     813.53 cm**-1
    31:     875.34 cm**-1
    32:     927.99 cm**-1
    33:    1111.35 cm**-1
    34:    1204.06 cm**-1
    35:    1296.03 cm**-1
    36:    1352.60 cm**-1
    37:    1359.40 cm**-1
    38:    1382.26 cm**-1
    39:    1542.73 cm**-1
    40:    1561.14 cm**-1
    41:    1610.35 cm**-1

IR SPECTRUM
-----------

 Mode   freq       eps      Int      T**2         TX        TY        TZ
       cm**-1   L/(mol*cm) km/mol    a.u.
----------------------------------------------------------------------------
  6:     69.74   0.000093    0.47  0.000417  ( 0.000000 -0.001360  0.020364)
  7:     73.70   0.000000    0.00  0.000000  ( 0.000088  0.000001  0.000014)
  8:     79.05   0.000000    0.00  0.000000  ( 0.000275  0.000001  0.000002)
  9:     96.17   0.000042    0.21  0.000137  (-0.000002  0.000620 -0.011699)
 10:    152.14   0.000031    0.16  0.000064  ( 0.000003 -0.001025  0.007961)
 11:    158.75   0.000289    1.46  0.000568  (-0.000003  0.023772  0.001627)
 12:    205.28   0.000020    0.10  0.000031  ( 0.005551  0.000002 -0.000005)
 13:    217.24   0.000015    0.07  0.000021  ( 0.004575  0.000084  0.000001)
 14:    217.42   0.000016    0.08  0.000024  (-0.000079  0.004853  0.000242)
 15:    230.30   0.000002    0.01  0.000003  ( 0.000002  0.001679  0.000138)
 16:    263.53   0.000034    0.17  0.000040  (-0.000001  0.000356 -0.006351)
 17:    294.87   0.000011    0.06  0.000012  ( 0.003397  0.000001 -0.000008)
 18:    321.06   0.000002    0.01  0.000002  ( 0.000000  0.001314  0.000035)
 19:    335.41   0.000000    0.00  0.000000  (-0.000006 -0.000003 -0.000000)
 20:    355.83   0.000002    0.01  0.000002  ( 0.001275  0.000001  0.000005)
 21:    383.90   0.000006    0.03  0.000005  ( 0.002278  0.000000 -0.000002)
 22:    463.05   0.000007    0.04  0.000005  ( 0.000001  0.000224 -0.002156)
 23:    564.46   0.001875    9.48  0.001037  (-0.000006  0.032141  0.001889)
 24:    600.73   0.000000    0.00  0.000000  ( 0.000210 -0.000002 -0.000000)
 25:    651.59   0.013382   67.63  0.006409  (-0.080057 -0.000012  0.000010)
 26:    659.19   0.000001    0.01  0.000001  ( 0.000002  0.000752 -0.000081)
 27:    670.75   0.013493   68.19  0.006277  ( 0.000011 -0.079096 -0.004609)
 28:    715.81   0.000002    0.01  0.000001  (-0.000004  0.000193 -0.000792)
 29:    802.49   0.003111   15.72  0.001210  (-0.000002  0.034732  0.001884)
 30:    813.53   0.000050    0.25  0.000019  (-0.004366  0.000003  0.000000)
 31:    875.34   0.000006    0.03  0.000002  ( 0.000002  0.001475  0.000073)
 32:    927.99   0.006013   30.39  0.002022  (-0.044968 -0.000004 -0.000009)
 33:   1111.35   0.002410   12.18  0.000677  (-0.026011 -0.000004 -0.000007)
 34:   1204.06   0.005692   28.77  0.001475  (-0.038410 -0.000002 -0.000005)
 35:   1296.03   0.002485   12.56  0.000598  (-0.000012  0.024424  0.001350)
 36:   1352.60   0.016578   83.78  0.003825  ( 0.061845  0.000080 -0.000007)
 37:   1359.40   0.033869  171.16  0.007775  ( 0.000063 -0.088033 -0.005023)
 38:   1382.26   0.032117  162.30  0.007251  ( 0.085151  0.000012  0.000029)
 39:   1542.73   0.001818    9.19  0.000368  ( 0.019176 -0.000004  0.000004)
 40:   1561.14   0.000291    1.47  0.000058  ( 0.000006  0.007613  0.000462)
 41:   1610.35   0.052203  263.81  0.010116  (-0.000013 -0.005515  0.100428)

--------------------------
THERMOCHEMISTRY AT 298.15K
--------------------------

Temperature         ...   298.15 K
Pressure            ...     1.00 atm
Total Mass          ...   295.34 AMU
Quasi RRHO          ...     True
Cut-Off Frequency   ...     1.00 cm^-1

Throughout the following assumptions are being made:
  (1) The electronic state is orbitally nondegenerate
  (2) There are no thermally accessible electronically excited states
  (3) Hindered rotations indicated by low frequency modes are not
      treated as such but are treated as vibrations and this may
      cause some error
  (4) All equations used are the standard statistical mechanics
      equations for an ideal gas
  (5) All vibrations are strictly harmonic

freq.      69.74  E(vib)   ...       0.50
freq.      73.70  E(vib)   ...       0.49
freq.      79.05  E(vib)   ...       0.49
freq.      96.17  E(vib)   ...       0.47
freq.     152.14  E(vib)   ...       0.40
freq.     158.75  E(vib)   ...       0.39
freq.     205.28  E(vib)   ...       0.35
freq.     217.24  E(vib)   ...       0.34
freq.     217.42  E(vib)   ...       0.34
freq.     230.30  E(vib)   ...       0.32
freq.     263.53  E(vib)   ...       0.29
freq.     294.87  E(vib)   ...       0.27
freq.     321.06  E(vib)   ...       0.25
freq.     335.41  E(vib)   ...       0.24
freq.     355.83  E(vib)   ...       0.22
freq.     383.90  E(vib)   ...       0.20
freq.     463.05  E(vib)   ...       0.16
freq.     564.46  E(vib)   ...       0.11
freq.     600.73  E(vib)   ...       0.10
freq.     651.59  E(vib)   ...       0.08
freq.     659.19  E(vib)   ...       0.08
freq.     670.75  E(vib)   ...       0.08
freq.     715.81  E(vib)   ...       0.07
freq.     802.49  E(vib)   ...       0.05
freq.     813.53  E(vib)   ...       0.05
freq.     875.34  E(vib)   ...       0.04
freq.     927.99  E(vib)   ...       0.03
freq.    1111.35  E(vib)   ...       0.01
freq.    1204.06  E(vib)   ...       0.01
freq.    1296.03  E(vib)   ...       0.01
freq.    1352.60  E(vib)   ...       0.01
freq.    1359.40  E(vib)   ...       0.01
freq.    1382.26  E(vib)   ...       0.01
freq.    1542.73  E(vib)   ...       0.00
freq.    1561.14  E(vib)   ...       0.00
freq.    1610.35  E(vib)   ...       0.00

------------
INNER ENERGY
------------

The inner energy is: U= E(el) + E(ZPE) + E(vib) + E(rot) + E(trans)
    E(el)   - is the total energy from the electronic structure calculation
              = E(kin-el) + E(nuc-el) + E(el-el) + E(nuc-nuc)
    E(ZPE)  - the the zero temperature vibrational energy from the frequency calculation
    E(vib)  - the the finite temperature correction to E(ZPE) due to population
              of excited vibrational states
    E(rot)  - is the rotational thermal energy
    E(trans)- is the translational thermal energy

Summary of contributions to the inner energy U:
Electronic energy                ...  -2734.60170988 Eh
Zero point energy                ...      0.05380861 Eh      33.77 kcal/mol
Thermal vibrational correction   ...      0.01028548 Eh       6.45 kcal/mol
Thermal rotational correction    ...      0.00141627 Eh       0.89 kcal/mol
Thermal translational correction ...      0.00141627 Eh       0.89 kcal/mol
-----------------------------------------------------------------------
Total thermal energy                  -2734.53478324 Eh

Summary of corrections to the electronic energy:
(perhaps to be used in another calculation)
Total thermal correction                  0.01311803 Eh       8.23 kcal/mol
Non-thermal (ZPE) correction              0.05380861 Eh      33.77 kcal/mol
-----------------------------------------------------------------------
Total correction                          0.06692664 Eh      42.00 kcal/mol

--------
ENTHALPY
--------

The enthalpy is H = U + kB*T
                kB is Boltzmann's constant
Total thermal energy              ...  -2734.53478324 Eh
Thermal Enthalpy correction       ...      0.00094421 Eh       0.59 kcal/mol
-----------------------------------------------------------------------
Total Enthalpy                    ...  -2734.53383903 Eh

Note: Only C1 symmetry has been detected, increase convergence thresholds
      if your molecule has a higher symmetry. Symmetry factor of 1.0 is
      used for the rotational entropy correction.

Note: Rotational entropy computed according to Herzberg
Infrared and Raman Spectra, Chapter V,1, Van Nostrand Reinhold, 1945
Point Group:  C1, Symmetry Number:   1
Rotational constants in cm-1:     0.014751     0.013146     0.007176

Vibrational entropy computed according to the QRRHO of S. Grimme
Chem.Eur.J. 2012 18 9955 using a reference frequency of 100.0 cm-1

-------
ENTROPY
-------

The entropy contributions are T*S = T*(S(el)+S(vib)+S(rot)+S(trans))
     S(el)   - electronic entropy
     S(vib)  - vibrational entropy
     S(rot)  - rotational entropy
     S(trans)- translational entropy
The entropies will be listed as multiplied by the temperature to get
units of energy

Electronic entropy                ...      0.00000000 Eh      0.00 kcal/mol
Vibrational entropy               ...      0.01812575 Eh     11.37 kcal/mol
Rotational entropy                ...      0.01587698 Eh      9.96 kcal/mol
Translational entropy             ...      0.02040498 Eh     12.80 kcal/mol
-----------------------------------------------------------------------
Final entropy term                ...      0.05440771 Eh     34.14 kcal/mol

In case the symmetry of your molecule has not been determined correctly
or in case you have a reason to use a different symmetry number we print
out the resulting rotational entropy values for sn=1,12:

 non-linear molecules -----------------------------------
|  sn= 1 | S(rot)=       0.01587698 Eh      9.96 kcal/mol|
|  sn= 2 | S(rot)=       0.01522252 Eh      9.55 kcal/mol|
|  sn= 3 | S(rot)=       0.01483969 Eh      9.31 kcal/mol|
|  sn= 4 | S(rot)=       0.01456807 Eh      9.14 kcal/mol|
|  sn= 5 | S(rot)=       0.01435738 Eh      9.01 kcal/mol|
|  sn= 6 | S(rot)=       0.01418524 Eh      8.90 kcal/mol|
|  sn= 7 | S(rot)=       0.01403969 Eh      8.81 kcal/mol|
|  sn= 8 | S(rot)=       0.01391361 Eh      8.73 kcal/mol|
|  sn= 9 | S(rot)=       0.01380240 Eh      8.66 kcal/mol|
|  sn=10 | S(rot)=       0.01370292 Eh      8.60 kcal/mol|
|  sn=11 | S(rot)=       0.01361293 Eh      8.54 kcal/mol|
|  sn=12 | S(rot)=       0.01353078 Eh      8.49 kcal/mol|
 linear molecules ---------------------------------------
|  Dinfh | S(rot)=       0.00998717 Eh      6.27 kcal/mol|
|  Cinfv | S(rot)=       0.01064163 Eh      6.68 kcal/mol|
 --------------------------------------------------------

-------------------
GIBBS FREE ENERGY
-------------------

The Gibbs free energy is G = H - T*S

                             ****ORCA TERMINATED NORMALLY****
TOTAL RUN TIME: 0 days 0 hours 18 minutes 51 seconds 938 msec
