                         Program Version 6.0.1  -  RELEASE   -
|  1> ! pbe def2-sv(p) def2/J RI DEFGRID1 loosescf d4 GCP(DFT/SV(P)) printgap
|  2> %output
|  3>     printlevel normal
|  4> end
|  5> * xyz 0 1
|  6> C 8.35858e-05 0.9857531139 -3.026e-06
|  7> Br -1.6105840008 -0.0942076328 -4.444e-07
|  8> Br 1.6105708829 -0.0942166383 -8.387e-07
|  9> H 4.98792e-05 1.5952750379 0.9008994997
| 10> H -6.0094e-06 1.5954902177 -0.9007617243
| 11> *
| 12>
| 13>                          ****END OF INPUT****

CARTESIAN COORDINATES (ANGSTROEM)
---------------------------------
  C      0.000084    0.985753   -0.000003
  Br    -1.610584   -0.094208   -0.000000
  Br     1.610571   -0.094217   -0.000001
  H      0.000050    1.595275    0.900899
  H     -0.000006    1.595490   -0.900762

 Total Charge           Charge          ....    0
 Multiplicity           Mult            ....    1
 Number of Electrons    NEL             ....   78
 Basis Dimension        Dim             ....   82

ORBITAL ENERGIES
----------------

  NO   OCC          E(Eh)            E(eV)
   0   2.0000    -480.942307    -13087.1055
   1   2.0000    -480.942286    -13087.1049
   2   2.0000     -61.784938     -1681.2536
   3   2.0000     -61.784917     -1681.2531
   4   2.0000     -55.715644     -1516.0997
   5   2.0000     -55.715621     -1516.0991
   6   2.0000     -55.712385     -1516.0111
   7   2.0000     -55.712362     -1516.0104
   8   2.0000     -55.712299     -1516.0087
   9   2.0000     -55.712283     -1516.0083
  10   2.0000      -9.995332      -271.9868
  11   2.0000      -8.410364      -228.8576
  12   2.0000      -8.410343      -228.8571
  13   2.0000      -6.293027      -171.2420
  14   2.0000      -6.293011      -171.2415
  15   2.0000      -6.277882      -170.8299
  16   2.0000      -6.277866      -170.8294
  17   2.0000      -6.277210      -170.8116
  18   2.0000      -6.277194      -170.8111
  19   2.0000      -2.493951       -67.8638
  20   2.0000      -2.493926       -67.8632
  21   2.0000      -2.490408       -67.7674
  22   2.0000      -2.490386       -67.7669
  23   2.0000      -2.489928       -67.7544
  24   2.0000      -2.489910       -67.7539
  25   2.0000      -2.478518       -67.4439
  26   2.0000      -2.478502       -67.4435
  27   2.0000      -2.478493       -67.4432
  28   2.0000      -2.478477       -67.4428
  29   2.0000      -0.776670       -21.1343
  30   2.0000      -0.707676       -19.2568
  31   2.0000      -0.593194       -16.1416
  32   2.0000      -0.436104       -11.8670
  33   2.0000      -0.396390       -10.7863
  34   2.0000      -0.379443       -10.3252
  35   2.0000      -0.266895        -7.2626
  36   2.0000      -0.258367        -7.0305
  37   2.0000      -0.247874        -6.7450
  38   2.0000      -0.244599        -6.6559
  39   0.0000      -0.064691        -1.7603
  40   0.0000      -0.025458        -0.6927
  41   0.0000       0.046949         1.2775
  42   0.0000       0.074158         2.0179
  43   0.0000       0.269359         7.3296

MULLIKEN ATOMIC CHARGES
-----------------------
   0 C :   -0.276893
   1 Br:   -0.053679
   2 Br:   -0.053606
   3 H :    0.192087
   4 H :    0.192090
Sum of atomic charges:    0.0000000

LOEWDIN ATOMIC CHARGES
----------------------
   0 C :   -0.374953
   1 Br:    0.047935
   2 Br:    0.048030
   3 H :    0.139493
   4 H :    0.139495

  Mayer bond orders larger than 0.100000
B(  0-C ,  1-Br) :   1.0429 B(  0-C ,  2-Br) :   1.0430 B(  0-C ,  3-H ) :   0.9178
B(  0-C ,  4-H ) :   0.9178

Dispersion correction           -0.004042318
FINAL SINGLE POINT ENERGY     -5186.105327014115

DIPOLE MOMENT
-------------

Method             : SCF
Type of density    : Electron Density
Multiplicity       :   1
Irrep              :   0
Energy             : -5186.1281637026822864 Eh
Relativity type    :
Basis              : AO
                                X                 Y                 Z
Electronic contribution:      0.000038322      -4.192364182      -0.000106870
Nuclear contribution   :      0.000162962       4.743123923       0.000141172
                        -----------------------------------------
Total Dipole Moment    :      0.000201284       0.550759740       0.000034303
                        -----------------------------------------
Magnitude (a.u.)       :      0.550759778
Magnitude (Debye)      :      1.399920103

Rotational constants in cm-1:             0.848962             0.040509             0.038956
Rotational constants in MHz :         25451.251768          1214.414483          1167.871424

                             ****ORCA TERMINATED NORMALLY****
TOTAL RUN TIME: 0 days 0 hours 0 minutes 5 seconds 269 msec
