                         Program Version 6.0.1  -  RELEASE   -
|  1> ! pbe def2-sv(p) def2/J RI DEFGRID1 loosescf d4 GCP(DFT/SV(P)) printgap
|  2> %output
|  3>     printlevel normal
|  4> end
|  5> * xyz 0 1
|  6> C 2.7008976196 0.1483874449 -1.1699978198
|  7> C 2.274711074 -0.3000838404 0.2299574188
|  8> H 3.1965582454 -0.491220078 0.7914841652
|  9> C 1.4476879119 -1.6018631665 0.180908085
| 10> C -0.0299476527 -1.3795587411 0.5120243074
| 11> C -0.5497799944 -0.1279960997 -0.1908556456
| 12> H -0.2410034061 -0.1833299434 -1.2419396112
| 13> C 0.1200946065 1.1171652607 0.4239552688
| 14> H -0.498896029 1.4955523185 1.244693243
| 15> C 1.5157844214 0.7941065012 0.9879213267
| 16> O 0.1479569251 2.1949670838 -0.4876221492
| 17> C -2.0842831102 0.0179065696 -0.1950176172
| 18> C -2.7208307435 -0.8900032303 -1.2467149343
| 19> C -2.7178210371 -0.2491232137 1.16863339
| 20> H 3.2058825018 1.1118112554 -1.1259810924
| 21> H 3.3936590551 -0.5751678652 -1.5962453517
| 22> H 1.8521950882 0.2274409076 -1.8454542469
| 23> H 1.5264546173 -2.0351711682 -0.8182908033
| 24> H 1.8583786542 -2.3315095891 0.88120349
| 25> H -0.5979642521 -2.254965859 0.1945723282
| 26> H -0.1587756387 -1.2716294523 1.5893866596
| 27> H 2.1006555456 1.7167638808 0.9905079687
| 28> H 1.4081093566 0.4770451551 2.0264181016
| 29> H 0.7256804569 1.9573587267 -1.2214837914
| 30> H -2.2937773948 1.0572537678 -0.4742036449
| 31> H -3.7983768355 -0.7439297776 -1.266744418
| 32> H -2.5259714556 -1.9370087895 -1.0248528683
| 33> H -2.3297018218 -0.6695611829 -2.2377182591
| 34> H -2.6288327591 -1.2987519611 1.4378498194
| 35> H -3.7752984381 0.0042834344 1.1397625864
| 36> H -2.2494158278 0.349136966 1.9460500171
| 37> *
| 38>
| 39>                          ****END OF INPUT****

CARTESIAN COORDINATES (ANGSTROEM)
---------------------------------
  C      2.700898    0.148387   -1.169998
  C      2.274711   -0.300084    0.229957
  H      3.196558   -0.491220    0.791484
  C      1.447688   -1.601863    0.180908
  C     -0.029948   -1.379559    0.512024
  C     -0.549780   -0.127996   -0.190856
  H     -0.241003   -0.183330   -1.241940
  C      0.120095    1.117165    0.423955
  H     -0.498896    1.495552    1.244693
  C      1.515784    0.794107    0.987921
  O      0.147957    2.194967   -0.487622
  C     -2.084283    0.017907   -0.195018
  C     -2.720831   -0.890003   -1.246715
  C     -2.717821   -0.249123    1.168633
  H      3.205883    1.111811   -1.125981
  H      3.393659   -0.575168   -1.596245
  H      1.852195    0.227441   -1.845454
  H      1.526455   -2.035171   -0.818291
  H      1.858379   -2.331510    0.881203
  H     -0.597964   -2.254966    0.194572
  H     -0.158776   -1.271629    1.589387
  H      2.100656    1.716764    0.990508
  H      1.408109    0.477045    2.026418
  H      0.725680    1.957359   -1.221484
  H     -2.293777    1.057254   -0.474204
  H     -3.798377   -0.743930   -1.266744
  H     -2.525971   -1.937009   -1.024853
  H     -2.329702   -0.669561   -2.237718
  H     -2.628833   -1.298752    1.437850
  H     -3.775298    0.004283    1.139763
  H     -2.249416    0.349137    1.946050

 Total Charge           Charge          ....    0
 Multiplicity           Mult            ....    1
 Number of Electrons    NEL             ....   88
 Basis Dimension        Dim             ....  194

ORBITAL ENERGIES
----------------

  NO   OCC          E(Eh)            E(eV)
   0   2.0000     -18.735593      -509.8214
   1   2.0000      -9.929135      -270.1855
   2   2.0000      -9.896283      -269.2915
   3   2.0000      -9.887070      -269.0408
   4   2.0000      -9.886939      -269.0373
   5   2.0000      -9.882639      -268.9203
   6   2.0000      -9.882453      -268.9152
   7   2.0000      -9.881264      -268.8829
   8   2.0000      -9.878394      -268.8048
   9   2.0000      -9.869399      -268.5600
  10   2.0000      -9.869065      -268.5509
  11   2.0000      -0.916646       -24.9432
  12   2.0000      -0.758651       -20.6439
  13   2.0000      -0.721056       -19.6209
  14   2.0000      -0.668496       -18.1907
  15   2.0000      -0.653785       -17.7904
  16   2.0000      -0.610911       -16.6237
  17   2.0000      -0.607477       -16.5303
  18   2.0000      -0.554259       -15.0822
  19   2.0000      -0.543798       -14.7975
  20   2.0000      -0.492956       -13.4140
  21   2.0000      -0.482982       -13.1426
  22   2.0000      -0.446643       -12.1538
  23   2.0000      -0.429350       -11.6832
  24   2.0000      -0.411830       -11.2065
  25   2.0000      -0.393300       -10.7022
  26   2.0000      -0.391589       -10.6557
  27   2.0000      -0.384929       -10.4745
  28   2.0000      -0.369622       -10.0579
  29   2.0000      -0.357561        -9.7297
  30   2.0000      -0.354797        -9.6545
  31   2.0000      -0.343016        -9.3339
  32   2.0000      -0.339215        -9.2305
  33   2.0000      -0.327711        -8.9175
  34   2.0000      -0.315908        -8.5963
  35   2.0000      -0.306740        -8.3468
  36   2.0000      -0.301551        -8.2056
  37   2.0000      -0.291599        -7.9348
  38   2.0000      -0.286036        -7.7834
  39   2.0000      -0.278895        -7.5891
  40   2.0000      -0.265274        -7.2185
  41   2.0000      -0.264905        -7.2084
  42   2.0000      -0.241485        -6.5711
  43   2.0000      -0.205330        -5.5873
  44   0.0000       0.022379         0.6090
  45   0.0000       0.033088         0.9004
  46   0.0000       0.042816         1.1651
  47   0.0000       0.053876         1.4660
  48   0.0000       0.079884         2.1738

MULLIKEN ATOMIC CHARGES
-----------------------
   0 C :   -0.291162
   1 C :   -0.171255
   2 H :    0.068616
   3 C :   -0.095241
   4 C :   -0.128780
   5 C :   -0.139930
   6 H :    0.041796
   7 C :    0.044538
   8 H :    0.060260
   9 C :   -0.073633
  10 O :   -0.425739
  11 C :   -0.126427
  12 C :   -0.237992
  13 C :   -0.257030
  14 H :    0.103564
  15 H :    0.107230
  16 H :    0.104300
  17 H :    0.073297
  18 H :    0.076484
  19 H :    0.087173
  20 H :    0.075945
  21 H :    0.084388
  22 H :    0.068829
  23 H :    0.289252
  24 H :    0.075568
  25 H :    0.096511
  26 H :    0.093212
  27 H :    0.095660
  28 H :    0.098738
  29 H :    0.099794
  30 H :    0.102034
Sum of atomic charges:   -0.0000000

LOEWDIN ATOMIC CHARGES
----------------------
   0 C :   -0.340298
   1 C :   -0.152642
   2 H :    0.118357
   3 C :   -0.215610
   4 C :   -0.218843
   5 C :   -0.148499
   6 H :    0.109735
   7 C :   -0.046599
   8 H :    0.112372
   9 C :   -0.232683
  10 O :   -0.319768
  11 C :   -0.148954
  12 C :   -0.328888
  13 C :   -0.330462
  14 H :    0.117261
  15 H :    0.122247
  16 H :    0.107671
  17 H :    0.114962
  18 H :    0.117624
  19 H :    0.117246
  20 H :    0.116795
  21 H :    0.120028
  22 H :    0.120458
  23 H :    0.273812
  24 H :    0.118516
  25 H :    0.117660
  26 H :    0.113538
  27 H :    0.115205
  28 H :    0.115931
  29 H :    0.119691
  30 H :    0.114139

  Mayer bond orders larger than 0.100000
B(  0-C ,  1-C ) :   1.1075 B(  0-C , 14-H ) :   0.9452 B(  0-C , 15-H ) :   0.9420
B(  0-C , 16-H ) :   0.9318 B(  1-C ,  2-H ) :   0.8974 B(  1-C ,  3-C ) :   1.0567
B(  1-C ,  9-C ) :   1.1538 B(  3-C ,  4-C ) :   1.1669 B(  3-C , 17-H ) :   0.9189
B(  3-C , 18-H ) :   0.9100 B(  4-C ,  5-C ) :   1.1153 B(  4-C , 19-H ) :   0.9085
B(  4-C , 20-H ) :   0.8776 B(  5-C ,  6-H ) :   0.8630 B(  5-C ,  7-C ) :   1.0094
B(  5-C , 11-C ) :   1.0342 B(  7-C ,  8-H ) :   0.8842 B(  7-C ,  9-C ) :   1.0789
B(  7-C , 10-O ) :   1.0302 B(  9-C , 21-H ) :   0.9071 B(  9-C , 22-H ) :   0.8811
B( 10-O , 23-H ) :   0.8494 B( 11-C , 12-C ) :   1.1115 B( 11-C , 13-C ) :   1.1182
B( 11-C , 24-H ) :   0.8927 B( 12-C , 25-H ) :   0.9497 B( 12-C , 26-H ) :   0.9432
B( 12-C , 27-H ) :   0.9469 B( 13-C , 28-H ) :   0.9384 B( 13-C , 29-H ) :   0.9480
B( 13-C , 30-H ) :   0.9409

Dispersion correction           -0.032498700
FINAL SINGLE POINT ENERGY      -467.188247002638

DIPOLE MOMENT
-------------

Method             : SCF
Type of density    : Electron Density
Multiplicity       :   1
Irrep              :   0
Energy             :  -467.3001737151844281 Eh
Relativity type    :
Basis              : AO
                                X                 Y                 Z
Electronic contribution:      2.074056044       4.515479048       0.512144915
Nuclear contribution   :     -1.715058670      -5.029391608      -0.580440068
                        -----------------------------------------
Total Dipole Moment    :      0.358997374      -0.513912561      -0.068295153
                        -----------------------------------------
Magnitude (a.u.)       :      0.630594531
Magnitude (Debye)      :      1.602843918

Rotational constants in cm-1:             0.054822             0.025589             0.022632
Rotational constants in MHz :          1643.511983           767.144400           678.490209

                             ****ORCA TERMINATED NORMALLY****
TOTAL RUN TIME: 0 days 0 hours 0 minutes 16 seconds 662 msec
