                         Program Version 6.0.1  -  RELEASE   -
|  1> ! pbe def2-sv(p) def2/J RI DEFGRID1 loosescf d4 GCP(DFT/SV(P)) printgap
|  2> %output
|  3>     printlevel normal
|  4> end
|  5> * xyz 0 1
|  6> C -2.2852141471 -0.8172404048 -0.6863121605
|  7> C -1.0819108923 -0.6072736495 0.246524482
|  8> H -1.3094033 -1.0055856206 1.2520786158
|  9> C -0.748674916 0.8970372625 0.4225385057
| 10> H -1.6273785186 1.4739576425 0.1036648296
| 11> C 0.4680331803 1.2699260185 -0.4358085241
| 12> H 0.7404215231 2.3153246821 -0.2141490019
| 13> C 1.6659853884 0.3956399159 -0.0323425512
| 14> H 2.3714817971 0.3905285064 -0.8744675663
| 15> C 1.2246922044 -1.0687030976 0.2525791425
| 16> H 1.1831283114 -1.2119937198 1.3490482809
| 17> O -0.0206995409 -1.3458232108 -0.3233458128
| 18> O 2.1405881085 -1.9853665671 -0.2348367737
| 19> O 2.2520349179 0.971053953 1.1165351807
| 20> O 0.2478844918 1.0914883379 -1.8101278829
| 21> O -0.5306776781 1.2301146344 1.7706388924
| 22> O -3.396066499 -0.039363625 -0.3345539369
| 23> H -2.5296713658 -1.8870134967 -0.7027311234
| 24> H -2.0010424592 -0.5153023467 -1.6963098258
| 25> H 1.9307827508 -2.1339054379 -1.1654850782
| 26> H 3.0492440195 0.4761395406 1.3374250564
| 27> H -0.5449242764 1.5784593258 -2.0626403255
| 28> H 0.4190736708 1.1862233972 1.9556896452
| 29> H -3.6612803615 -0.2571677062 0.5666414671
| 30> *
| 31>
| 32>                          ****END OF INPUT****

CARTESIAN COORDINATES (ANGSTROEM)
---------------------------------
  C     -2.285214   -0.817240   -0.686312
  C     -1.081911   -0.607274    0.246524
  H     -1.309403   -1.005586    1.252079
  C     -0.748675    0.897037    0.422539
  H     -1.627379    1.473958    0.103665
  C      0.468033    1.269926   -0.435809
  H      0.740422    2.315325   -0.214149
  C      1.665985    0.395640   -0.032343
  H      2.371482    0.390529   -0.874468
  C      1.224692   -1.068703    0.252579
  H      1.183128   -1.211994    1.349048
  O     -0.020700   -1.345823   -0.323346
  O      2.140588   -1.985367   -0.234837
  O      2.252035    0.971054    1.116535
  O      0.247884    1.091488   -1.810128
  O     -0.530678    1.230115    1.770639
  O     -3.396066   -0.039364   -0.334554
  H     -2.529671   -1.887013   -0.702731
  H     -2.001042   -0.515302   -1.696310
  H      1.930783   -2.133905   -1.165485
  H      3.049244    0.476140    1.337425
  H     -0.544924    1.578459   -2.062640
  H      0.419074    1.186223    1.955690
  H     -3.661280   -0.257168    0.566641

 Total Charge           Charge          ....    0
 Multiplicity           Mult            ....    1
 Number of Electrons    NEL             ....   96
 Basis Dimension        Dim             ....  192

ORBITAL ENERGIES
----------------

  NO   OCC          E(Eh)            E(eV)
   0   2.0000     -18.778886      -510.9995
   1   2.0000     -18.773154      -510.8435
   2   2.0000     -18.762808      -510.5620
   3   2.0000     -18.760722      -510.5052
   4   2.0000     -18.757288      -510.4118
   5   2.0000     -18.740089      -509.9437
   6   2.0000      -9.989641      -271.8320
   7   2.0000      -9.948524      -270.7131
   8   2.0000      -9.947603      -270.6881
   9   2.0000      -9.942445      -270.5477
  10   2.0000      -9.937348      -270.4090
  11   2.0000      -9.934569      -270.3334
  12   2.0000      -0.990512       -26.9532
  13   2.0000      -0.954042       -25.9608
  14   2.0000      -0.941996       -25.6330
  15   2.0000      -0.935379       -25.4530
  16   2.0000      -0.922838       -25.1117
  17   2.0000      -0.913870       -24.8677
  18   2.0000      -0.697476       -18.9793
  19   2.0000      -0.693975       -18.8840
  20   2.0000      -0.614858       -16.7311
  21   2.0000      -0.599977       -16.3262
  22   2.0000      -0.565371       -15.3845
  23   2.0000      -0.527855       -14.3637
  24   2.0000      -0.514883       -14.0107
  25   2.0000      -0.492225       -13.3941
  26   2.0000      -0.483337       -13.1523
  27   2.0000      -0.459597       -12.5063
  28   2.0000      -0.453220       -12.3327
  29   2.0000      -0.438949       -11.9444
  30   2.0000      -0.419847       -11.4246
  31   2.0000      -0.395080       -10.7507
  32   2.0000      -0.390356       -10.6221
  33   2.0000      -0.373137       -10.1536
  34   2.0000      -0.355686        -9.6787
  35   2.0000      -0.352840        -9.6013
  36   2.0000      -0.329187        -8.9576
  37   2.0000      -0.323750        -8.8097
  38   2.0000      -0.315278        -8.5791
  39   2.0000      -0.313155        -8.5214
  40   2.0000      -0.285404        -7.7662
  41   2.0000      -0.278337        -7.5739
  42   2.0000      -0.253921        -6.9095
  43   2.0000      -0.246180        -6.6989
  44   2.0000      -0.235099        -6.3974
  45   2.0000      -0.230034        -6.2595
  46   2.0000      -0.214486        -5.8365
  47   2.0000      -0.198781        -5.4091
  48   0.0000       0.007249         0.1973
  49   0.0000       0.022374         0.6088
  50   0.0000       0.026967         0.7338
  51   0.0000       0.046311         1.2602
  52   0.0000       0.050967         1.3869

MULLIKEN ATOMIC CHARGES
-----------------------
   0 C :    0.059146
   1 C :    0.047645
   2 H :    0.057572
   3 C :   -0.034702
   4 H :    0.075688
   5 C :    0.049792
   6 H :    0.083103
   7 C :    0.018798
   8 H :    0.068284
   9 C :    0.198014
  10 H :    0.043132
  11 O :   -0.299008
  12 O :   -0.393188
  13 O :   -0.418603
  14 O :   -0.406511
  15 O :   -0.426093
  16 O :   -0.423762
  17 H :    0.086068
  18 H :    0.077219
  19 H :    0.304797
  20 H :    0.316170
  21 H :    0.309773
  22 H :    0.302812
  23 H :    0.303855
Sum of atomic charges:   -0.0000000

LOEWDIN ATOMIC CHARGES
----------------------
   0 C :   -0.129798
   1 C :   -0.074872
   2 H :    0.100505
   3 C :   -0.086745
   4 H :    0.110905
   5 C :   -0.073480
   6 H :    0.107199
   7 C :   -0.088842
   8 H :    0.112796
   9 C :   -0.003035
  10 H :    0.089642
  11 O :   -0.143895
  12 O :   -0.301434
  13 O :   -0.308658
  14 O :   -0.311995
  15 O :   -0.324450
  16 O :   -0.323677
  17 H :    0.102962
  18 H :    0.111267
  19 H :    0.289447
  20 H :    0.296305
  21 H :    0.289840
  22 H :    0.271879
  23 H :    0.288132

  Mayer bond orders larger than 0.100000
B(  0-C ,  1-C ) :   1.0352 B(  0-C , 16-O ) :   1.0635 B(  0-C , 17-H ) :   0.9153
B(  0-C , 18-H ) :   0.9103 B(  1-C ,  2-H ) :   0.8856 B(  1-C ,  3-C ) :   0.9400
B(  1-C , 11-O ) :   0.9843 B(  3-C ,  4-H ) :   0.8857 B(  3-C ,  5-C ) :   1.0220
B(  3-C , 15-O ) :   1.0779 B(  5-C ,  6-H ) :   0.8977 B(  5-C ,  7-C ) :   0.9798
B(  5-C , 14-O ) :   1.0717 B(  7-C ,  8-H ) :   0.8795 B(  7-C ,  9-C ) :   0.9675
B(  7-C , 13-O ) :   1.0306 B(  9-C , 10-H ) :   0.8765 B(  9-C , 11-O ) :   1.0690
B(  9-C , 12-O ) :   1.1187 B( 12-O , 19-H ) :   0.8441 B( 13-O , 20-H ) :   0.8407
B( 14-O , 21-H ) :   0.8383 B( 15-O , 22-H ) :   0.8116 B( 16-O , 23-H ) :   0.8484

Dispersion correction           -0.024928003
FINAL SINGLE POINT ENERGY      -685.686602048509

DIPOLE MOMENT
-------------

Method             : SCF
Type of density    : Electron Density
Multiplicity       :   1
Irrep              :   0
Energy             :  -685.8181592144368324 Eh
Relativity type    :
Basis              : AO
                                X                 Y                 Z
Electronic contribution:      2.127657771      -0.512801848       0.066044407
Nuclear contribution   :     -1.846904352       0.383181246      -0.139153728
                        -----------------------------------------
Total Dipole Moment    :      0.280753418      -0.129620603      -0.073109321
                        -----------------------------------------
Magnitude (a.u.)       :      0.317756126
Magnitude (Debye)      :      0.807671885

Rotational constants in cm-1:             0.044057             0.024969             0.021564
Rotational constants in MHz :          1320.781984           748.547089           646.464978

                             ****ORCA TERMINATED NORMALLY****
TOTAL RUN TIME: 0 days 0 hours 0 minutes 9 seconds 625 msec
