                         Program Version 6.0.1  -  RELEASE   -
|  1> ! r2scan-3c def2/J RI DEFGRID2 scfconv6 printgap
|  2> %output
|  3>     printlevel normal
|  4> end
|  5> * xyz 0 1
|  6> C -2.2004594304 -0.9028540229 -0.1476982216
|  7> C -1.1313952943 -0.3256363946 0.8040248877
|  8> H -1.5911440068 -0.313113441 1.8013818617
|  9> C -0.7353614468 1.1360535621 0.4955606121
| 10> H -1.6014112611 1.6517070229 0.0634585082
| 11> C 0.4446345812 1.2443642763 -0.4879250969
| 12> H 0.785750986 2.2912807545 -0.4783503373
| 13> C 1.6022538653 0.3427367179 0.0016363579
| 14> H 2.4029978302 0.349756973 -0.7537156996
| 15> C 1.0883886527 -1.0996238785 0.1217307898
| 16> H 1.8379851399 -1.7216366389 0.6278353771
| 17> O -0.0244526953 -1.2086892258 0.9618978634
| 18> O 0.8741610062 -1.6445507714 -1.152639414
| 19> O 2.0944892652 0.7435755024 1.2580905936
| 20> O 0.1089877874 0.9243553598 -1.8168632006
| 21> O -0.4404877929 1.8243630986 1.6829268292
| 22> O -1.792246514 -0.9969913247 -1.4904970246
| 23> H -3.0753997392 -0.2490411239 -0.1340758941
| 24> H -2.488328666 -1.8902685541 0.2302551929
| 25> H 0.8051856067 -0.9178664202 -1.7978291449
| 26> H 2.5051092012 1.6123348894 1.1723736925
| 27> H -0.7416178567 0.4345061623 -1.8361942647
| 28> H 0.3193451482 1.383982547 2.0962349566
| 29> H -1.0765242113 -1.6573843561 -1.5307106643
| 30> *
| 31>
| 32>                          ****END OF INPUT****

CARTESIAN COORDINATES (ANGSTROEM)
---------------------------------
  C     -2.200459   -0.902854   -0.147698
  C     -1.131395   -0.325636    0.804025
  H     -1.591144   -0.313113    1.801382
  C     -0.735361    1.136054    0.495561
  H     -1.601411    1.651707    0.063459
  C      0.444635    1.244364   -0.487925
  H      0.785751    2.291281   -0.478350
  C      1.602254    0.342737    0.001636
  H      2.402998    0.349757   -0.753716
  C      1.088389   -1.099624    0.121731
  H      1.837985   -1.721637    0.627835
  O     -0.024453   -1.208689    0.961898
  O      0.874161   -1.644551   -1.152639
  O      2.094489    0.743576    1.258091
  O      0.108988    0.924355   -1.816863
  O     -0.440488    1.824363    1.682927
  O     -1.792247   -0.996991   -1.490497
  H     -3.075400   -0.249041   -0.134076
  H     -2.488329   -1.890269    0.230255
  H      0.805186   -0.917866   -1.797829
  H      2.505109    1.612335    1.172374
  H     -0.741618    0.434506   -1.836194
  H      0.319345    1.383983    2.096235
  H     -1.076524   -1.657384   -1.530711

 Total Charge           Charge          ....    0
 Multiplicity           Mult            ....    1
 Number of Electrons    NEL             ....   96
 Basis Dimension        Dim             ....  318

ORBITAL ENERGIES
----------------

  NO   OCC          E(Eh)            E(eV)
   0   2.0000     -18.985487      -516.6214
   1   2.0000     -18.973505      -516.2953
   2   2.0000     -18.973142      -516.2854
   3   2.0000     -18.970825      -516.2224
   4   2.0000     -18.964514      -516.0507
   5   2.0000     -18.952990      -515.7371
   6   2.0000     -10.144927      -276.0575
   7   2.0000     -10.105481      -274.9841
   8   2.0000     -10.100768      -274.8559
   9   2.0000     -10.099868      -274.8314
  10   2.0000     -10.097739      -274.7734
  11   2.0000     -10.092832      -274.6399
  12   2.0000      -1.056694       -28.7541
  13   2.0000      -1.023625       -27.8542
  14   2.0000      -1.012999       -27.5651
  15   2.0000      -1.002505       -27.2796
  16   2.0000      -0.999078       -27.1863
  17   2.0000      -0.982882       -26.7456
  18   2.0000      -0.753723       -20.5098
  19   2.0000      -0.745161       -20.2769
  20   2.0000      -0.669586       -18.2204
  21   2.0000      -0.636958       -17.3325
  22   2.0000      -0.619209       -16.8495
  23   2.0000      -0.555201       -15.1078
  24   2.0000      -0.528121       -14.3709
  25   2.0000      -0.513374       -13.9696
  26   2.0000      -0.500179       -13.6106
  27   2.0000      -0.494825       -13.4649
  28   2.0000      -0.474539       -12.9129
  29   2.0000      -0.465813       -12.6754
  30   2.0000      -0.459534       -12.5046
  31   2.0000      -0.428336       -11.6556
  32   2.0000      -0.424136       -11.5413
  33   2.0000      -0.401473       -10.9246
  34   2.0000      -0.386023       -10.5042
  35   2.0000      -0.374423       -10.1886
  36   2.0000      -0.368165       -10.0183
  37   2.0000      -0.354853        -9.6560
  38   2.0000      -0.337115        -9.1734
  39   2.0000      -0.332895        -9.0585
  40   2.0000      -0.321179        -8.7397
  41   2.0000      -0.300773        -8.1845
  42   2.0000      -0.289519        -7.8782
  43   2.0000      -0.287426        -7.8213
  44   2.0000      -0.272046        -7.4027
  45   2.0000      -0.252232        -6.8636
  46   2.0000      -0.236115        -6.4250
  47   2.0000      -0.227679        -6.1954
  48   0.0000       0.020905         0.5689
  49   0.0000       0.040357         1.0982
  50   0.0000       0.067166         1.8277
  51   0.0000       0.078978         2.1491
  52   0.0000       0.084959         2.3119

MULLIKEN ATOMIC CHARGES
-----------------------
   0 C :   -0.238147
   1 C :    0.056287
   2 H :    0.170907
   3 C :   -0.154095
   4 H :    0.175909
   5 C :   -0.022014
   6 H :    0.171326
   7 C :   -0.059494
   8 H :    0.162021
   9 C :   -0.072444
  10 H :    0.148341
  11 O :   -0.164976
  12 O :   -0.417768
  13 O :   -0.424765
  14 O :   -0.475777
  15 O :   -0.409875
  16 O :   -0.475568
  17 H :    0.146362
  18 H :    0.151930
  19 H :    0.345044
  20 H :    0.309055
  21 H :    0.381358
  22 H :    0.337175
  23 H :    0.359210
Sum of atomic charges:    0.0000000

LOEWDIN ATOMIC CHARGES
----------------------
   0 C :    0.027573
   1 C :    0.100900
   2 H :    0.210452
   3 C :    0.105338
   4 H :    0.197933
   5 C :    0.106753
   6 H :    0.191169
   7 C :    0.119309
   8 H :    0.187260
   9 C :    0.296329
  10 H :    0.214504
  11 O :   -0.639984
  12 O :   -0.530499
  13 O :   -0.572649
  14 O :   -0.600030
  15 O :   -0.577987
  16 O :   -0.614301
  17 H :    0.184290
  18 H :    0.175611
  19 H :    0.285526
  20 H :    0.276722
  21 H :    0.287746
  22 H :    0.282775
  23 H :    0.285259

  Mayer bond orders larger than 0.100000
B(  0-C ,  1-C ) :   0.8887 B(  0-C , 16-O ) :   1.0036 B(  0-C , 17-H ) :   0.9813
B(  0-C , 18-H ) :   0.9738 B(  1-C ,  2-H ) :   0.9447 B(  1-C ,  3-C ) :   0.8245
B(  1-C , 11-O ) :   0.8830 B(  1-C , 16-O ) :  -0.1106 B(  3-C ,  4-H ) :   0.9963
B(  3-C ,  5-C ) :   0.8244 B(  3-C , 15-O ) :   0.9885 B(  5-C ,  6-H ) :   0.9960
B(  5-C ,  7-C ) :   0.8352 B(  5-C , 14-O ) :   0.9464 B(  7-C ,  8-H ) :   0.9758
B(  7-C ,  9-C ) :   0.9794 B(  7-C , 13-O ) :   0.9299 B(  9-C , 10-H ) :   0.9603
B(  9-C , 11-O ) :   0.9985 B(  9-C , 12-O ) :   0.9824 B( 12-O , 19-H ) :   0.8136
B( 13-O , 20-H ) :   0.8927 B( 14-O , 21-H ) :   0.7790 B( 15-O , 22-H ) :   0.8311
B( 16-O , 23-H ) :   0.8237

Dispersion correction           -0.008946650
FINAL SINGLE POINT ENERGY      -687.075175552784

DIPOLE MOMENT
-------------

Method             : SCF
Type of density    : Electron Density
Multiplicity       :   1
Irrep              :   0
Energy             :  -687.0897256669819626 Eh
Relativity type    :
Basis              : AO
                                X                 Y                 Z
Electronic contribution:      2.058316808      -0.618692353       0.582811439
Nuclear contribution   :     -1.787304346       0.908716909      -0.514242230
                        -----------------------------------------
Total Dipole Moment    :      0.271012462       0.290024556       0.068569209
                        -----------------------------------------
Magnitude (a.u.)       :      0.402819729
Magnitude (Debye)      :      1.023886382

Rotational constants in cm-1:             0.041450             0.031818             0.027455
Rotational constants in MHz :          1242.626508           953.873863           823.075073

                             ****ORCA TERMINATED NORMALLY****
TOTAL RUN TIME: 0 days 0 hours 0 minutes 41 seconds 323 msec
