                         Program Version 6.0.1  -  RELEASE   -
|  1> ! r2scan-3c def2/J RI DEFGRID2 scfconv6 printgap
|  2> %output
|  3>     printlevel normal
|  4> end
|  5> * xyz 0 1
|  6> C -2.8852411268 -0.0640318124 0.0012120564
|  7> C -1.3901139956 -0.005542769 -0.0003192413
|  8> C -0.7139176941 1.2121497429 -0.0005500464
|  9> C 0.6668893922 1.2247172718 -0.0005961194
| 10> C 1.3533165606 0.0112191292 -0.0002332593
| 11> N 0.7138500118 -1.1487333386 -0.000612658
| 12> C -0.6075708686 -1.152563114 -0.0007305997
| 13> C 2.8496031712 -0.0376078869 0.0011918372
| 14> H -3.2316828706 -1.0943473402 -0.0094913095
| 15> H -3.2825963036 0.4289527072 0.887942887
| 16> H -3.2858361501 0.4489083724 -0.8725380201
| 17> H -1.2714246614 2.139102775 -0.0007389504
| 18> H 1.2125804964 2.1567738733 -0.000873135
| 19> H -1.0655819971 -2.1344597871 -0.0012005029
| 20> H 3.2435083009 0.4574070123 0.8875156355
| 21> H 3.1782659515 -1.0723905681 -0.006742165
| 22> H 3.246421518 0.4726174638 -0.8750580242
| 23> *
| 24>
| 25>                          ****END OF INPUT****

CARTESIAN COORDINATES (ANGSTROEM)
---------------------------------
  C     -2.885241   -0.064032    0.001212
  C     -1.390114   -0.005543   -0.000319
  C     -0.713918    1.212150   -0.000550
  C      0.666889    1.224717   -0.000596
  C      1.353317    0.011219   -0.000233
  N      0.713850   -1.148733   -0.000613
  C     -0.607571   -1.152563   -0.000731
  C      2.849603   -0.037608    0.001192
  H     -3.231683   -1.094347   -0.009491
  H     -3.282596    0.428953    0.887943
  H     -3.285836    0.448908   -0.872538
  H     -1.271425    2.139103   -0.000739
  H      1.212580    2.156774   -0.000873
  H     -1.065582   -2.134460   -0.001201
  H      3.243508    0.457407    0.887516
  H      3.178266   -1.072391   -0.006742
  H      3.246422    0.472617   -0.875058

 Total Charge           Charge          ....    0
 Multiplicity           Mult            ....    1
 Number of Electrons    NEL             ....   58
 Basis Dimension        Dim             ....  202

ORBITAL ENERGIES
----------------

  NO   OCC          E(Eh)            E(eV)
   0   2.0000     -14.144936      -384.9033
   1   2.0000     -10.068217      -273.9701
   2   2.0000     -10.057198      -273.6703
   3   2.0000     -10.046421      -273.3770
   4   2.0000     -10.045929      -273.3636
   5   2.0000     -10.037586      -273.1366
   6   2.0000     -10.033807      -273.0338
   7   2.0000     -10.021193      -272.6905
   8   2.0000      -0.910897       -24.7868
   9   2.0000      -0.783029       -21.3073
  10   2.0000      -0.753060       -20.4918
  11   2.0000      -0.697749       -18.9867
  12   2.0000      -0.636730       -17.3263
  13   2.0000      -0.597264       -16.2524
  14   2.0000      -0.560864       -15.2619
  15   2.0000      -0.471524       -12.8308
  16   2.0000      -0.460371       -12.5273
  17   2.0000      -0.421002       -11.4561
  18   2.0000      -0.407842       -11.0980
  19   2.0000      -0.391798       -10.6614
  20   2.0000      -0.381412       -10.3787
  21   2.0000      -0.372804       -10.1445
  22   2.0000      -0.358573        -9.7573
  23   2.0000      -0.343278        -9.3411
  24   2.0000      -0.341330        -9.2881
  25   2.0000      -0.322366        -8.7720
  26   2.0000      -0.263460        -7.1691
  27   2.0000      -0.225934        -6.1480
  28   2.0000      -0.216684        -5.8963
  29   0.0000      -0.048020        -1.3067
  30   0.0000      -0.031311        -0.8520
  31   0.0000       0.076714         2.0875
  32   0.0000       0.099035         2.6949
  33   0.0000       0.102026         2.7763

MULLIKEN ATOMIC CHARGES
-----------------------
   0 C :   -0.544681
   1 C :    0.247226
   2 C :   -0.210036
   3 C :   -0.188278
   4 C :    0.280142
   5 N :   -0.186894
   6 C :   -0.205108
   7 C :   -0.585492
   8 H :    0.152822
   9 H :    0.161137
  10 H :    0.160513
  11 H :    0.147070
  12 H :    0.150303
  13 H :    0.134618
  14 H :    0.153649
  15 H :    0.179886
  16 H :    0.153125
Sum of atomic charges:   -0.0000000

LOEWDIN ATOMIC CHARGES
----------------------
   0 C :   -0.389261
   1 C :   -0.089617
   2 C :   -0.120236
   3 C :   -0.138432
   4 C :    0.120807
   5 N :   -0.621016
   6 C :    0.080242
   7 C :   -0.363518
   8 H :    0.161565
   9 H :    0.164685
  10 H :    0.164549
  11 H :    0.170365
  12 H :    0.170311
  13 H :    0.184311
  14 H :    0.164922
  15 H :    0.175619
  16 H :    0.164704

  Mayer bond orders larger than 0.100000
B(  0-C ,  1-C ) :   0.8012 B(  0-C ,  8-H ) :   0.9882 B(  0-C ,  9-H ) :   0.9761
B(  0-C , 10-H ) :   0.9767 B(  1-C ,  2-C ) :   1.3378 B(  1-C ,  6-C ) :   1.3286
B(  2-C ,  3-C ) :   1.4866 B(  2-C , 11-H ) :   0.9571 B(  3-C ,  4-C ) :   1.3695
B(  3-C , 12-H ) :   0.9197 B(  4-C ,  5-N ) :   1.3432 B(  4-C ,  7-C ) :   0.8220
B(  5-N ,  6-C ) :   1.5039 B(  6-C , 13-H ) :   0.9906 B(  7-C , 14-H ) :   0.9686
B(  7-C , 15-H ) :   1.0009 B(  7-C , 16-H ) :   0.9694

Dispersion correction           -0.005184429
FINAL SINGLE POINT ENERGY      -326.823148428976

DIPOLE MOMENT
-------------

Method             : SCF
Type of density    : Electron Density
Multiplicity       :   1
Irrep              :   0
Energy             :  -326.8257122826356635 Eh
Relativity type    :
Basis              : AO
                                X                 Y                 Z
Electronic contribution:      0.773826428      -0.978797390      -0.006703402
Nuclear contribution   :     -1.174749977       1.684810794       0.008267924
                        -----------------------------------------
Total Dipole Moment    :     -0.400923548       0.706013404       0.001564523
                        -----------------------------------------
Magnitude (a.u.)       :      0.811909518
Magnitude (Debye)      :      2.063709990

Rotational constants in cm-1:             0.186513             0.050048             0.040046
Rotational constants in MHz :          5591.506333          1500.404618          1200.552292

                             ****ORCA TERMINATED NORMALLY****
TOTAL RUN TIME: 0 days 0 hours 0 minutes 24 seconds 786 msec
