                         Program Version 6.0.1  -  RELEASE   -
|  1> ! pbe def2-sv(p) def2/J RI DEFGRID1 loosescf d4 GCP(DFT/SV(P)) printgap
|  2> %output
|  3>     printlevel normal
|  4> end
|  5> * xyz 0 1
|  6> C -3.1949444991 0.5598243351 0.0104779034
|  7> O -2.2939970297 -0.5167975825 -0.0004215167
|  8> C -0.9515849906 -0.2379844131 -0.0019854843
|  9> C -0.1001920055 -1.3422567694 -0.0023580803
| 10> C 1.266797677 -1.1770017069 -0.0073526699
| 11> C 1.8303221516 0.0999727532 -0.0104715112
| 12> C 0.9756773556 1.19729399 -0.0124779409
| 13> C -0.3991479394 1.0357033873 -0.0069999033
| 14> N 3.2052110224 0.2679832712 0.0631758039
| 15> H -3.0881677555 1.1860523654 -0.8822487599
| 16> H -3.0720295477 1.1809581641 0.9045360486
| 17> H -4.1887230473 0.1140668532 0.0179102718
| 18> H -0.5382299259 -2.3278120222 -0.0012517499
| 19> H 1.9138773354 -2.0423688495 -0.0068615249
| 20> H 1.3925598423 2.194526994 -0.0160901444
| 21> H -1.0235703121 1.9154244888 -0.0092966411
| 22> H 3.7545755624 -0.5161688696 -0.2515004504
| 23> H 3.5512830524 1.1594740388 -0.2550337746
| 24> *
| 25>
| 26>                          ****END OF INPUT****

CARTESIAN COORDINATES (ANGSTROEM)
---------------------------------
  C     -3.194944    0.559824    0.010478
  O     -2.293997   -0.516798   -0.000422
  C     -0.951585   -0.237984   -0.001985
  C     -0.100192   -1.342257   -0.002358
  C      1.266798   -1.177002   -0.007353
  C      1.830322    0.099973   -0.010472
  C      0.975677    1.197294   -0.012478
  C     -0.399148    1.035703   -0.007000
  N      3.205211    0.267983    0.063176
  H     -3.088168    1.186052   -0.882249
  H     -3.072030    1.180958    0.904536
  H     -4.188723    0.114067    0.017910
  H     -0.538230   -2.327812   -0.001252
  H      1.913877   -2.042369   -0.006862
  H      1.392560    2.194527   -0.016090
  H     -1.023570    1.915424   -0.009297
  H      3.754576   -0.516169   -0.251500
  H      3.551283    1.159474   -0.255034

 Total Charge           Charge          ....    0
 Multiplicity           Mult            ....    1
 Number of Electrons    NEL             ....   66
 Basis Dimension        Dim             ....  144

ORBITAL ENERGIES
----------------

  NO   OCC          E(Eh)            E(eV)
   0   2.0000     -18.768446      -510.7154
   1   2.0000     -13.988193      -380.6381
   2   2.0000      -9.930888      -270.2332
   3   2.0000      -9.930032      -270.2099
   4   2.0000      -9.920209      -269.9426
   5   2.0000      -9.881444      -268.8878
   6   2.0000      -9.880315      -268.8570
   7   2.0000      -9.879858      -268.8446
   8   2.0000      -9.877346      -268.7763
   9   2.0000      -0.952844       -25.9282
  10   2.0000      -0.828274       -22.5385
  11   2.0000      -0.750183       -20.4135
  12   2.0000      -0.667838       -18.1728
  13   2.0000      -0.657868       -17.9015
  14   2.0000      -0.607281       -16.5250
  15   2.0000      -0.548979       -14.9385
  16   2.0000      -0.521434       -14.1889
  17   2.0000      -0.479064       -13.0360
  18   2.0000      -0.465072       -12.6553
  19   2.0000      -0.448259       -12.1977
  20   2.0000      -0.409008       -11.1297
  21   2.0000      -0.405584       -11.0365
  22   2.0000      -0.389416       -10.5966
  23   2.0000      -0.369140       -10.0448
  24   2.0000      -0.356216        -9.6931
  25   2.0000      -0.345960        -9.4141
  26   2.0000      -0.335727        -9.1356
  27   2.0000      -0.303861        -8.2685
  28   2.0000      -0.293767        -7.9938
  29   2.0000      -0.269154        -7.3240
  30   2.0000      -0.230615        -6.2753
  31   2.0000      -0.218993        -5.9591
  32   2.0000      -0.152912        -4.1609
  33   0.0000      -0.024961        -0.6792
  34   0.0000       0.005418         0.1474
  35   0.0000       0.036639         0.9970
  36   0.0000       0.050762         1.3813
  37   0.0000       0.067244         1.8298

MULLIKEN ATOMIC CHARGES
-----------------------
   0 C :   -0.112918
   1 O :   -0.274264
   2 C :    0.282854
   3 C :   -0.128041
   4 C :   -0.129560
   5 C :    0.174759
   6 C :   -0.136142
   7 C :   -0.207582
   8 N :   -0.347024
   9 H :    0.102425
  10 H :    0.103208
  11 H :    0.119899
  12 H :    0.039845
  13 H :    0.022409
  14 H :    0.019093
  15 H :    0.034886
  16 H :    0.218105
  17 H :    0.218047
Sum of atomic charges:   -0.0000000

LOEWDIN ATOMIC CHARGES
----------------------
   0 C :   -0.205299
   1 O :   -0.101506
   2 C :    0.007359
   3 C :   -0.134418
   4 C :   -0.152086
   5 C :   -0.023560
   6 C :   -0.156954
   7 C :   -0.167833
   8 N :   -0.326873
   9 H :    0.104051
  10 H :    0.104585
  11 H :    0.119117
  12 H :    0.128326
  13 H :    0.119041
  14 H :    0.117720
  15 H :    0.124746
  16 H :    0.221800
  17 H :    0.221784

  Mayer bond orders larger than 0.100000
B(  0-C ,  1-O ) :   1.0057 B(  0-C ,  9-H ) :   0.9396 B(  0-C , 10-H ) :   0.9396
B(  0-C , 11-H ) :   0.9594 B(  1-O ,  2-C ) :   1.1137 B(  2-C ,  3-C ) :   1.3437
B(  2-C ,  7-C ) :   1.2965 B(  3-C ,  4-C ) :   1.3818 B(  3-C , 12-H ) :   0.9623
B(  4-C ,  5-C ) :   1.3067 B(  4-C , 13-H ) :   0.9649 B(  5-C ,  6-C ) :   1.3431
B(  5-C ,  8-N ) :   1.2084 B(  6-C ,  7-C ) :   1.3395 B(  6-C , 14-H ) :   0.9616
B(  7-C , 15-H ) :   0.9613 B(  8-N , 16-H ) :   0.8853 B(  8-N , 17-H ) :   0.8858

Dispersion correction           -0.017593770
FINAL SINGLE POINT ENERGY      -401.248494900212

DIPOLE MOMENT
-------------

Method             : SCF
Type of density    : Electron Density
Multiplicity       :   1
Irrep              :   0
Energy             :  -401.3087798114891029 Eh
Relativity type    :
Basis              : AO
                                X                 Y                 Z
Electronic contribution:      1.632478282      -2.221244038       0.111566537
Nuclear contribution   :     -1.234548364       2.680874152      -0.468591253
                        -----------------------------------------
Total Dipole Moment    :      0.397929918       0.459630114      -0.357024716
                        -----------------------------------------
Magnitude (a.u.)       :      0.705035254
Magnitude (Debye)      :      1.792057199

Rotational constants in cm-1:             0.164136             0.033244             0.027809
Rotational constants in MHz :          4920.670079           996.638772           833.702180

                             ****ORCA TERMINATED NORMALLY****
TOTAL RUN TIME: 0 days 0 hours 0 minutes 10 seconds 573 msec
