                         Program Version 6.0.1  -  RELEASE   -
|  1> ! r2scan-3c def2/J RI DEFGRID2 scfconv6 printgap
|  2> %output
|  3>     printlevel normal
|  4> end
|  5> * xyz 0 1
|  6> C 2.4733206395 -0.5120944306 0.2036974298
|  7> C 1.2459997291 0.2136816263 -0.3383334422
|  8> C -0.0334417991 -0.1895773153 0.3860016615
|  9> H 0.0670358372 -0.0095542593 1.4599952376
| 10> C -0.4616906803 -1.6218260308 0.12539231
| 11> Cl -1.3550068651 0.9055995011 -0.1570805647
| 12> H 3.3698332714 -0.128204096 -0.2762882094
| 13> H 2.4168605538 -1.5798096285 0.0103447446
| 14> H 2.5661725214 -0.3581966127 1.2765090394
| 15> H 1.1343076886 0.0067026574 -1.4045190808
| 16> H 1.3883249619 1.2899343806 -0.2206896818
| 17> H -1.4203238451 -1.822941856 0.5973767305
| 18> H -0.5563909901 -1.8014423759 -0.9431297799
| 19> H 0.2745189758 -2.3086792299 0.535957518
| 20> *
| 21>
| 22>                          ****END OF INPUT****

CARTESIAN COORDINATES (ANGSTROEM)
---------------------------------
  C      2.473321   -0.512094    0.203697
  C      1.246000    0.213682   -0.338333
  C     -0.033442   -0.189577    0.386002
  H      0.067036   -0.009554    1.459995
  C     -0.461691   -1.621826    0.125392
  Cl    -1.355007    0.905600   -0.157081
  H      3.369833   -0.128204   -0.276288
  H      2.416861   -1.579810    0.010345
  H      2.566173   -0.358197    1.276509
  H      1.134308    0.006703   -1.404519
  H      1.388325    1.289934   -0.220690
  H     -1.420324   -1.822942    0.597377
  H     -0.556391   -1.801442   -0.943130
  H      0.274519   -2.308679    0.535958

 Total Charge           Charge          ....    0
 Multiplicity           Mult            ....    1
 Number of Electrons    NEL             ....   50
 Basis Dimension        Dim             ....  148

ORBITAL ENERGIES
----------------

  NO   OCC          E(Eh)            E(eV)
   0   2.0000    -101.192488     -2753.5876
   1   2.0000     -10.097050      -274.7547
   2   2.0000     -10.039772      -273.1961
   3   2.0000     -10.033038      -273.0128
   4   2.0000     -10.030221      -272.9362
   5   2.0000      -9.348927      -254.3972
   6   2.0000      -7.094890      -193.0618
   7   2.0000      -7.085134      -192.7963
   8   2.0000      -7.084996      -192.7925
   9   2.0000      -0.829648       -22.5759
  10   2.0000      -0.742718       -20.2104
  11   2.0000      -0.694893       -18.9090
  12   2.0000      -0.616091       -16.7647
  13   2.0000      -0.546478       -14.8704
  14   2.0000      -0.450147       -12.2491
  15   2.0000      -0.435210       -11.8427
  16   2.0000      -0.411498       -11.1974
  17   2.0000      -0.382007       -10.3949
  18   2.0000      -0.368926       -10.0390
  19   2.0000      -0.353852        -9.6288
  20   2.0000      -0.326513        -8.8849
  21   2.0000      -0.322440        -8.7740
  22   2.0000      -0.313795        -8.5388
  23   2.0000      -0.261437        -7.1141
  24   2.0000      -0.259807        -7.0697
  25   0.0000       0.011496         0.3128
  26   0.0000       0.087308         2.3758
  27   0.0000       0.111618         3.0373
  28   0.0000       0.118702         3.2301
  29   0.0000       0.126322         3.4374

MULLIKEN ATOMIC CHARGES
-----------------------
   0 C :   -0.491156
   1 C :   -0.239779
   2 C :    0.051241
   3 H :    0.158356
   4 C :   -0.489094
   5 Cl:   -0.214024
   6 H :    0.153069
   7 H :    0.149709
   8 H :    0.145924
   9 H :    0.146902
  10 H :    0.157226
  11 H :    0.162097
  12 H :    0.158888
  13 H :    0.150641
Sum of atomic charges:    0.0000000

LOEWDIN ATOMIC CHARGES
----------------------
   0 C :   -0.420987
   1 C :   -0.329981
   2 C :   -0.262321
   3 H :    0.159489
   4 C :   -0.426894
   5 Cl:    0.018330
   6 H :    0.156242
   7 H :    0.150488
   8 H :    0.152172
   9 H :    0.160499
  10 H :    0.162105
  11 H :    0.161941
  12 H :    0.161191
  13 H :    0.157726

  Mayer bond orders larger than 0.100000
B(  0-C ,  1-C ) :   0.8836 B(  0-C ,  6-H ) :   0.9654 B(  0-C ,  7-H ) :   0.9807
B(  0-C ,  8-H ) :   0.9787 B(  1-C ,  2-C ) :   0.9223 B(  1-C ,  9-H ) :   0.9714
B(  1-C , 10-H ) :   0.9627 B(  2-C ,  3-H ) :   0.9502 B(  2-C ,  4-C ) :   0.9139
B(  2-C ,  5-Cl) :   0.9361 B(  4-C , 11-H ) :   0.9626 B(  4-C , 12-H ) :   0.9765
B(  4-C , 13-H ) :   0.9641

Dispersion correction           -0.003409661
FINAL SINGLE POINT ENERGY      -617.973844996143

DIPOLE MOMENT
-------------

Method             : SCF
Type of density    : Electron Density
Multiplicity       :   1
Irrep              :   0
Energy             :  -617.9791427853342611 Eh
Relativity type    :
Basis              : AO
                                X                 Y                 Z
Electronic contribution:     -9.788838477       6.970637898      -0.986922137
Nuclear contribution   :     10.487697524      -7.512670220       1.182361463
                        -----------------------------------------
Total Dipole Moment    :      0.698859047      -0.542032321       0.195439326
                        -----------------------------------------
Magnitude (a.u.)       :      0.905759093
Magnitude (Debye)      :      2.302256651

Rotational constants in cm-1:             0.224351             0.077404             0.061853
Rotational constants in MHz :          6725.888286          2320.509143          1854.298416

                             ****ORCA TERMINATED NORMALLY****
TOTAL RUN TIME: 0 days 0 hours 0 minutes 12 seconds 985 msec
