                         Program Version 6.0.1  -  RELEASE   -
|  1> ! pbe def2-sv(p) def2/J RI DEFGRID1 loosescf d4 GCP(DFT/SV(P)) printgap
|  2> %output
|  3>     printlevel normal
|  4> end
|  5> * xyz 0 1
|  6> C -2.5437415035 -0.7017969916 -0.3741688213
|  7> C -1.1698635469 -0.329738813 0.1749549515
|  8> H -1.2415039462 -0.2776971276 1.2717034591
|  9> C -0.6991271641 1.031503653 -0.3586732728
| 10> H -0.6483806466 0.9844010026 -1.4591344759
| 11> C 0.7103899216 1.3210891479 0.1713522005
| 12> H 0.6702145399 1.411781115 1.2697550379
| 13> C 1.6440580782 0.163340528 -0.1820113689
| 14> H 1.7367887999 0.0892898846 -1.2771106773
| 15> C 1.0278211909 -1.1490204203 0.3285781518
| 16> H 0.9772394028 -1.1101429667 1.4393533289
| 17> O -0.2546581276 -1.3395484058 -0.198562385
| 18> O 1.8331553354 -2.2020052574 -0.0848898997
| 19> O 2.8982435354 0.4088914381 0.4033476934
| 20> O 1.1472836482 2.5353432026 -0.3899893061
| 21> O -1.6001992627 2.0263542184 0.0440029817
| 22> O -3.09759927 -1.7053888059 0.442796641
| 23> H -2.4206443826 -1.0549365137 -1.405798526
| 24> H -3.1639571551 0.2028104592 -0.3634663257
| 25> H 1.2738669891 -2.9853561483 -0.1481402208
| 26> H 3.4213802876 -0.3974093272 0.3198258519
| 27> H 2.0898798224 2.6139850062 -0.1995401877
| 28> H -1.1650319417 2.8754373061 -0.1101073939
| 29> H -3.9528764991 -1.9619676775 0.0823406315
| 30> *
| 31>
| 32>                          ****END OF INPUT****

CARTESIAN COORDINATES (ANGSTROEM)
---------------------------------
  C     -2.543742   -0.701797   -0.374169
  C     -1.169864   -0.329739    0.174955
  H     -1.241504   -0.277697    1.271703
  C     -0.699127    1.031504   -0.358673
  H     -0.648381    0.984401   -1.459134
  C      0.710390    1.321089    0.171352
  H      0.670215    1.411781    1.269755
  C      1.644058    0.163341   -0.182011
  H      1.736789    0.089290   -1.277111
  C      1.027821   -1.149020    0.328578
  H      0.977239   -1.110143    1.439353
  O     -0.254658   -1.339548   -0.198562
  O      1.833155   -2.202005   -0.084890
  O      2.898244    0.408891    0.403348
  O      1.147284    2.535343   -0.389989
  O     -1.600199    2.026354    0.044003
  O     -3.097599   -1.705389    0.442797
  H     -2.420644   -1.054937   -1.405799
  H     -3.163957    0.202810   -0.363466
  H      1.273867   -2.985356   -0.148140
  H      3.421380   -0.397409    0.319826
  H      2.089880    2.613985   -0.199540
  H     -1.165032    2.875437   -0.110107
  H     -3.952876   -1.961968    0.082341

 Total Charge           Charge          ....    0
 Multiplicity           Mult            ....    1
 Number of Electrons    NEL             ....   96
 Basis Dimension        Dim             ....  192

ORBITAL ENERGIES
----------------

  NO   OCC          E(Eh)            E(eV)
   0   2.0000     -18.775298      -510.9018
   1   2.0000     -18.765748      -510.6420
   2   2.0000     -18.760144      -510.4895
   3   2.0000     -18.756595      -510.3929
   4   2.0000     -18.751225      -510.2468
   5   2.0000     -18.745074      -510.0794
   6   2.0000      -9.988166      -271.7918
   7   2.0000      -9.945405      -270.6282
   8   2.0000      -9.942707      -270.5548
   9   2.0000      -9.942531      -270.5500
  10   2.0000      -9.940482      -270.4943
  11   2.0000      -9.929537      -270.1964
  12   2.0000      -0.990889       -26.9635
  13   2.0000      -0.949568       -25.8391
  14   2.0000      -0.938793       -25.5458
  15   2.0000      -0.924509       -25.1572
  16   2.0000      -0.918809       -25.0021
  17   2.0000      -0.915096       -24.9010
  18   2.0000      -0.706907       -19.2359
  19   2.0000      -0.695045       -18.9131
  20   2.0000      -0.616699       -16.7812
  21   2.0000      -0.581246       -15.8165
  22   2.0000      -0.554371       -15.0852
  23   2.0000      -0.531454       -14.4616
  24   2.0000      -0.514948       -14.0125
  25   2.0000      -0.481581       -13.1045
  26   2.0000      -0.473819       -12.8933
  27   2.0000      -0.459632       -12.5072
  28   2.0000      -0.452674       -12.3179
  29   2.0000      -0.437395       -11.9021
  30   2.0000      -0.413024       -11.2390
  31   2.0000      -0.401503       -10.9254
  32   2.0000      -0.387874       -10.5546
  33   2.0000      -0.376701       -10.2505
  34   2.0000      -0.359063        -9.7706
  35   2.0000      -0.355403        -9.6710
  36   2.0000      -0.328724        -8.9450
  37   2.0000      -0.322975        -8.7886
  38   2.0000      -0.312101        -8.4927
  39   2.0000      -0.297351        -8.0913
  40   2.0000      -0.285585        -7.7712
  41   2.0000      -0.270555        -7.3622
  42   2.0000      -0.250089        -6.8053
  43   2.0000      -0.245379        -6.6771
  44   2.0000      -0.229411        -6.2426
  45   2.0000      -0.222595        -6.0571
  46   2.0000      -0.212988        -5.7957
  47   2.0000      -0.207101        -5.6355
  48   0.0000       0.018974         0.5163
  49   0.0000       0.030323         0.8251
  50   0.0000       0.034528         0.9396
  51   0.0000       0.046816         1.2739
  52   0.0000       0.062669         1.7053

MULLIKEN ATOMIC CHARGES
-----------------------
   0 C :    0.070361
   1 C :    0.020867
   2 H :    0.064921
   3 C :    0.052562
   4 H :    0.055707
   5 C :    0.059369
   6 H :    0.056278
   7 C :    0.035991
   8 H :    0.057763
   9 C :    0.179060
  10 H :    0.040964
  11 O :   -0.307071
  12 O :   -0.398225
  13 O :   -0.426069
  14 O :   -0.426221
  15 O :   -0.414264
  16 O :   -0.431690
  17 H :    0.066887
  18 H :    0.091696
  19 H :    0.311929
  20 H :    0.313671
  21 H :    0.314536
  22 H :    0.311927
  23 H :    0.299050
Sum of atomic charges:    0.0000000

LOEWDIN ATOMIC CHARGES
----------------------
   0 C :   -0.125480
   1 C :   -0.053167
   2 H :    0.112990
   3 C :   -0.066058
   4 H :    0.104058
   5 C :   -0.076524
   6 H :    0.104922
   7 C :   -0.092927
   8 H :    0.107043
   9 C :   -0.001042
  10 H :    0.082038
  11 O :   -0.141511
  12 O :   -0.311899
  13 O :   -0.323770
  14 O :   -0.325098
  15 O :   -0.315852
  16 O :   -0.343440
  17 H :    0.101100
  18 H :    0.109163
  19 H :    0.293980
  20 H :    0.292499
  21 H :    0.292570
  22 H :    0.290130
  23 H :    0.286277

  Mayer bond orders larger than 0.100000
B(  0-C ,  1-C ) :   1.0760 B(  0-C , 16-O ) :   1.1088 B(  0-C , 17-H ) :   0.8990
B(  0-C , 18-H ) :   0.9115 B(  1-C ,  2-H ) :   0.8690 B(  1-C ,  3-C ) :   1.0087
B(  1-C , 11-O ) :   0.9879 B(  3-C ,  4-H ) :   0.8684 B(  3-C ,  5-C ) :   1.0280
B(  3-C , 15-O ) :   1.0680 B(  5-C ,  6-H ) :   0.8725 B(  5-C ,  7-C ) :   1.0138
B(  5-C , 14-O ) :   1.0801 B(  7-C ,  8-H ) :   0.8621 B(  7-C ,  9-C ) :   0.9954
B(  7-C , 13-O ) :   1.0639 B(  9-C , 10-H ) :   0.8832 B(  9-C , 11-O ) :   1.0274
B(  9-C , 12-O ) :   1.1459 B( 12-O , 19-H ) :   0.8370 B( 13-O , 20-H ) :   0.8375
B( 14-O , 21-H ) :   0.8361 B( 15-O , 22-H ) :   0.8343 B( 16-O , 23-H ) :   0.8529

Dispersion correction           -0.023552808
FINAL SINGLE POINT ENERGY      -685.699444905116

DIPOLE MOMENT
-------------

Method             : SCF
Type of density    : Electron Density
Multiplicity       :   1
Irrep              :   0
Energy             :  -685.8299554840644987 Eh
Relativity type    :
Basis              : AO
                                X                 Y                 Z
Electronic contribution:      2.256397538      -0.673998324       0.218623763
Nuclear contribution   :     -2.259487832       0.361975263      -0.541228027
                        -----------------------------------------
Total Dipole Moment    :     -0.003090293      -0.312023061      -0.322604263
                        -----------------------------------------
Magnitude (a.u.)       :      0.448822294
Magnitude (Debye)      :      1.140815609

Rotational constants in cm-1:             0.039896             0.025680             0.016373
Rotational constants in MHz :          1196.042099           769.881182           490.858550

                             ****ORCA TERMINATED NORMALLY****
TOTAL RUN TIME: 0 days 0 hours 0 minutes 25 seconds 487 msec
