                         Program Version 6.0.1  -  RELEASE   -
|  1> ! r2scan-3c def2/J RI DEFGRID2 scfconv6 printgap
|  2> %output
|  3>     printlevel normal
|  4> end
|  5> * xyz 0 1
|  6> C 1.3344447081 1.3273387721 5.4204e-06
|  7> C -0.0291147477 1.1029202697 -0.0002334874
|  8> C -0.4950127524 -0.2141929654 -0.0002628585
|  9> C 0.4516833308 -1.2404753466 -8.45116e-05
| 10> N 1.7522020681 -1.026416984 0.0001121364
| 11> C 2.1812543849 0.2254712368 0.0001819655
| 12> C -1.9355370116 -0.5024875558 -0.0001146899
| 13> O -2.8057475124 0.3285054739 0.0002916018
| 14> H 1.7359132921 2.3286025072 5.25474e-05
| 15> H -0.7436797467 1.9132867419 -0.0003476887
| 16> H 0.1439179889 -2.2789036758 -0.0001253569
| 17> H 3.2565644651 0.3464974381 0.0003526823
| 18> H -2.1717534046 -1.5849597019 -6.37328e-05
| 19> *
| 20>
| 21>                          ****END OF INPUT****

CARTESIAN COORDINATES (ANGSTROEM)
---------------------------------
  C      1.334445    1.327339    0.000005
  C     -0.029115    1.102920   -0.000233
  C     -0.495013   -0.214193   -0.000263
  C      0.451683   -1.240475   -0.000085
  N      1.752202   -1.026417    0.000112
  C      2.181254    0.225471    0.000182
  C     -1.935537   -0.502488   -0.000115
  O     -2.805748    0.328505    0.000292
  H      1.735913    2.328603    0.000053
  H     -0.743680    1.913287   -0.000348
  H      0.143918   -2.278904   -0.000125
  H      3.256564    0.346497    0.000353
  H     -2.171753   -1.584960   -0.000064

 Total Charge           Charge          ....    0
 Multiplicity           Mult            ....    1
 Number of Electrons    NEL             ....   56
 Basis Dimension        Dim             ....  187

ORBITAL ENERGIES
----------------

  NO   OCC          E(Eh)            E(eV)
   0   2.0000     -18.958710      -515.8927
   1   2.0000     -14.175259      -385.7284
   2   2.0000     -10.130388      -275.6619
   3   2.0000     -10.093543      -274.6593
   4   2.0000     -10.091859      -274.6135
   5   2.0000     -10.075045      -274.1559
   6   2.0000     -10.067808      -273.9590
   7   2.0000     -10.065564      -273.8979
   8   2.0000      -1.026336       -27.9280
   9   2.0000      -0.938870       -25.5480
  10   2.0000      -0.800699       -21.7881
  11   2.0000      -0.763829       -20.7849
  12   2.0000      -0.653556       -17.7842
  13   2.0000      -0.623275       -16.9602
  14   2.0000      -0.563951       -15.3459
  15   2.0000      -0.512726       -13.9520
  16   2.0000      -0.487934       -13.2774
  17   2.0000      -0.457210       -12.4413
  18   2.0000      -0.424584       -11.5535
  19   2.0000      -0.412252       -11.2180
  20   2.0000      -0.410684       -11.1753
  21   2.0000      -0.388621       -10.5749
  22   2.0000      -0.375015       -10.2047
  23   2.0000      -0.361572        -9.8389
  24   2.0000      -0.291326        -7.9274
  25   2.0000      -0.271149        -7.3783
  26   2.0000      -0.251026        -6.8308
  27   2.0000      -0.230937        -6.2841
  28   0.0000      -0.110886        -3.0174
  29   0.0000      -0.069831        -1.9002
  30   0.0000      -0.011987        -0.3262
  31   0.0000       0.076673         2.0864
  32   0.0000       0.091316         2.4848

MULLIKEN ATOMIC CHARGES
-----------------------
   0 C :   -0.101440
   1 C :   -0.152542
   2 C :    0.286544
   3 C :   -0.191249
   4 N :   -0.177697
   5 C :   -0.057776
   6 C :    0.007233
   7 O :   -0.335965
   8 H :    0.154365
   9 H :    0.182000
  10 H :    0.141895
  11 H :    0.139270
  12 H :    0.105362
Sum of atomic charges:    0.0000000

LOEWDIN ATOMIC CHARGES
----------------------
   0 C :   -0.136602
   1 C :   -0.065327
   2 C :   -0.082170
   3 C :    0.107876
   4 N :   -0.602565
   5 C :    0.104117
   6 C :    0.216075
   7 O :   -0.442295
   8 H :    0.174021
   9 H :    0.189232
  10 H :    0.190992
  11 H :    0.188516
  12 H :    0.158130

  Mayer bond orders larger than 0.100000
B(  0-C ,  1-C ) :   1.4176 B(  0-C ,  5-C ) :   1.3215 B(  0-C ,  8-H ) :   0.9443
B(  1-C ,  2-C ) :   1.3084 B(  1-C ,  9-H ) :   0.9584 B(  2-C ,  3-C ) :   1.2504
B(  2-C ,  6-C ) :   0.8370 B(  2-C ,  7-O ) :  -0.1144 B(  2-C , 12-H ) :  -0.1026
B(  3-C ,  4-N ) :   1.4850 B(  3-C , 10-H ) :   0.9861 B(  4-N ,  5-C ) :   1.4577
B(  5-C , 11-H ) :   0.9791 B(  6-C ,  7-O ) :   1.9597 B(  6-C , 12-H ) :   1.0271

Dispersion correction           -0.004110419
FINAL SINGLE POINT ENERGY      -361.522922750817

DIPOLE MOMENT
-------------

Method             : SCF
Type of density    : Electron Density
Multiplicity       :   1
Irrep              :   0
Energy             :  -361.5247413363796909 Eh
Relativity type    :
Basis              : AO
                                X                 Y                 Z
Electronic contribution:     -1.369933276      -0.470566122      -0.000157189
Nuclear contribution   :      2.051726210       0.678953061      -0.000118482
                        -----------------------------------------
Total Dipole Moment    :      0.681792934       0.208386939      -0.000275670
                        -----------------------------------------
Magnitude (a.u.)       :      0.712928326
Magnitude (Debye)      :      1.812119792

Rotational constants in cm-1:             0.183284             0.053187             0.041224
Rotational constants in MHz :          5494.701524          1594.517668          1235.876419

                             ****ORCA TERMINATED NORMALLY****
TOTAL RUN TIME: 0 days 0 hours 0 minutes 22 seconds 248 msec
