                         Program Version 6.0.1  -  RELEASE   -
|  1> ! pbe def2-sv(p) def2/J RI DEFGRID1 loosescf d4 GCP(DFT/SV(P)) printgap
|  2> %output
|  3>     printlevel normal
|  4> end
|  5> * xyz 0 1
|  6> C -3.2068145228 0.29648142 0.9753114631
|  7> C -1.7308673617 0.2233223274 0.59185495
|  8> H -1.1481873156 0.1587012848 1.5164351488
|  9> C -1.305636251 1.4755310716 -0.1909147368
| 10> C -0.1797554003 1.1969162273 -1.1947916275
| 11> C 0.7867650287 0.1058035482 -0.7277425955
| 12> H 1.5307539488 -0.0782377836 -1.5120660144
| 13> C 0.015526011 -1.1921863477 -0.5667402362
| 14> O 0.517969327 -2.2732530965 -0.7531716618
| 15> C -1.4467731433 -1.0357069384 -0.2231166168
| 16> C 1.5747526546 0.4982144586 0.5467308319
| 17> C 2.1796167143 -0.7238934769 1.23396157
| 18> C 2.6850120238 1.4863483074 0.1912439237
| 19> H -3.4055718638 1.2007844695 1.5462313462
| 20> H -3.8333290591 0.3067837654 0.0856671274
| 21> H -3.4884945827 -0.5606470129 1.5827895696
| 22> H -2.1653040071 1.8675909198 -0.7384388929
| 23> H -0.9972157748 2.2507243187 0.5125144354
| 24> H -0.6123859417 0.8735978503 -2.1445662991
| 25> H 0.3660693849 2.1200758408 -1.3934066048
| 26> H -1.996780667 -0.9956806613 -1.1684883149
| 27> H -1.7812224267 -1.9312006268 0.3047228573
| 28> H 0.8938949925 0.9884535272 1.24723448
| 29> H 2.8237794384 -0.4108273587 2.0530555946
| 30> H 2.7705972946 -1.3038137708 0.5293340939
| 31> H 1.4059516514 -1.3730727185 1.637059852
| 32> H 3.1979772417 1.8120060082 1.0936551935
| 33> H 2.2886125418 2.3673518703 -0.3072043921
| 34> H 3.4144749741 1.016844828 -0.4653865987
| 35> *
| 36>
| 37>                          ****END OF INPUT****

CARTESIAN COORDINATES (ANGSTROEM)
---------------------------------
  C     -3.206815    0.296481    0.975311
  C     -1.730867    0.223322    0.591855
  H     -1.148187    0.158701    1.516435
  C     -1.305636    1.475531   -0.190915
  C     -0.179755    1.196916   -1.194792
  C      0.786765    0.105804   -0.727743
  H      1.530754   -0.078238   -1.512066
  C      0.015526   -1.192186   -0.566740
  O      0.517969   -2.273253   -0.753172
  C     -1.446773   -1.035707   -0.223117
  C      1.574753    0.498214    0.546731
  C      2.179617   -0.723893    1.233962
  C      2.685012    1.486348    0.191244
  H     -3.405572    1.200784    1.546231
  H     -3.833329    0.306784    0.085667
  H     -3.488495   -0.560647    1.582790
  H     -2.165304    1.867591   -0.738439
  H     -0.997216    2.250724    0.512514
  H     -0.612386    0.873598   -2.144566
  H      0.366069    2.120076   -1.393407
  H     -1.996781   -0.995681   -1.168488
  H     -1.781222   -1.931201    0.304723
  H      0.893895    0.988454    1.247234
  H      2.823779   -0.410827    2.053056
  H      2.770597   -1.303814    0.529334
  H      1.405952   -1.373073    1.637060
  H      3.197977    1.812006    1.093655
  H      2.288613    2.367352   -0.307204
  H      3.414475    1.016845   -0.465387

 Total Charge           Charge          ....    0
 Multiplicity           Mult            ....    1
 Number of Electrons    NEL             ....   86
 Basis Dimension        Dim             ....  190

ORBITAL ENERGIES
----------------

  NO   OCC          E(Eh)            E(eV)
   0   2.0000     -18.729777      -509.6632
   1   2.0000      -9.965504      -271.1752
   2   2.0000      -9.905204      -269.5343
   3   2.0000      -9.904974      -269.5281
   4   2.0000      -9.896294      -269.2919
   5   2.0000      -9.892099      -269.1777
   6   2.0000      -9.890748      -269.1409
   7   2.0000      -9.888651      -269.0839
   8   2.0000      -9.879793      -268.8428
   9   2.0000      -9.877565      -268.7822
  10   2.0000      -9.869660      -268.5671
  11   2.0000      -0.933378       -25.3985
  12   2.0000      -0.769086       -20.9279
  13   2.0000      -0.729106       -19.8400
  14   2.0000      -0.679264       -18.4837
  15   2.0000      -0.652753       -17.7623
  16   2.0000      -0.613898       -16.7050
  17   2.0000      -0.611600       -16.6425
  18   2.0000      -0.556731       -15.1494
  19   2.0000      -0.515488       -14.0271
  20   2.0000      -0.506678       -13.7874
  21   2.0000      -0.470038       -12.7904
  22   2.0000      -0.444728       -12.1017
  23   2.0000      -0.413927       -11.2635
  24   2.0000      -0.413479       -11.2513
  25   2.0000      -0.399785       -10.8787
  26   2.0000      -0.390205       -10.6180
  27   2.0000      -0.372693       -10.1415
  28   2.0000      -0.368777       -10.0349
  29   2.0000      -0.358899        -9.7661
  30   2.0000      -0.348390        -9.4802
  31   2.0000      -0.344932        -9.3861
  32   2.0000      -0.335731        -9.1357
  33   2.0000      -0.332905        -9.0588
  34   2.0000      -0.325922        -8.8688
  35   2.0000      -0.311636        -8.4800
  36   2.0000      -0.301380        -8.2010
  37   2.0000      -0.299346        -8.1456
  38   2.0000      -0.292648        -7.9634
  39   2.0000      -0.276981        -7.5370
  40   2.0000      -0.275671        -7.5014
  41   2.0000      -0.268732        -7.3126
  42   2.0000      -0.185231        -5.0404
  43   0.0000      -0.047543        -1.2937
  44   0.0000       0.018853         0.5130
  45   0.0000       0.038548         1.0489
  46   0.0000       0.049498         1.3469
  47   0.0000       0.064124         1.7449

MULLIKEN ATOMIC CHARGES
-----------------------
   0 C :   -0.215491
   1 C :   -0.210869
   2 H :    0.083430
   3 C :   -0.138743
   4 C :   -0.089996
   5 C :   -0.098044
   6 H :    0.068555
   7 C :    0.000634
   8 O :   -0.155698
   9 C :   -0.094258
  10 C :   -0.226989
  11 C :   -0.205227
  12 C :   -0.238214
  13 H :    0.103128
  14 H :    0.093668
  15 H :    0.100009
  16 H :    0.077435
  17 H :    0.089447
  18 H :    0.080415
  19 H :    0.088963
  20 H :    0.099887
  21 H :    0.093982
  22 H :    0.084654
  23 H :    0.095697
  24 H :    0.102551
  25 H :    0.109209
  26 H :    0.102353
  27 H :    0.101205
  28 H :    0.098308
Sum of atomic charges:   -0.0000000

LOEWDIN ATOMIC CHARGES
----------------------
   0 C :   -0.325557
   1 C :   -0.154509
   2 H :    0.117823
   3 C :   -0.221285
   4 C :   -0.217384
   5 C :   -0.158827
   6 H :    0.132256
   7 C :    0.049341
   8 O :   -0.120872
   9 C :   -0.238805
  10 C :   -0.143240
  11 C :   -0.330717
  12 C :   -0.327320
  13 H :    0.119557
  14 H :    0.116601
  15 H :    0.118850
  16 H :    0.119850
  17 H :    0.118769
  18 H :    0.119297
  19 H :    0.120701
  20 H :    0.142059
  21 H :    0.132588
  22 H :    0.115836
  23 H :    0.116732
  24 H :    0.124560
  25 H :    0.118318
  26 H :    0.120009
  27 H :    0.115653
  28 H :    0.119717

  Mayer bond orders larger than 0.100000
B(  0-C ,  1-C ) :   1.1179 B(  0-C , 13-H ) :   0.9505 B(  0-C , 14-H ) :   0.9438
B(  0-C , 15-H ) :   0.9480 B(  1-C ,  2-H ) :   0.8853 B(  1-C ,  3-C ) :   1.0868
B(  1-C ,  9-C ) :   1.1172 B(  3-C ,  4-C ) :   1.1449 B(  3-C , 16-H ) :   0.9092
B(  3-C , 17-H ) :   0.9119 B(  4-C ,  5-C ) :   1.1043 B(  4-C , 18-H ) :   0.8999
B(  4-C , 19-H ) :   0.9050 B(  5-C ,  6-H ) :   0.8510 B(  5-C ,  7-C ) :   0.9593
B(  5-C , 10-C ) :   1.0151 B(  7-C ,  8-O ) :   2.1637 B(  7-C ,  9-C ) :   1.0327
B(  9-C , 20-H ) :   0.8632 B(  9-C , 21-H ) :   0.8962 B( 10-C , 11-C ) :   1.1413
B( 10-C , 12-C ) :   1.1126 B( 10-C , 22-H ) :   0.8880 B( 11-C , 23-H ) :   0.9469
B( 11-C , 24-H ) :   0.9385 B( 11-C , 25-H ) :   0.9289 B( 12-C , 26-H ) :   0.9463
B( 12-C , 27-H ) :   0.9446 B( 12-C , 28-H ) :   0.9462

Dispersion correction           -0.030651292
FINAL SINGLE POINT ENERGY      -466.028566654511

DIPOLE MOMENT
-------------

Method             : SCF
Type of density    : Electron Density
Multiplicity       :   1
Irrep              :   0
Energy             :  -466.1246546246646858 Eh
Relativity type    :
Basis              : AO
                                X                 Y                 Z
Electronic contribution:      0.290749970      -6.798077704      -3.883586838
Nuclear contribution   :     -0.683163336       7.761905215       4.097188420
                        -----------------------------------------
Total Dipole Moment    :     -0.392413365       0.963827511       0.213601581
                        -----------------------------------------
Magnitude (a.u.)       :      1.062345215
Magnitude (Debye)      :      2.700266944

Rotational constants in cm-1:             0.050613             0.028314             0.023322
Rotational constants in MHz :          1517.327347           848.835932           699.185001

                             ****ORCA TERMINATED NORMALLY****
TOTAL RUN TIME: 0 days 0 hours 0 minutes 18 seconds 284 msec
