                         Program Version 6.0.0  -   RELEASE  -
|  1> ! r2SCAN-3c DEF2-TZVP FREQ
|  2> * xyzfile 0 1 censo.xyz
|  3>
|  4>                          ****END OF INPUT****

CARTESIAN COORDINATES (ANGSTROEM)
---------------------------------
  C     -2.666906    0.588743    0.756636
  C     -1.851250    0.594626   -0.542727
  C     -0.381116    0.388493   -0.294568
  C      0.502088    1.467515   -0.227415
  C      1.858983    1.293415    0.038815
  C      2.356639    0.008602    0.239934
  C      1.500623   -1.087204    0.179966
  C      0.144186   -0.894691   -0.080233
  O     -0.732476   -1.955879   -0.141706
  H     -3.731893    0.729729    0.546166
  H     -2.340245    1.396694    1.419467
  H     -2.549106   -0.357741    1.293394
  H     -1.989240    1.553678   -1.052424
  H     -2.229767   -0.185057   -1.212386
  H      0.107442    2.467395   -0.390210
  H      2.520694    2.152318    0.082774
  H      3.411487   -0.147583    0.443082
  H      1.877308   -2.095488    0.333091
  H     -0.245204   -2.774969    0.024009

 Total Charge           Charge          ....    0
 Multiplicity           Mult            ....    1
 Number of Electrons    NEL             ....   66
 Basis Dimension        Dim             ....  339

ORBITAL ENERGIES
----------------

  NO   OCC          E(Eh)            E(eV)
   0   2.0000     -18.986453      -516.6477
   1   2.0000     -10.093643      -274.6620
   2   2.0000     -10.037640      -273.1381
   3   2.0000     -10.036372      -273.1036
   4   2.0000     -10.035729      -273.0861
   5   2.0000     -10.033605      -273.0283
   6   2.0000     -10.030589      -272.9462
   7   2.0000     -10.028667      -272.8939
   8   2.0000     -10.017726      -272.5962
   9   2.0000      -1.024455       -27.8768
  10   2.0000      -0.818855       -22.2822
  11   2.0000      -0.752146       -20.4669
  12   2.0000      -0.705168       -19.1886
  13   2.0000      -0.686869       -18.6907
  14   2.0000      -0.597833       -16.2679
  15   2.0000      -0.591194       -16.0872
  16   2.0000      -0.543546       -14.7906
  17   2.0000      -0.507831       -13.8188
  18   2.0000      -0.457033       -12.4365
  19   2.0000      -0.444014       -12.0822
  20   2.0000      -0.408887       -11.1264
  21   2.0000      -0.397051       -10.8043
  22   2.0000      -0.390198       -10.6178
  23   2.0000      -0.380380       -10.3507
  24   2.0000      -0.365865        -9.9557
  25   2.0000      -0.344914        -9.3856
  26   2.0000      -0.334067        -9.0904
  27   2.0000      -0.327640        -8.9155
  28   2.0000      -0.309960        -8.4344
  29   2.0000      -0.301434        -8.2024
  30   2.0000      -0.295888        -8.0515
  31   2.0000      -0.229806        -6.2534
  32   2.0000      -0.203160        -5.5283
  33   0.0000      -0.032343        -0.8801
  34   0.0000      -0.017606        -0.4791
  35   0.0000       0.032149         0.8748
  36   0.0000       0.060668         1.6509
  37   0.0000       0.064510         1.7554

MULLIKEN ATOMIC CHARGES
-----------------------
   0 C :   -0.345133
   1 C :   -0.133221
   2 C :    0.065254
   3 C :   -0.164184
   4 C :   -0.143188
   5 C :   -0.108215
   6 C :   -0.222141
   7 C :    0.246506
   8 O :   -0.410940
   9 H :    0.102639
  10 H :    0.103442
  11 H :    0.121041
  12 H :    0.086410
  13 H :    0.095112
  14 H :    0.099090
  15 H :    0.103297
  16 H :    0.108299
  17 H :    0.085835
  18 H :    0.310096
Sum of atomic charges:   -0.0000000

LOEWDIN ATOMIC CHARGES
----------------------
   0 C :   -0.297434
   1 C :   -0.239467
   2 C :   -0.131432
   3 C :   -0.112188
   4 C :   -0.159455
   5 C :   -0.147320
   6 C :   -0.149227
   7 C :   -0.235397
   8 O :    0.076289
   9 H :    0.116434
  10 H :    0.118204
  11 H :    0.121556
  12 H :    0.138565
  13 H :    0.143461
  14 H :    0.146368
  15 H :    0.141318
  16 H :    0.142596
  17 H :    0.139751
  18 H :    0.187376

  Mayer bond orders larger than 0.100000
B(  0-C ,  1-C ) :   0.9618 B(  0-C ,  9-H ) :   0.9721 B(  0-C , 10-H ) :   0.9749
B(  0-C , 11-H ) :   0.9770 B(  1-C ,  2-C ) :   0.9163 B(  1-C , 12-H ) :   0.9740
B(  1-C , 13-H ) :   0.9545 B(  2-C ,  3-C ) :   1.3679 B(  2-C ,  7-C ) :   1.3256
B(  3-C ,  4-C ) :   1.4059 B(  3-C , 14-H ) :   0.9787 B(  4-C ,  5-C ) :   1.3987
B(  4-C , 15-H ) :   0.9767 B(  5-C ,  6-C ) :   1.3904 B(  5-C , 16-H ) :   0.9612
B(  6-C ,  7-C ) :   1.3624 B(  6-C , 17-H ) :   0.9703 B(  7-C ,  8-O ) :   1.1194
B(  8-O , 18-H ) :   0.8847

Dispersion correction           -0.006199497
FINAL SINGLE POINT ENERGY      -386.031058905094

DIPOLE MOMENT
-------------

Method             : SCF
Type of density    : Electron Density
Multiplicity       :   1
Irrep              :   0
Energy             :  -386.0315768871875548 Eh
Relativity type    :
Basis              : AO
                                X                 Y                 Z
Electronic contribution:      5.121906662      -2.916238930      -1.301842168
Nuclear contribution   :     -4.909530189       2.555428082       1.386987648
                        -----------------------------------------
Total Dipole Moment    :      0.212376473      -0.360810848       0.085145480
                        -----------------------------------------
Magnitude (a.u.)       :      0.427244645
Magnitude (Debye)      :      1.085969585

VIBRATIONAL FREQUENCIES
-----------------------

Scaling factor for frequencies =  1.000000000  (already applied!)

     0:       0.00 cm**-1
     1:       0.00 cm**-1
     2:       0.00 cm**-1
     3:       0.00 cm**-1
     4:       0.00 cm**-1
     5:       0.00 cm**-1
     6:      78.39 cm**-1
     7:     127.12 cm**-1
     8:     220.73 cm**-1
     9:     230.87 cm**-1
    10:     321.20 cm**-1
    11:     345.12 cm**-1
    12:     424.70 cm**-1
    13:     441.43 cm**-1
    14:     483.68 cm**-1
    15:     535.72 cm**-1
    16:     570.50 cm**-1
    17:     598.41 cm**-1
    18:     734.48 cm**-1
    19:     747.85 cm**-1
    20:     750.45 cm**-1
    21:     793.65 cm**-1
    22:     835.53 cm**-1
    23:     851.52 cm**-1
    24:     914.25 cm**-1
    25:     942.38 cm**-1
    26:     974.10 cm**-1
    27:    1048.22 cm**-1
    28:    1069.86 cm**-1
    29:    1082.19 cm**-1
    30:    1132.11 cm**-1
    31:    1178.52 cm**-1
    32:    1187.98 cm**-1
    33:    1236.42 cm**-1
    34:    1254.61 cm**-1
    35:    1276.32 cm**-1
    36:    1342.87 cm**-1
    37:    1350.39 cm**-1
    38:    1368.20 cm**-1
    39:    1395.99 cm**-1
    40:    1475.48 cm**-1
    41:    1482.91 cm**-1
    42:    1489.60 cm**-1
    43:    1500.12 cm**-1
    44:    1526.43 cm**-1
    45:    1620.57 cm**-1
    46:    1639.16 cm**-1
    47:    3006.44 cm**-1
    48:    3022.48 cm**-1
    49:    3063.34 cm**-1
    50:    3084.84 cm**-1
    51:    3094.48 cm**-1
    52:    3143.63 cm**-1
    53:    3147.89 cm**-1
    54:    3165.50 cm**-1
    55:    3181.00 cm**-1
    56:    3759.67 cm**-1

IR SPECTRUM
-----------

 Mode   freq       eps      Int      T**2         TX        TY        TZ
       cm**-1   L/(mol*cm) km/mol    a.u.
----------------------------------------------------------------------------
  6:     78.39   0.000033    0.17  0.000133  (-0.000176 -0.009628 -0.006310)
  7:    127.12   0.000278    1.40  0.000682  ( 0.006028 -0.000404 -0.025408)
  8:    220.73   0.000078    0.39  0.000110  ( 0.003263  0.006503 -0.007566)
  9:    230.87   0.000073    0.37  0.000099  (-0.002375 -0.005390 -0.008008)
 10:    321.20   0.000671    3.39  0.000652  ( 0.004094  0.018909  0.016662)
 11:    345.12   0.000512    2.59  0.000463  (-0.009513 -0.009717  0.016668)
 12:    424.70   0.017198   86.91  0.012637  ( 0.020830 -0.011617 -0.109854)
 13:    441.43   0.000788    3.98  0.000557  (-0.000459 -0.017977 -0.015297)
 14:    483.68   0.001726    8.72  0.001114  ( 0.014012  0.009908 -0.028620)
 15:    535.72   0.001299    6.56  0.000757  (-0.015685 -0.015300 -0.016628)
 16:    570.50   0.000128    0.65  0.000070  (-0.005712 -0.006118 -0.000248)
 17:    598.41   0.000085    0.43  0.000045  ( 0.001870 -0.003209  0.005542)
 18:    734.48   0.001966    9.94  0.000835  ( 0.009852 -0.001498 -0.027132)
 19:    747.85   0.008233   41.61  0.003435  (-0.004160  0.007496  0.057982)
 20:    750.45   0.004380   22.14  0.001821  (-0.014966  0.002215  0.039907)
 21:    793.65   0.000218    1.10  0.000086  ( 0.003602  0.006483  0.005531)
 22:    835.53   0.000112    0.57  0.000042  (-0.003346 -0.003130  0.004568)
 23:    851.52   0.004888   24.70  0.001791  ( 0.015173  0.039494  0.001185)
 24:    914.25   0.000198    1.00  0.000067  (-0.000175 -0.000824 -0.008172)
 25:    942.38   0.000079    0.40  0.000026  ( 0.001895  0.000762 -0.004682)
 26:    974.10   0.000852    4.30  0.000273  (-0.015296 -0.005845 -0.002177)
 27:   1048.22   0.000343    1.73  0.000102  (-0.002502 -0.009790  0.000130)
 28:   1069.86   0.002391   12.08  0.000697  ( 0.024721 -0.008183  0.004388)
 29:   1082.19   0.000482    2.44  0.000139  (-0.011307  0.001520 -0.002994)
 30:   1132.11   0.013277   67.09  0.003660  ( 0.031338  0.051695  0.002281)
 31:   1178.52   0.000370    1.87  0.000098  ( 0.009255 -0.002988  0.001851)
 32:   1187.98   0.007322   37.00  0.001923  ( 0.028720  0.032787  0.004856)
 33:   1236.42   0.006534   33.02  0.001649  (-0.028578 -0.028848 -0.000573)
 34:   1254.61   0.007458   37.69  0.001855  ( 0.024909  0.035117  0.001165)
 35:   1276.32   0.008413   42.52  0.002057  (-0.028240 -0.035335 -0.003317)
 36:   1342.87   0.000860    4.34  0.000200  (-0.004179 -0.013408 -0.001585)
 37:   1350.39   0.003668   18.54  0.000848  ( 0.022939  0.017912  0.000791)
 38:   1368.20   0.005088   25.71  0.001161  (-0.011969 -0.031895 -0.000175)
 39:   1395.99   0.000565    2.85  0.000126  ( 0.001994  0.001842 -0.010901)
 40:   1475.48   0.004531   22.90  0.000958  ( 0.015249  0.025821  0.007691)
 41:   1482.91   0.005040   25.47  0.001061  (-0.017013 -0.027552  0.003470)
 42:   1489.60   0.001933    9.77  0.000405  ( 0.003418  0.019462 -0.003813)
 43:   1500.12   0.000720    3.64  0.000150  (-0.005067  0.002442 -0.010873)
 44:   1526.43   0.004358   22.03  0.000891  ( 0.025199  0.015939  0.001415)
 45:   1620.57   0.004325   21.86  0.000833  (-0.011206 -0.026595 -0.000148)
 46:   1639.16   0.001506    7.61  0.000287  (-0.012282 -0.011144 -0.003421)
 47:   3006.44   0.007624   38.53  0.000791  ( 0.022474 -0.004963 -0.016176)
 48:   3022.48   0.005457   27.58  0.000563  (-0.008789  0.006946 -0.020926)
 49:   3063.34   0.000503    2.54  0.000051  (-0.003753  0.005836 -0.001757)
 50:   3084.84   0.008554   43.23  0.000865  ( 0.025738  0.004977  0.013347)
 51:   3094.48   0.006139   31.03  0.000619  (-0.004397  0.024333 -0.002772)
 52:   3143.63   0.003223   16.29  0.000320  ( 0.000389 -0.017847  0.001120)
 53:   3147.89   0.000865    4.37  0.000086  ( 0.008306 -0.003469  0.002181)
 54:   3165.50   0.003180   16.07  0.000313  ( 0.007520 -0.015782  0.002799)
 55:   3181.00   0.002911   14.71  0.000286  (-0.015146 -0.007352 -0.001448)
 56:   3759.67   0.009811   49.58  0.000814  (-0.001303  0.028369 -0.002794)

--------------------------
THERMOCHEMISTRY AT 298.15K
--------------------------

Temperature         ...   298.15 K
Pressure            ...     1.00 atm
Total Mass          ...   122.17 AMU
Quasi RRHO          ...     True
Cut-Off Frequency   ...     1.00 cm^-1

Throughout the following assumptions are being made:
  (1) The electronic state is orbitally nondegenerate
  (2) There are no thermally accessible electronically excited states
  (3) Hindered rotations indicated by low frequency modes are not
      treated as such but are treated as vibrations and this may
      cause some error
  (4) All equations used are the standard statistical mechanics
      equations for an ideal gas
  (5) All vibrations are strictly harmonic

freq.      78.39  E(vib)   ...       0.49
freq.     127.12  E(vib)   ...       0.43
freq.     220.73  E(vib)   ...       0.33
freq.     230.87  E(vib)   ...       0.32
freq.     321.20  E(vib)   ...       0.25
freq.     345.12  E(vib)   ...       0.23
freq.     424.70  E(vib)   ...       0.18
freq.     441.43  E(vib)   ...       0.17
freq.     483.68  E(vib)   ...       0.15
freq.     535.72  E(vib)   ...       0.12
freq.     570.50  E(vib)   ...       0.11
freq.     598.41  E(vib)   ...       0.10
freq.     734.48  E(vib)   ...       0.06
freq.     747.85  E(vib)   ...       0.06
freq.     750.45  E(vib)   ...       0.06
freq.     793.65  E(vib)   ...       0.05
freq.     835.53  E(vib)   ...       0.04
freq.     851.52  E(vib)   ...       0.04
freq.     914.25  E(vib)   ...       0.03
freq.     942.38  E(vib)   ...       0.03
freq.     974.10  E(vib)   ...       0.03
freq.    1048.22  E(vib)   ...       0.02
freq.    1069.86  E(vib)   ...       0.02
freq.    1082.19  E(vib)   ...       0.02
freq.    1132.11  E(vib)   ...       0.01
freq.    1178.52  E(vib)   ...       0.01
freq.    1187.98  E(vib)   ...       0.01
freq.    1236.42  E(vib)   ...       0.01
freq.    1254.61  E(vib)   ...       0.01
freq.    1276.32  E(vib)   ...       0.01
freq.    1342.87  E(vib)   ...       0.01
freq.    1350.39  E(vib)   ...       0.01
freq.    1368.20  E(vib)   ...       0.01
freq.    1395.99  E(vib)   ...       0.00
freq.    1475.48  E(vib)   ...       0.00
freq.    1482.91  E(vib)   ...       0.00
freq.    1489.60  E(vib)   ...       0.00
freq.    1500.12  E(vib)   ...       0.00
freq.    1526.43  E(vib)   ...       0.00
freq.    1620.57  E(vib)   ...       0.00
freq.    1639.16  E(vib)   ...       0.00
freq.    3006.44  E(vib)   ...       0.00
freq.    3022.48  E(vib)   ...       0.00
freq.    3063.34  E(vib)   ...       0.00
freq.    3084.84  E(vib)   ...       0.00
freq.    3094.48  E(vib)   ...       0.00
freq.    3143.63  E(vib)   ...       0.00
freq.    3147.89  E(vib)   ...       0.00
freq.    3165.50  E(vib)   ...       0.00
freq.    3181.00  E(vib)   ...       0.00
freq.    3759.67  E(vib)   ...       0.00

------------
INNER ENERGY
------------

The inner energy is: U= E(el) + E(ZPE) + E(vib) + E(rot) + E(trans)
    E(el)   - is the total energy from the electronic structure calculation
              = E(kin-el) + E(nuc-el) + E(el-el) + E(nuc-nuc)
    E(ZPE)  - the the zero temperature vibrational energy from the frequency calculation
    E(vib)  - the the finite temperature correction to E(ZPE) due to population
              of excited vibrational states
    E(rot)  - is the rotational thermal energy
    E(trans)- is the translational thermal energy

Summary of contributions to the inner energy U:
Electronic energy                ...   -386.03105891 Eh
Zero point energy                ...      0.16003967 Eh     100.43 kcal/mol
Thermal vibrational correction   ...      0.00548444 Eh       3.44 kcal/mol
Thermal rotational correction    ...      0.00141627 Eh       0.89 kcal/mol
Thermal translational correction ...      0.00141627 Eh       0.89 kcal/mol
-----------------------------------------------------------------------
Total thermal energy                   -385.86270225 Eh

Summary of corrections to the electronic energy:
(perhaps to be used in another calculation)
Total thermal correction                  0.00831699 Eh       5.22 kcal/mol
Non-thermal (ZPE) correction              0.16003967 Eh     100.43 kcal/mol
-----------------------------------------------------------------------
Total correction                          0.16835666 Eh     105.65 kcal/mol

--------
ENTHALPY
--------

The enthalpy is H = U + kB*T
                kB is Boltzmann's constant
Total thermal energy              ...   -385.86270225 Eh
Thermal Enthalpy correction       ...      0.00094421 Eh       0.59 kcal/mol
-----------------------------------------------------------------------
Total Enthalpy                    ...   -385.86175804 Eh

Note: Only C1 symmetry has been detected, increase convergence thresholds
      if your molecule has a higher symmetry. Symmetry factor of 1.0 is
      used for the rotational entropy correction.

Note: Rotational entropy computed according to Herzberg
Infrared and Raman Spectra, Chapter V,1, Van Nostrand Reinhold, 1945
Point Group:  C1, Symmetry Number:   1
Rotational constants in cm-1:     0.088738     0.047759     0.033604

Vibrational entropy computed according to the QRRHO of S. Grimme
Chem.Eur.J. 2012 18 9955 using a reference frequency of 100.0 cm-1

-------
ENTROPY
-------

The entropy contributions are T*S = T*(S(el)+S(vib)+S(rot)+S(trans))
     S(el)   - electronic entropy
     S(vib)  - vibrational entropy
     S(rot)  - rotational entropy
     S(trans)- translational entropy
The entropies will be listed as multiplied by the temperature to get
units of energy

Electronic entropy                ...      0.00000000 Eh      0.00 kcal/mol
Vibrational entropy               ...      0.00892555 Eh      5.60 kcal/mol
Rotational entropy                ...      0.01369200 Eh      8.59 kcal/mol
Translational entropy             ...      0.01915481 Eh     12.02 kcal/mol
-----------------------------------------------------------------------
Final entropy term                ...      0.04177237 Eh     26.21 kcal/mol

In case the symmetry of your molecule has not been determined correctly
or in case you have a reason to use a different symmetry number we print
out the resulting rotational entropy values for sn=1,12:

 non-linear molecules -----------------------------------
|  sn= 1 | S(rot)=       0.01369200 Eh      8.59 kcal/mol|
|  sn= 2 | S(rot)=       0.01303755 Eh      8.18 kcal/mol|
|  sn= 3 | S(rot)=       0.01265472 Eh      7.94 kcal/mol|
|  sn= 4 | S(rot)=       0.01238309 Eh      7.77 kcal/mol|
|  sn= 5 | S(rot)=       0.01217240 Eh      7.64 kcal/mol|
|  sn= 6 | S(rot)=       0.01200026 Eh      7.53 kcal/mol|
|  sn= 7 | S(rot)=       0.01185471 Eh      7.44 kcal/mol|
|  sn= 8 | S(rot)=       0.01172864 Eh      7.36 kcal/mol|
|  sn= 9 | S(rot)=       0.01161743 Eh      7.29 kcal/mol|

                             ****ORCA TERMINATED NORMALLY****
TOTAL RUN TIME: 0 days 0 hours 18 minutes 29 seconds 759 msec
