                         Program Version 6.0.0  -   RELEASE  -
|  1> ! r2SCAN-3c DEF2-TZVP FREQ
|  2> * xyzfile 0 1 vacuum_censo.xyz
|  3>
|  4>                          ****END OF INPUT****

CARTESIAN COORDINATES (ANGSTROEM)
---------------------------------
  C     -2.673430   -0.563885   -0.755716
  C     -1.850283   -0.593591    0.539675
  C     -0.379288   -0.398536    0.288940
  C      0.506481   -1.473469    0.240018
  C      1.863433   -1.300102   -0.020682
  C      2.358256   -0.019215   -0.236699
  C      1.498428    1.073493   -0.195054
  C      0.142687    0.882671    0.063217
  O     -0.739801    1.932748    0.113620
  H     -2.356934   -1.363925   -1.432030
  H     -2.544205    0.390208   -1.273853
  H     -3.738744   -0.695743   -0.542493
  H     -1.996715   -1.554086    1.045495
  H     -2.213478    0.187371    1.215899
  H      0.115373   -2.472409    0.415223
  H      2.527596   -2.157034   -0.048469
  H      3.413303    0.136869   -0.436670
  H      1.881699    2.077921   -0.361584
  H     -0.256120    2.752185   -0.037887

 Total Charge           Charge          ....    0
 Multiplicity           Mult            ....    1
 Number of Electrons    NEL             ....   66
 Basis Dimension        Dim             ....  339

ORBITAL ENERGIES
----------------

  NO   OCC          E(Eh)            E(eV)
   0   2.0000     -18.986852      -516.6585
   1   2.0000     -10.093003      -274.6446
   2   2.0000     -10.036696      -273.1124
   3   2.0000     -10.035689      -273.0850
   4   2.0000     -10.035187      -273.0713
   5   2.0000     -10.032860      -273.0080
   6   2.0000     -10.030288      -272.9380
   7   2.0000     -10.027814      -272.8707
   8   2.0000     -10.017221      -272.5824
   9   2.0000      -1.027567       -27.9615
  10   2.0000      -0.819296       -22.2942
  11   2.0000      -0.752114       -20.4661
  12   2.0000      -0.705258       -19.1910
  13   2.0000      -0.686951       -18.6929
  14   2.0000      -0.597890       -16.2694
  15   2.0000      -0.592061       -16.1108
  16   2.0000      -0.543384       -14.7862
  17   2.0000      -0.508708       -13.8427
  18   2.0000      -0.457101       -12.4383
  19   2.0000      -0.444382       -12.0922
  20   2.0000      -0.408939       -11.1278
  21   2.0000      -0.396819       -10.7980
  22   2.0000      -0.389817       -10.6075
  23   2.0000      -0.380799       -10.3621
  24   2.0000      -0.367100        -9.9893
  25   2.0000      -0.344836        -9.3835
  26   2.0000      -0.334177        -9.0934
  27   2.0000      -0.327173        -8.9028
  28   2.0000      -0.310317        -8.4442
  29   2.0000      -0.301339        -8.1999
  30   2.0000      -0.295712        -8.0467
  31   2.0000      -0.229740        -6.2515
  32   2.0000      -0.203081        -5.5261
  33   0.0000      -0.031669        -0.8618
  34   0.0000      -0.017039        -0.4637
  35   0.0000       0.032977         0.8974
  36   0.0000       0.060862         1.6562
  37   0.0000       0.065193         1.7740

MULLIKEN ATOMIC CHARGES
-----------------------
   0 C :   -0.345699
   1 C :   -0.127948
   2 C :    0.061145
   3 C :   -0.164004
   4 C :   -0.142205
   5 C :   -0.107865
   6 C :   -0.224587
   7 C :    0.249359
   8 O :   -0.410179
   9 H :    0.103331
  10 H :    0.121686
  11 H :    0.102479
  12 H :    0.086055
  13 H :    0.093513
  14 H :    0.098218
  15 H :    0.102902
  16 H :    0.108282
  17 H :    0.086233
  18 H :    0.309284
Sum of atomic charges:   -0.0000000

LOEWDIN ATOMIC CHARGES
----------------------
   0 C :   -0.297293
   1 C :   -0.238973
   2 C :   -0.132174
   3 C :   -0.112491
   4 C :   -0.159859
   5 C :   -0.147818
   6 C :   -0.149344
   7 C :   -0.239846
   8 O :    0.083965
   9 H :    0.118013
  10 H :    0.121511
  11 H :    0.116283
  12 H :    0.138121
  13 H :    0.143681
  14 H :    0.146364
  15 H :    0.141327
  16 H :    0.142649
  17 H :    0.140108
  18 H :    0.185775

  Mayer bond orders larger than 0.100000
B(  0-C ,  1-C ) :   0.9609 B(  0-C ,  9-H ) :   0.9747 B(  0-C , 10-H ) :   0.9773
B(  0-C , 11-H ) :   0.9720 B(  1-C ,  2-C ) :   0.9194 B(  1-C , 12-H ) :   0.9736
B(  1-C , 13-H ) :   0.9539 B(  2-C ,  3-C ) :   1.3699 B(  2-C ,  7-C ) :   1.3205
B(  3-C ,  4-C ) :   1.4042 B(  3-C , 14-H ) :   0.9792 B(  4-C ,  5-C ) :   1.4023
B(  4-C , 15-H ) :   0.9770 B(  5-C ,  6-C ) :   1.3902 B(  5-C , 16-H ) :   0.9610
B(  6-C ,  7-C ) :   1.3636 B(  6-C , 17-H ) :   0.9699 B(  7-C ,  8-O ) :   1.1197
B(  8-O , 18-H ) :   0.8857

Dispersion correction           -0.006206560
FINAL SINGLE POINT ENERGY      -386.031222964612

DIPOLE MOMENT
-------------

Method             : SCF
Type of density    : Electron Density
Multiplicity       :   1
Irrep              :   0
Energy             :  -386.0317452688390745 Eh
Relativity type    :
Basis              : AO
                                X                 Y                 Z
Electronic contribution:      5.112989351       2.839150477       1.248258585
Nuclear contribution   :     -4.903172843      -2.461983715      -1.321065216
                        -----------------------------------------
Total Dipole Moment    :      0.209816507       0.377166762      -0.072806631
                        -----------------------------------------
Magnitude (a.u.)       :      0.437696857
Magnitude (Debye)      :      1.112536996

VIBRATIONAL FREQUENCIES
-----------------------

Scaling factor for frequencies =  1.000000000  (already applied!)

     0:       0.00 cm**-1
     1:       0.00 cm**-1
     2:       0.00 cm**-1
     3:       0.00 cm**-1
     4:       0.00 cm**-1
     5:       0.00 cm**-1
     6:      81.38 cm**-1
     7:     125.81 cm**-1
     8:     216.80 cm**-1
     9:     225.42 cm**-1
    10:     320.92 cm**-1
    11:     343.33 cm**-1
    12:     365.59 cm**-1
    13:     437.63 cm**-1
    14:     480.05 cm**-1
    15:     536.23 cm**-1
    16:     570.23 cm**-1
    17:     598.21 cm**-1
    18:     734.43 cm**-1
    19:     747.43 cm**-1
    20:     751.32 cm**-1
    21:     792.96 cm**-1
    22:     837.04 cm**-1
    23:     853.77 cm**-1
    24:     914.26 cm**-1
    25:     941.66 cm**-1
    26:     972.36 cm**-1
    27:    1050.69 cm**-1
    28:    1071.57 cm**-1
    29:    1082.54 cm**-1
    30:    1130.96 cm**-1
    31:    1179.89 cm**-1
    32:    1185.91 cm**-1
    33:    1234.34 cm**-1
    34:    1262.52 cm**-1
    35:    1281.53 cm**-1
    36:    1342.03 cm**-1
    37:    1351.21 cm**-1
    38:    1373.49 cm**-1
    39:    1393.14 cm**-1
    40:    1476.32 cm**-1
    41:    1484.90 cm**-1
    42:    1489.02 cm**-1
    43:    1499.67 cm**-1
    44:    1530.90 cm**-1
    45:    1627.35 cm**-1
    46:    1643.80 cm**-1
    47:    3011.19 cm**-1
    48:    3020.59 cm**-1
    49:    3063.66 cm**-1
    50:    3088.91 cm**-1
    51:    3101.74 cm**-1
    52:    3138.11 cm**-1
    53:    3149.36 cm**-1
    54:    3168.82 cm**-1
    55:    3185.34 cm**-1
    56:    3810.43 cm**-1

IR SPECTRUM
-----------

 Mode   freq       eps      Int      T**2         TX        TY        TZ
       cm**-1   L/(mol*cm) km/mol    a.u.
----------------------------------------------------------------------------
  6:     81.38   0.000039    0.20  0.000151  (-0.000203 -0.009772 -0.007469)
  7:    125.81   0.000346    1.75  0.000857  (-0.006349 -0.000419 -0.028576)
  8:    216.80   0.000114    0.58  0.000164  (-0.003925  0.007305 -0.009759)
  9:    225.42   0.000139    0.70  0.000192  ( 0.000710 -0.003921 -0.013263)
 10:    320.92   0.001298    6.56  0.001262  ( 0.001435 -0.019595 -0.029602)
 11:    343.33   0.002331   11.78  0.002119  ( 0.015159 -0.009166  0.042482)
 12:    365.59   0.015244   77.03  0.013012  ( 0.018672  0.012005  0.111888)
 13:    437.63   0.000606    3.06  0.000432  ( 0.002774 -0.018489 -0.009085)
 14:    480.05   0.001488    7.52  0.000967  ( 0.013807 -0.009699  0.026123)
 15:    536.23   0.001149    5.81  0.000669  ( 0.015769 -0.014567 -0.014410)
 16:    570.23   0.000140    0.71  0.000076  ( 0.005717 -0.006488 -0.001284)
 17:    598.21   0.000082    0.42  0.000043  ( 0.001981  0.002537 -0.005703)
 18:    734.43   0.002032   10.27  0.000863  (-0.008838 -0.002367 -0.027921)
 19:    747.43   0.011917   60.22  0.004975  (-0.010246 -0.008352 -0.069287)
 20:    751.32   0.000445    2.25  0.000185  ( 0.011137  0.000182  0.007790)
 21:    792.96   0.000244    1.23  0.000096  (-0.003447  0.007125  0.005775)
 22:    837.04   0.000142    0.72  0.000053  ( 0.003421 -0.002582  0.005895)
 23:    853.77   0.004705   23.78  0.001720  ( 0.014856 -0.038704 -0.001058)
 24:    914.26   0.000227    1.15  0.000078  (-0.000212  0.001067  0.008740)
 25:    941.66   0.000084    0.42  0.000028  (-0.001869  0.000475 -0.004899)
 26:    972.36   0.000869    4.39  0.000279  (-0.015381  0.006139  0.002188)
 27:   1050.69   0.000363    1.83  0.000108  ( 0.000694 -0.010350  0.000489)
 28:   1071.57   0.002536   12.82  0.000739  ( 0.025379  0.008585 -0.004548)
 29:   1082.54   0.000283    1.43  0.000082  ( 0.008670  0.000409 -0.002524)
 30:   1130.96   0.014499   73.27  0.004001  (-0.034336  0.053081  0.002067)
 31:   1179.89   0.000464    2.34  0.000123  (-0.010833 -0.001016  0.002078)
 32:   1185.91   0.006962   35.18  0.001832  (-0.028423  0.031717  0.004252)
 33:   1234.34   0.006011   30.38  0.001520  ( 0.027473 -0.027658  0.000046)
 34:   1262.52   0.003587   18.13  0.000887  ( 0.017338 -0.024204 -0.000347)
 35:   1281.53   0.012341   62.37  0.003005  ( 0.033940 -0.042933 -0.003151)
 36:   1342.03   0.001156    5.84  0.000269  (-0.005415  0.015398  0.001556)
 37:   1351.21   0.003926   19.84  0.000907  ( 0.022877 -0.019576 -0.000297)
 38:   1373.49   0.003465   17.51  0.000787  ( 0.007350 -0.027076  0.000363)
 39:   1393.14   0.000601    3.04  0.000135  (-0.002300  0.001932 -0.011208)
 40:   1476.32   0.002710   13.70  0.000573  (-0.011422  0.019396  0.008141)
 41:   1484.90   0.006600   33.35  0.001387  ( 0.019693 -0.031559  0.001785)
 42:   1489.02   0.001903    9.62  0.000399  ( 0.003365 -0.019296  0.003899)
 43:   1499.67   0.000725    3.67  0.000151  (-0.004327 -0.003639  0.010908)
 44:   1530.90   0.005142   25.98  0.001048  (-0.026647  0.018346  0.001207)
 45:   1627.35   0.004563   23.06  0.000875  ( 0.011662 -0.027185  0.000204)
 46:   1643.80   0.001616    8.17  0.000307  ( 0.012837 -0.011445 -0.003322)
 47:   3011.19   0.007849   39.66  0.000813  (-0.023314 -0.005202 -0.015582)
 48:   3020.59   0.005799   29.31  0.000599  (-0.008838 -0.008100  0.021340)
 49:   3063.66   0.000790    3.99  0.000080  (-0.003212 -0.008370  0.000251)
 50:   3088.91   0.008289   41.89  0.000837  (-0.024585  0.006927  0.013602)
 51:   3101.74   0.005439   27.49  0.000547  (-0.005429 -0.022499  0.003392)
 52:   3138.11   0.003262   16.48  0.000324  ( 0.000418 -0.017970  0.001114)
 53:   3149.36   0.001392    7.03  0.000138  ( 0.007913  0.008313 -0.002485)
 54:   3168.82   0.002689   13.59  0.000265  (-0.008145 -0.013786  0.002907)
 55:   3185.34   0.003051   15.42  0.000299  ( 0.015051 -0.008424 -0.001179)
 56:   3810.43   0.009866   49.86  0.000808  ( 0.001238  0.028282 -0.002563)

--------------------------
THERMOCHEMISTRY AT 298.15K
--------------------------

Temperature         ...   298.15 K
Pressure            ...     1.00 atm
Total Mass          ...   122.17 AMU
Quasi RRHO          ...     True
Cut-Off Frequency   ...     1.00 cm^-1

Throughout the following assumptions are being made:
  (1) The electronic state is orbitally nondegenerate
  (2) There are no thermally accessible electronically excited states
  (3) Hindered rotations indicated by low frequency modes are not
      treated as such but are treated as vibrations and this may
      cause some error
  (4) All equations used are the standard statistical mechanics
      equations for an ideal gas
  (5) All vibrations are strictly harmonic

freq.      81.38  E(vib)   ...       0.48
freq.     125.81  E(vib)   ...       0.43
freq.     216.80  E(vib)   ...       0.34
freq.     225.42  E(vib)   ...       0.33
freq.     320.92  E(vib)   ...       0.25
freq.     343.33  E(vib)   ...       0.23
freq.     365.59  E(vib)   ...       0.22
freq.     437.63  E(vib)   ...       0.17
freq.     480.05  E(vib)   ...       0.15
freq.     536.23  E(vib)   ...       0.12
freq.     570.23  E(vib)   ...       0.11
freq.     598.21  E(vib)   ...       0.10
freq.     734.43  E(vib)   ...       0.06
freq.     747.43  E(vib)   ...       0.06
freq.     751.32  E(vib)   ...       0.06
freq.     792.96  E(vib)   ...       0.05
freq.     837.04  E(vib)   ...       0.04
freq.     853.77  E(vib)   ...       0.04
freq.     914.26  E(vib)   ...       0.03
freq.     941.66  E(vib)   ...       0.03
freq.     972.36  E(vib)   ...       0.03
freq.    1050.69  E(vib)   ...       0.02
freq.    1071.57  E(vib)   ...       0.02
freq.    1082.54  E(vib)   ...       0.02
freq.    1130.96  E(vib)   ...       0.01
freq.    1179.89  E(vib)   ...       0.01
freq.    1185.91  E(vib)   ...       0.01
freq.    1234.34  E(vib)   ...       0.01
freq.    1262.52  E(vib)   ...       0.01
freq.    1281.53  E(vib)   ...       0.01
freq.    1342.03  E(vib)   ...       0.01
freq.    1351.21  E(vib)   ...       0.01
freq.    1373.49  E(vib)   ...       0.01
freq.    1393.14  E(vib)   ...       0.00
freq.    1476.32  E(vib)   ...       0.00
freq.    1484.90  E(vib)   ...       0.00
freq.    1489.02  E(vib)   ...       0.00
freq.    1499.67  E(vib)   ...       0.00
freq.    1530.90  E(vib)   ...       0.00
freq.    1627.35  E(vib)   ...       0.00
freq.    1643.80  E(vib)   ...       0.00
freq.    3011.19  E(vib)   ...       0.00
freq.    3020.59  E(vib)   ...       0.00
freq.    3063.66  E(vib)   ...       0.00
freq.    3088.91  E(vib)   ...       0.00
freq.    3101.74  E(vib)   ...       0.00
freq.    3138.11  E(vib)   ...       0.00
freq.    3149.36  E(vib)   ...       0.00
freq.    3168.82  E(vib)   ...       0.00
freq.    3185.34  E(vib)   ...       0.00
freq.    3810.43  E(vib)   ...       0.00

------------
INNER ENERGY
------------

The inner energy is: U= E(el) + E(ZPE) + E(vib) + E(rot) + E(trans)
    E(el)   - is the total energy from the electronic structure calculation
              = E(kin-el) + E(nuc-el) + E(el-el) + E(nuc-nuc)
    E(ZPE)  - the the zero temperature vibrational energy from the frequency calculation
    E(vib)  - the the finite temperature correction to E(ZPE) due to population
              of excited vibrational states
    E(rot)  - is the rotational thermal energy
    E(trans)- is the translational thermal energy

Summary of contributions to the inner energy U:
Electronic energy                ...   -386.03122296 Eh
Zero point energy                ...      0.16010222 Eh     100.47 kcal/mol
Thermal vibrational correction   ...      0.00555979 Eh       3.49 kcal/mol
Thermal rotational correction    ...      0.00141627 Eh       0.89 kcal/mol
Thermal translational correction ...      0.00141627 Eh       0.89 kcal/mol
-----------------------------------------------------------------------
Total thermal energy                   -385.86272841 Eh

Summary of corrections to the electronic energy:
(perhaps to be used in another calculation)
Total thermal correction                  0.00839234 Eh       5.27 kcal/mol
Non-thermal (ZPE) correction              0.16010222 Eh     100.47 kcal/mol
-----------------------------------------------------------------------
Total correction                          0.16849455 Eh     105.73 kcal/mol

--------
ENTHALPY
--------

The enthalpy is H = U + kB*T
                kB is Boltzmann's constant
Total thermal energy              ...   -385.86272841 Eh
Thermal Enthalpy correction       ...      0.00094421 Eh       0.59 kcal/mol
-----------------------------------------------------------------------
Total Enthalpy                    ...   -385.86178420 Eh

Note: Only C1 symmetry has been detected, increase convergence thresholds
      if your molecule has a higher symmetry. Symmetry factor of 1.0 is
      used for the rotational entropy correction.

Note: Rotational entropy computed according to Herzberg
Infrared and Raman Spectra, Chapter V,1, Van Nostrand Reinhold, 1945
Point Group:  C1, Symmetry Number:   1
Rotational constants in cm-1:     0.089840     0.047659     0.033681

Vibrational entropy computed according to the QRRHO of S. Grimme
Chem.Eur.J. 2012 18 9955 using a reference frequency of 100.0 cm-1

-------
ENTROPY
-------

The entropy contributions are T*S = T*(S(el)+S(vib)+S(rot)+S(trans))
     S(el)   - electronic entropy
     S(vib)  - vibrational entropy
     S(rot)  - rotational entropy
     S(trans)- translational entropy
The entropies will be listed as multiplied by the temperature to get
units of energy

Electronic entropy                ...      0.00000000 Eh      0.00 kcal/mol
Vibrational entropy               ...      0.00907577 Eh      5.70 kcal/mol
Rotational entropy                ...      0.01368608 Eh      8.59 kcal/mol
Translational entropy             ...      0.01915481 Eh     12.02 kcal/mol
-----------------------------------------------------------------------
Final entropy term                ...      0.04191666 Eh     26.30 kcal/mol

In case the symmetry of your molecule has not been determined correctly
or in case you have a reason to use a different symmetry number we print
out the resulting rotational entropy values for sn=1,12:

 non-linear molecules -----------------------------------
|  sn= 1 | S(rot)=       0.01368608 Eh      8.59 kcal/mol|
|  sn= 2 | S(rot)=       0.01303163 Eh      8.18 kcal/mol|
|  sn= 3 | S(rot)=       0.01264879 Eh      7.94 kcal/mol|
|  sn= 4 | S(rot)=       0.01237717 Eh      7.77 kcal/mol|
|  sn= 5 | S(rot)=       0.01216648 Eh      7.63 kcal/mol|
|  sn= 6 | S(rot)=       0.01199434 Eh      7.53 kcal/mol|
|  sn= 7 | S(rot)=       0.01184879 Eh      7.44 kcal/mol|
|  sn= 8 | S(rot)=       0.01172271 Eh      7.36 kcal/mol|
|  sn= 9 | S(rot)=       0.01161151 Eh      7.29 kcal/mol|

                             ****ORCA TERMINATED NORMALLY****
TOTAL RUN TIME: 0 days 0 hours 18 minutes 20 seconds 473 msec
