                         Program Version 6.0.1  -  RELEASE   -
|  1> ! pbe def2-sv(p) def2/J RI DEFGRID1 loosescf d4 GCP(DFT/SV(P)) printgap
|  2> %output
|  3>     printlevel normal
|  4> end
|  5> * xyz 0 1
|  6> C -2.4142307356 -0.693800645 0.014120193
|  7> C -0.9772364694 -0.2842482743 0.3548382701
|  8> H -0.9253713951 0.0062422278 1.4158116642
|  9> C -0.5286330067 0.9061204279 -0.4992459558
| 10> H -0.5258733829 0.5900688103 -1.5559053278
| 11> C 0.9090807372 1.333433728 -0.1188523008
| 12> H 0.8390994152 2.1592067133 0.6013127462
| 13> C 1.6893622894 0.1693176952 0.5315267742
| 14> H 2.7529245868 0.2908494839 0.2744834258
| 15> C 1.2105077572 -1.148073073 -0.0871048943
| 16> H 1.7593427949 -1.9931825525 0.3571370472
| 17> O -0.1353153828 -1.4097277154 0.1404366615
| 18> O 1.4889797611 -1.0598351444 -1.4662967907
| 19> O 1.5144347077 0.0848998175 1.9206189908
| 20> O 1.5986623378 1.8451308138 -1.2286596711
| 21> O -1.4390661538 1.9615114372 -0.3133735523
| 22> O -2.9020460048 -1.7310885066 0.8182383344
| 23> H -2.4549513131 -1.0680188845 -1.0110544177
| 24> H -3.0423006051 0.2039029799 0.0974977771
| 25> H 1.0950573196 -1.8295742727 -1.8948574337
| 26> H 1.8750126051 0.8793845408 2.3310950445
| 27> H 1.7802745224 1.1047128555 -1.8246294982
| 28> H -1.1166254259 2.7234554232 -0.809907101
| 29> H -2.7065931644 -1.5297373275 1.7401847182
| 30> *
| 31>
| 32>                          ****END OF INPUT****

CARTESIAN COORDINATES (ANGSTROEM)
---------------------------------
  C     -2.414231   -0.693801    0.014120
  C     -0.977236   -0.284248    0.354838
  H     -0.925371    0.006242    1.415812
  C     -0.528633    0.906120   -0.499246
  H     -0.525873    0.590069   -1.555905
  C      0.909081    1.333434   -0.118852
  H      0.839099    2.159207    0.601313
  C      1.689362    0.169318    0.531527
  H      2.752925    0.290849    0.274483
  C      1.210508   -1.148073   -0.087105
  H      1.759343   -1.993183    0.357137
  O     -0.135315   -1.409728    0.140437
  O      1.488980   -1.059835   -1.466297
  O      1.514435    0.084900    1.920619
  O      1.598662    1.845131   -1.228660
  O     -1.439066    1.961511   -0.313374
  O     -2.902046   -1.731089    0.818238
  H     -2.454951   -1.068019   -1.011054
  H     -3.042301    0.203903    0.097498
  H      1.095057   -1.829574   -1.894857
  H      1.875013    0.879385    2.331095
  H      1.780275    1.104713   -1.824629
  H     -1.116625    2.723455   -0.809907
  H     -2.706593   -1.529737    1.740185

 Total Charge           Charge          ....    0
 Multiplicity           Mult            ....    1
 Number of Electrons    NEL             ....   96
 Basis Dimension        Dim             ....  192

ORBITAL ENERGIES
----------------

  NO   OCC          E(Eh)            E(eV)
   0   2.0000     -18.777284      -510.9559
   1   2.0000     -18.770310      -510.7661
   2   2.0000     -18.767247      -510.6828
   3   2.0000     -18.755810      -510.3715
   4   2.0000     -18.748346      -510.1684
   5   2.0000     -18.734721      -509.7977
   6   2.0000      -9.992595      -271.9123
   7   2.0000      -9.950012      -270.7536
   8   2.0000      -9.943647      -270.5804
   9   2.0000      -9.942673      -270.5539
  10   2.0000      -9.940783      -270.5025
  11   2.0000      -9.921267      -269.9714
  12   2.0000      -0.990770       -26.9602
  13   2.0000      -0.946368       -25.7520
  14   2.0000      -0.939393       -25.5622
  15   2.0000      -0.928830       -25.2747
  16   2.0000      -0.919758       -25.0279
  17   2.0000      -0.909774       -24.7562
  18   2.0000      -0.703745       -19.1499
  19   2.0000      -0.694444       -18.8968
  20   2.0000      -0.619999       -16.8710
  21   2.0000      -0.585344       -15.9280
  22   2.0000      -0.569534       -15.4978
  23   2.0000      -0.527920       -14.3654
  24   2.0000      -0.511414       -13.9163
  25   2.0000      -0.485714       -13.2169
  26   2.0000      -0.478845       -13.0300
  27   2.0000      -0.457637       -12.4529
  28   2.0000      -0.445838       -12.1319
  29   2.0000      -0.427653       -11.6370
  30   2.0000      -0.413494       -11.2517
  31   2.0000      -0.400620       -10.9014
  32   2.0000      -0.385497       -10.4899
  33   2.0000      -0.367806       -10.0085
  34   2.0000      -0.365034        -9.9331
  35   2.0000      -0.356097        -9.6899
  36   2.0000      -0.344151        -9.3648
  37   2.0000      -0.323966        -8.8156
  38   2.0000      -0.304762        -8.2930
  39   2.0000      -0.302970        -8.2442
  40   2.0000      -0.283049        -7.7021
  41   2.0000      -0.261884        -7.1262
  42   2.0000      -0.251235        -6.8364
  43   2.0000      -0.245267        -6.6741
  44   2.0000      -0.237866        -6.4727
  45   2.0000      -0.226346        -6.1592
  46   2.0000      -0.211240        -5.7481
  47   2.0000      -0.196595        -5.3496
  48   0.0000       0.009357         0.2546
  49   0.0000       0.024686         0.6717
  50   0.0000       0.034219         0.9312
  51   0.0000       0.041173         1.1204
  52   0.0000       0.057309         1.5595

MULLIKEN ATOMIC CHARGES
-----------------------
   0 C :    0.105856
   1 C :    0.000050
   2 H :    0.052887
   3 C :    0.057030
   4 H :    0.039124
   5 C :    0.083228
   6 H :    0.045299
   7 C :   -0.011484
   8 H :    0.078320
   9 C :    0.184381
  10 H :    0.073295
  11 O :   -0.292546
  12 O :   -0.414938
  13 O :   -0.404773
  14 O :   -0.432771
  15 O :   -0.413128
  16 O :   -0.426366
  17 H :    0.065043
  18 H :    0.088064
  19 H :    0.307819
  20 H :    0.308536
  21 H :    0.306171
  22 H :    0.307397
  23 H :    0.293505
Sum of atomic charges:   -0.0000000

LOEWDIN ATOMIC CHARGES
----------------------
   0 C :   -0.127596
   1 C :   -0.070098
   2 H :    0.105185
   3 C :   -0.076527
   4 H :    0.100753
   5 C :   -0.081353
   6 H :    0.110171
   7 C :   -0.092242
   8 H :    0.110157
   9 C :    0.005301
  10 H :    0.102172
  11 O :   -0.128145
  12 O :   -0.324175
  13 O :   -0.307166
  14 O :   -0.320790
  15 O :   -0.317591
  16 O :   -0.332928
  17 H :    0.110977
  18 H :    0.104811
  19 H :    0.288532
  20 H :    0.291174
  21 H :    0.277313
  22 H :    0.290261
  23 H :    0.281804

  Mayer bond orders larger than 0.100000
B(  0-C ,  1-C ) :   1.0513 B(  0-C , 16-O ) :   1.0795 B(  0-C , 17-H ) :   0.9036
B(  0-C , 18-H ) :   0.9090 B(  1-C ,  2-H ) :   0.8520 B(  1-C ,  3-C ) :   1.0661
B(  1-C , 11-O ) :   0.9779 B(  3-C ,  4-H ) :   0.8475 B(  3-C ,  5-C ) :   1.0182
B(  3-C , 15-O ) :   1.0562 B(  5-C ,  6-H ) :   0.8561 B(  5-C ,  7-C ) :   0.9899
B(  5-C , 14-O ) :   1.0382 B(  7-C ,  8-H ) :   0.8871 B(  7-C ,  9-C ) :   1.0350
B(  7-C , 13-O ) :   1.0451 B(  9-C , 10-H ) :   0.8938 B(  9-C , 11-O ) :   1.1032
B(  9-C , 12-O ) :   1.0790 B( 12-O , 19-H ) :   0.8388 B( 13-O , 20-H ) :   0.8472
B( 14-O , 21-H ) :   0.8298 B( 15-O , 22-H ) :   0.8440 B( 16-O , 23-H ) :   0.8535

Dispersion correction           -0.024704558
FINAL SINGLE POINT ENERGY      -685.689512702195

DIPOLE MOMENT
-------------

Method             : SCF
Type of density    : Electron Density
Multiplicity       :   1
Irrep              :   0
Energy             :  -685.8204991311878302 Eh
Relativity type    :
Basis              : AO
                                X                 Y                 Z
Electronic contribution:      1.399634419      -0.988448682       0.239076639
Nuclear contribution   :     -0.626716342       1.437679005      -0.263502849
                        -----------------------------------------
Total Dipole Moment    :      0.772918077       0.449230322      -0.024426209
                        -----------------------------------------
Magnitude (a.u.)       :      0.894319225
Magnitude (Debye)      :      2.273178817

Rotational constants in cm-1:             0.041144             0.025580             0.021491
Rotational constants in MHz :          1233.457534           766.861285           644.289175

                             ****ORCA TERMINATED NORMALLY****
TOTAL RUN TIME: 0 days 0 hours 0 minutes 8 seconds 107 msec
