                         Program Version 6.0.1  -  RELEASE   -
|  1> ! r2scan-3c def2/J RI DEFGRID2 scfconv6 printgap
|  2> %output
|  3>     printlevel normal
|  4> end
|  5> * xyz 0 1
|  6> C -2.7589598708 -0.7936992329 0.000182741
|  7> O -1.8007379515 0.2326385438 -0.0001364616
|  8> C -0.4833107149 -0.1126806434 -8.3896e-05
|  9> C 0.0070294701 -1.4089647869 -0.0001069309
| 10> C 1.3741254156 -1.6498847025 -2.5821e-05
| 11> C 2.2661948094 -0.5989644396 7.93754e-05
| 12> C 1.7895554883 0.7036455489 7.97036e-05
| 13> C 0.430511535 0.9593742627 -7.0619e-06
| 14> O -0.0720468791 2.2249877126 -1.03975e-05
| 15> H -2.6781783739 -1.4221968853 0.893777634
| 16> H -2.6786109479 -1.4223661563 -0.8933332778
| 17> H -3.7256236781 -0.2924111781 0.0003648408
| 18> H -0.6714793763 -2.2470650923 -0.0001948101
| 19> H 1.7312210341 -2.6683793301 -4.32217e-05
| 20> H 3.3297751105 -0.7805839896 0.0001593569
| 21> H 2.4817610643 1.5356363502 0.000158361
| 22> H 0.6562223957 2.857893427 3.4854e-05
| 23> *
| 24>
| 25>                          ****END OF INPUT****

CARTESIAN COORDINATES (ANGSTROEM)
---------------------------------
  C     -2.758960   -0.793699    0.000183
  O     -1.800738    0.232639   -0.000136
  C     -0.483311   -0.112681   -0.000084
  C      0.007029   -1.408965   -0.000107
  C      1.374125   -1.649885   -0.000026
  C      2.266195   -0.598964    0.000079
  C      1.789555    0.703646    0.000080
  C      0.430512    0.959374   -0.000007
  O     -0.072047    2.224988   -0.000010
  H     -2.678178   -1.422197    0.893778
  H     -2.678611   -1.422366   -0.893333
  H     -3.725624   -0.292411    0.000365
  H     -0.671479   -2.247065   -0.000195
  H      1.731221   -2.668379   -0.000043
  H      3.329775   -0.780584    0.000159
  H      2.481761    1.535636    0.000158
  H      0.656222    2.857893    0.000035

 Total Charge           Charge          ....    0
 Multiplicity           Mult            ....    1
 Number of Electrons    NEL             ....   66
 Basis Dimension        Dim             ....  221

ORBITAL ENERGIES
----------------

  NO   OCC          E(Eh)            E(eV)
   0   2.0000     -18.983338      -516.5629
   1   2.0000     -18.981967      -516.5256
   2   2.0000     -10.093645      -274.6620
   3   2.0000     -10.092181      -274.6222
   4   2.0000     -10.084452      -274.4119
   5   2.0000     -10.033182      -273.0168
   6   2.0000     -10.032356      -272.9943
   7   2.0000     -10.028173      -272.8805
   8   2.0000     -10.027124      -272.8519
   9   2.0000      -1.040232       -28.3061
  10   2.0000      -1.020155       -27.7598
  11   2.0000      -0.818973       -22.2854
  12   2.0000      -0.725988       -19.7551
  13   2.0000      -0.712120       -19.3778
  14   2.0000      -0.662503       -18.0276
  15   2.0000      -0.595756       -16.2114
  16   2.0000      -0.562637       -15.3101
  17   2.0000      -0.518706       -14.1147
  18   2.0000      -0.492362       -13.3979
  19   2.0000      -0.458522       -12.4770
  20   2.0000      -0.437792       -11.9129
  21   2.0000      -0.431494       -11.7415
  22   2.0000      -0.408282       -11.1099
  23   2.0000      -0.395257       -10.7555
  24   2.0000      -0.381024       -10.3682
  25   2.0000      -0.362619        -9.8674
  26   2.0000      -0.339083        -9.2269
  27   2.0000      -0.317512        -8.6399
  28   2.0000      -0.316046        -8.6000
  29   2.0000      -0.296562        -8.0699
  30   2.0000      -0.293279        -7.9805
  31   2.0000      -0.222121        -6.0442
  32   2.0000      -0.187888        -5.1127
  33   0.0000      -0.022532        -0.6131
  34   0.0000      -0.010552        -0.2871
  35   0.0000       0.049217         1.3393
  36   0.0000       0.074446         2.0258
  37   0.0000       0.090176         2.4538

MULLIKEN ATOMIC CHARGES
-----------------------
   0 C :   -0.325990
   1 O :   -0.175211
   2 C :    0.164548
   3 C :   -0.246497
   4 C :   -0.192266
   5 C :   -0.156728
   6 C :   -0.308353
   7 C :    0.303402
   8 O :   -0.404577
   9 H :    0.150713
  10 H :    0.150706
  11 H :    0.154802
  12 H :    0.148647
  13 H :    0.145430
  14 H :    0.146707
  15 H :    0.137638
  16 H :    0.307029
Sum of atomic charges:   -0.0000000

LOEWDIN ATOMIC CHARGES
----------------------
   0 C :   -0.051373
   1 O :   -0.661774
   2 C :    0.201416
   3 C :   -0.166298
   4 C :   -0.180378
   5 C :   -0.177730
   6 C :   -0.168181
   7 C :    0.206384
   8 O :   -0.473164
   9 H :    0.163764
  10 H :    0.163755
  11 H :    0.180685
  12 H :    0.175978
  13 H :    0.166958
  14 H :    0.167232
  15 H :    0.169154
  16 H :    0.283573

  Mayer bond orders larger than 0.100000
B(  0-C ,  1-O ) :   0.8611 B(  0-C ,  9-H ) :   0.9628 B(  0-C , 10-H ) :   0.9628
B(  0-C , 11-H ) :   0.9677 B(  1-O ,  2-C ) :   1.0640 B(  2-C ,  3-C ) :   1.3434
B(  2-C ,  7-C ) :   1.4873 B(  2-C ,  8-O ) :   0.1237 B(  3-C ,  4-C ) :   1.3632
B(  3-C , 12-H ) :   0.9303 B(  4-C ,  5-C ) :   1.4709 B(  4-C , 13-H ) :   0.9494
B(  5-C ,  6-C ) :   1.3674 B(  5-C , 14-H ) :   0.9395 B(  6-C ,  7-C ) :   1.2825
B(  6-C , 15-H ) :   0.9552 B(  7-C ,  8-O ) :   0.9118 B(  8-O , 16-H ) :   0.8868

Dispersion correction           -0.005360989
FINAL SINGLE POINT ENERGY      -421.897003082779

DIPOLE MOMENT
-------------

Method             : SCF
Type of density    : Electron Density
Multiplicity       :   1
Irrep              :   0
Energy             :  -421.8999297137489748 Eh
Relativity type    :
Basis              : AO
                                X                 Y                 Z
Electronic contribution:      1.596223162       3.949352155      -0.000696083
Nuclear contribution   :     -1.486515696      -4.128575550       0.000864447
                        -----------------------------------------
Total Dipole Moment    :      0.109707466      -0.179223395       0.000168365
                        -----------------------------------------
Magnitude (a.u.)       :      0.210135152
Magnitude (Debye)      :      0.534121108

Rotational constants in cm-1:             0.086521             0.052244             0.032778
Rotational constants in MHz :          2593.824458          1566.233512           982.670218

                             ****ORCA TERMINATED NORMALLY****
TOTAL RUN TIME: 0 days 0 hours 0 minutes 31 seconds 941 msec
