                         Program Version 6.0.1  -  RELEASE   -
|  1> ! r2scan-3c def2/J RI DEFGRID2 scfconv6 printgap
|  2> %output
|  3>     printlevel normal
|  4> end
|  5> * xyz 0 1
|  6> C 1.5703916985 -0.5281114847 -0.1107074576
|  7> C 0.6119917602 0.592100787 0.291020298
|  8> O -0.6540610767 0.5187116665 -0.3248470963
|  9> C -1.4665052073 -0.5331192226 0.1301344926
| 10> H 1.2403278401 -1.4875548285 0.280296956
| 11> H 1.6300010881 -0.5922145285 -1.1943225718
| 12> H 2.5597281702 -0.3169656222 0.2856743414
| 13> H 1.0174339422 1.5556122612 -0.0287668245
| 14> H 0.4954035751 0.6054849713 1.386249395
| 15> H -1.5606581673 -0.5164104387 1.2234564459
| 16> H -1.0843240151 -1.5127263296 -0.1773806277
| 17> H -2.4463685172 -0.3786980174 -0.3181422109
| 18> *
| 19>
| 20>                          ****END OF INPUT****

CARTESIAN COORDINATES (ANGSTROEM)
---------------------------------
  C      1.570392   -0.528111   -0.110707
  C      0.611992    0.592101    0.291020
  O     -0.654061    0.518712   -0.324847
  C     -1.466505   -0.533119    0.130134
  H      1.240328   -1.487555    0.280297
  H      1.630001   -0.592215   -1.194323
  H      2.559728   -0.316966    0.285674
  H      1.017434    1.555612   -0.028767
  H      0.495404    0.605485    1.386249
  H     -1.560658   -0.516410    1.223456
  H     -1.084324   -1.512726   -0.177381
  H     -2.446369   -0.378698   -0.318142

 Total Charge           Charge          ....    0
 Multiplicity           Mult            ....    1
 Number of Electrons    NEL             ....   34
 Basis Dimension        Dim             ....  121

ORBITAL ENERGIES
----------------

  NO   OCC          E(Eh)            E(eV)
   0   2.0000     -18.947697      -515.5931
   1   2.0000     -10.074488      -274.1408
   2   2.0000     -10.067613      -273.9537
   3   2.0000     -10.020102      -272.6608
   4   2.0000      -0.995803       -27.0972
   5   2.0000      -0.723240       -19.6804
   6   2.0000      -0.652705       -17.7610
   7   2.0000      -0.563995       -15.3471
   8   2.0000      -0.453082       -12.3290
   9   2.0000      -0.449185       -12.2229
  10   2.0000      -0.416994       -11.3470
  11   2.0000      -0.378268       -10.2932
  12   2.0000      -0.365723        -9.9518
  13   2.0000      -0.342854        -9.3295
  14   2.0000      -0.321992        -8.7619
  15   2.0000      -0.275400        -7.4940
  16   2.0000      -0.218946        -5.9578
  17   0.0000       0.079102         2.1525
  18   0.0000       0.099245         2.7006
  19   0.0000       0.126669         3.4468
  20   0.0000       0.133278         3.6267
  21   0.0000       0.150171         4.0864

MULLIKEN ATOMIC CHARGES
-----------------------
   0 C :   -0.450975
   1 C :   -0.139035
   2 O :   -0.235215
   3 C :   -0.291352
   4 H :    0.142257
   5 H :    0.157858
   6 H :    0.144067
   7 H :    0.142211
   8 H :    0.122586
   9 H :    0.128370
  10 H :    0.132433
  11 H :    0.146795
Sum of atomic charges:    0.0000000

LOEWDIN ATOMIC CHARGES
----------------------
   0 C :   -0.412495
   1 C :   -0.003460
   2 O :   -0.789187
   3 C :   -0.076369
   4 H :    0.150592
   5 H :    0.158488
   6 H :    0.156760
   7 H :    0.176785
   8 H :    0.157326
   9 H :    0.154438
  10 H :    0.152345
  11 H :    0.174776

  Mayer bond orders larger than 0.100000
B(  0-C ,  1-C ) :   0.9109 B(  0-C ,  4-H ) :   0.9727 B(  0-C ,  5-H ) :   0.9737
B(  0-C ,  6-H ) :   0.9656 B(  1-C ,  2-O ) :   0.8969 B(  1-C ,  7-H ) :   0.9719
B(  1-C ,  8-H ) :   0.9744 B(  2-O ,  3-C ) :   0.9000 B(  3-C ,  9-H ) :   0.9669
B(  3-C , 10-H ) :   0.9617 B(  3-C , 11-H ) :   0.9750

Dispersion correction           -0.002089703
FINAL SINGLE POINT ENERGY      -194.281863081270

DIPOLE MOMENT
-------------

Method             : SCF
Type of density    : Electron Density
Multiplicity       :   1
Irrep              :   0
Energy             :  -194.2885730171678063 Eh
Relativity type    :
Basis              : AO
                                X                 Y                 Z
Electronic contribution:     -1.541509818       2.143541542      -1.031268059
Nuclear contribution   :      1.727345823      -2.472313162       1.362145176
                        -----------------------------------------
Total Dipole Moment    :      0.185836005      -0.328771620       0.330877116
                        -----------------------------------------
Magnitude (a.u.)       :      0.502101051
Magnitude (Debye)      :      1.276239446

Rotational constants in cm-1:             0.531297             0.174099             0.150400
Rotational constants in MHz :         15927.873143          5219.354213          4508.877495

                             ****ORCA TERMINATED NORMALLY****
TOTAL RUN TIME: 0 days 0 hours 0 minutes 13 seconds 656 msec
