                         Program Version 6.0.1  -  RELEASE   -
|  1> ! pbe def2-sv(p) def2/J RI DEFGRID1 loosescf d4 GCP(DFT/SV(P)) printgap
|  2> %output
|  3>     printlevel normal
|  4> end
|  5> * xyz 0 1
|  6> C -2.3186420278 -0.9469421056 -0.1826165371
|  7> C -1.2185423512 -0.1181302677 0.5423581416
|  8> H -1.6452126188 0.3512571164 1.4353518361
|  9> C -0.6461906899 1.0025849749 -0.3357583599
| 10> H -0.5635959577 0.6714437097 -1.3827017186
| 11> C 0.7676042632 1.3332774454 0.1608422102
| 12> H 0.7201217734 1.5453233959 1.2440834592
| 13> C 1.6868104805 0.1217360346 -0.0679498191
| 14> H 2.0440449453 0.1271842779 -1.1024124221
| 15> C 0.8769162942 -1.1785821002 0.1425519966
| 16> H 1.513086569 -1.9209894082 0.6581056323
| 17> O -0.1921638334 -0.9719688555 1.0357888604
| 18> O 0.4654296253 -1.6425806211 -1.0958783593
| 19> O 2.8325554748 0.1901459072 0.7403967117
| 20> O 1.2146026116 2.47740843 -0.5266754873
| 21> O -1.4981430434 2.1111343857 -0.2407880858
| 22> O -2.0542619948 -2.3295685509 -0.1316940408
| 23> H -2.3563026442 -0.6886055572 -1.2419763508
| 24> H -3.2945686577 -0.7270975114 0.2647214578
| 25> H -0.3129428886 -2.2190776655 -0.9706786657
| 26> H 2.5740500629 0.0727205604 1.6627697297
| 27> H 2.1649343664 2.5589586826 -0.3864875332
| 28> H -1.0079139036 2.8691532363 -0.5866268603
| 29> H -1.8735418781 -2.5637866091 0.7883197493
| 30> *
| 31>
| 32>                          ****END OF INPUT****

CARTESIAN COORDINATES (ANGSTROEM)
---------------------------------
  C     -2.318642   -0.946942   -0.182617
  C     -1.218542   -0.118130    0.542358
  H     -1.645213    0.351257    1.435352
  C     -0.646191    1.002585   -0.335758
  H     -0.563596    0.671444   -1.382702
  C      0.767604    1.333277    0.160842
  H      0.720122    1.545323    1.244083
  C      1.686810    0.121736   -0.067950
  H      2.044045    0.127184   -1.102412
  C      0.876916   -1.178582    0.142552
  H      1.513087   -1.920989    0.658106
  O     -0.192164   -0.971969    1.035789
  O      0.465430   -1.642581   -1.095878
  O      2.832555    0.190146    0.740397
  O      1.214603    2.477408   -0.526675
  O     -1.498143    2.111134   -0.240788
  O     -2.054262   -2.329569   -0.131694
  H     -2.356303   -0.688606   -1.241976
  H     -3.294569   -0.727098    0.264721
  H     -0.312943   -2.219078   -0.970679
  H      2.574050    0.072721    1.662770
  H      2.164934    2.558959   -0.386488
  H     -1.007914    2.869153   -0.586627
  H     -1.873542   -2.563787    0.788320

 Total Charge           Charge          ....    0
 Multiplicity           Mult            ....    1
 Number of Electrons    NEL             ....   96
 Basis Dimension        Dim             ....  192

ORBITAL ENERGIES
----------------

  NO   OCC          E(Eh)            E(eV)
   0   2.0000     -18.781844      -511.0800
   1   2.0000     -18.774113      -510.8696
   2   2.0000     -18.761739      -510.5329
   3   2.0000     -18.760858      -510.5089
   4   2.0000     -18.753385      -510.3055
   5   2.0000     -18.748589      -510.1751
   6   2.0000      -9.987425      -271.7717
   7   2.0000      -9.950210      -270.7590
   8   2.0000      -9.944430      -270.6017
   9   2.0000      -9.942348      -270.5450
  10   2.0000      -9.942013      -270.5359
  11   2.0000      -9.940735      -270.5011
  12   2.0000      -0.992878       -27.0176
  13   2.0000      -0.952052       -25.9066
  14   2.0000      -0.943287       -25.6681
  15   2.0000      -0.935807       -25.4646
  16   2.0000      -0.920310       -25.0429
  17   2.0000      -0.910552       -24.7774
  18   2.0000      -0.708256       -19.2726
  19   2.0000      -0.693101       -18.8602
  20   2.0000      -0.626293       -17.0423
  21   2.0000      -0.584912       -15.9163
  22   2.0000      -0.576387       -15.6843
  23   2.0000      -0.527916       -14.3653
  24   2.0000      -0.503712       -13.7067
  25   2.0000      -0.498390       -13.5619
  26   2.0000      -0.475427       -12.9370
  27   2.0000      -0.454873       -12.3777
  28   2.0000      -0.446378       -12.1466
  29   2.0000      -0.432049       -11.7566
  30   2.0000      -0.420844       -11.4517
  31   2.0000      -0.408897       -11.1266
  32   2.0000      -0.400136       -10.8883
  33   2.0000      -0.382537       -10.4094
  34   2.0000      -0.361271        -9.8307
  35   2.0000      -0.357017        -9.7149
  36   2.0000      -0.339913        -9.2495
  37   2.0000      -0.318120        -8.6565
  38   2.0000      -0.309359        -8.4181
  39   2.0000      -0.303526        -8.2594
  40   2.0000      -0.298793        -8.1306
  41   2.0000      -0.265530        -7.2254
  42   2.0000      -0.255147        -6.9429
  43   2.0000      -0.251909        -6.8548
  44   2.0000      -0.239235        -6.5099
  45   2.0000      -0.233446        -6.3524
  46   2.0000      -0.214240        -5.8298
  47   2.0000      -0.210838        -5.7372
  48   0.0000       0.012476         0.3395
  49   0.0000       0.020019         0.5447
  50   0.0000       0.039024         1.0619
  51   0.0000       0.053372         1.4523
  52   0.0000       0.065144         1.7727

MULLIKEN ATOMIC CHARGES
-----------------------
   0 C :    0.049718
   1 C :    0.037936
   2 H :    0.079481
   3 C :    0.028904
   4 H :    0.072716
   5 C :    0.034577
   6 H :    0.041075
   7 C :    0.080709
   8 H :    0.084138
   9 C :    0.138577
  10 H :    0.057884
  11 O :   -0.326062
  12 O :   -0.411034
  13 O :   -0.418993
  14 O :   -0.425634
  15 O :   -0.418920
  16 O :   -0.434873
  17 H :    0.102707
  18 H :    0.092905
  19 H :    0.305457
  20 H :    0.299870
  21 H :    0.311295
  22 H :    0.310650
  23 H :    0.306917
Sum of atomic charges:   -0.0000000

LOEWDIN ATOMIC CHARGES
----------------------
   0 C :   -0.133951
   1 C :   -0.068876
   2 H :    0.120631
   3 C :   -0.076616
   4 H :    0.106352
   5 C :   -0.079077
   6 H :    0.098520
   7 C :   -0.090008
   8 H :    0.126996
   9 C :   -0.006241
  10 H :    0.092287
  11 O :   -0.150992
  12 O :   -0.316166
  13 O :   -0.312773
  14 O :   -0.324359
  15 O :   -0.320277
  16 O :   -0.316444
  17 H :    0.120109
  18 H :    0.108685
  19 H :    0.274732
  20 H :    0.284136
  21 H :    0.292343
  22 H :    0.287354
  23 H :    0.283636

  Mayer bond orders larger than 0.100000
B(  0-C ,  1-C ) :   1.0255 B(  0-C , 16-O ) :   1.0342 B(  0-C , 17-H ) :   0.9264
B(  0-C , 18-H ) :   0.9234 B(  1-C ,  2-H ) :   0.8829 B(  1-C ,  3-C ) :   0.9892
B(  1-C , 11-O ) :   1.0237 B(  3-C ,  4-H ) :   0.8731 B(  3-C ,  5-C ) :   1.0426
B(  3-C , 15-O ) :   1.0846 B(  5-C ,  6-H ) :   0.8596 B(  5-C ,  7-C ) :   1.0166
B(  5-C , 14-O ) :   1.0741 B(  7-C ,  8-H ) :   0.8623 B(  7-C ,  9-C ) :   0.9822
B(  7-C , 13-O ) :   1.0283 B(  9-C , 10-H ) :   0.8956 B(  9-C , 11-O ) :   1.0412
B(  9-C , 12-O ) :   1.1191 B( 12-O , 19-H ) :   0.7749 B( 13-O , 20-H ) :   0.8493
B( 14-O , 21-H ) :   0.8386 B( 15-O , 22-H ) :   0.8328 B( 16-O , 19-H ) :   0.1316
B( 16-O , 23-H ) :   0.8323

Dispersion correction           -0.025151388
FINAL SINGLE POINT ENERGY      -685.692841922401

DIPOLE MOMENT
-------------

Method             : SCF
Type of density    : Electron Density
Multiplicity       :   1
Irrep              :   0
Energy             :  -685.8269792016594693 Eh
Relativity type    :
Basis              : AO
                                X                 Y                 Z
Electronic contribution:      1.927042673      -0.031655265       0.465678095
Nuclear contribution   :     -1.900463565       0.069304466       0.355578186
                        -----------------------------------------
Total Dipole Moment    :      0.026579108       0.037649201       0.821256281
                        -----------------------------------------
Magnitude (a.u.)       :      0.822548352
Magnitude (Debye)      :      2.090751755

Rotational constants in cm-1:             0.043406             0.028101             0.019742
Rotational constants in MHz :          1301.289232           842.452314           591.835389

                             ****ORCA TERMINATED NORMALLY****
TOTAL RUN TIME: 0 days 0 hours 0 minutes 10 seconds 251 msec
