                         Program Version 6.0.1  -  RELEASE   -
|  1> ! pbe def2-sv(p) def2/J RI DEFGRID1 loosescf d4 GCP(DFT/SV(P)) printgap
|  2> %output
|  3>     printlevel normal
|  4> end
|  5> * xyz 0 1
|  6> C -2.3707562423 -0.8591147194 -0.2506546312
|  7> O -1.0405729518 -0.6194760138 0.1958580203
|  8> C -0.5653879996 0.6154926674 0.1078188123
|  9> O -1.1729559999 1.5690346874 -0.2965622981
| 10> C 0.8647118272 0.692113244 0.6163897657
| 11> Cl 1.8690593297 -0.5636092693 -0.1432604359
| 12> H -2.975465005 -1.1493967272 0.6087650861
| 13> H -2.3380853312 -1.6735087516 -0.9733059558
| 14> H -2.7793259015 0.042666521 -0.7091829284
| 15> H 0.8849038001 0.5202703976 1.6933990125
| 16> H 1.2861046214 1.6670949386 0.3748319798
| 17> *
| 18>
| 19>                          ****END OF INPUT****

CARTESIAN COORDINATES (ANGSTROEM)
---------------------------------
  C     -2.370756   -0.859115   -0.250655
  O     -1.040573   -0.619476    0.195858
  C     -0.565388    0.615493    0.107819
  O     -1.172956    1.569035   -0.296562
  C      0.864712    0.692113    0.616390
  Cl     1.869059   -0.563609   -0.143260
  H     -2.975465   -1.149397    0.608765
  H     -2.338085   -1.673509   -0.973306
  H     -2.779326    0.042667   -0.709183
  H      0.884904    0.520270    1.693399
  H      1.286105    1.667095    0.374832

 Total Charge           Charge          ....    0
 Multiplicity           Mult            ....    1
 Number of Electrons    NEL             ....   56
 Basis Dimension        Dim             ....   98

ORBITAL ENERGIES
----------------

  NO   OCC          E(Eh)            E(eV)
   0   2.0000    -100.629414     -2738.2656
   1   2.0000     -18.812010      -511.9008
   2   2.0000     -18.752701      -510.2869
   3   2.0000     -10.023480      -272.7528
   4   2.0000      -9.955923      -270.9144
   5   2.0000      -9.946514      -270.6584
   6   2.0000      -9.165410      -249.4035
   7   2.0000      -6.997477      -190.4110
   8   2.0000      -6.984861      -190.0677
   9   2.0000      -6.984621      -190.0612
  10   2.0000      -1.021653       -27.8006
  11   2.0000      -0.932642       -25.3785
  12   2.0000      -0.788505       -21.4563
  13   2.0000      -0.684687       -18.6313
  14   2.0000      -0.622935       -16.9509
  15   2.0000      -0.520564       -14.1653
  16   2.0000      -0.466773       -12.7015
  17   2.0000      -0.451239       -12.2788
  18   2.0000      -0.430951       -11.7268
  19   2.0000      -0.408047       -11.1035
  20   2.0000      -0.387738       -10.5509
  21   2.0000      -0.379781       -10.3344
  22   2.0000      -0.352414        -9.5897
  23   2.0000      -0.311336        -8.4719
  24   2.0000      -0.274608        -7.4725
  25   2.0000      -0.267036        -7.2664
  26   2.0000      -0.253660        -6.9024
  27   2.0000      -0.230765        -6.2794
  28   0.0000      -0.047046        -1.2802
  29   0.0000       0.020258         0.5513
  30   0.0000       0.053939         1.4678
  31   0.0000       0.058749         1.5986
  32   0.0000       0.086256         2.3471

MULLIKEN ATOMIC CHARGES
-----------------------
   0 C :   -0.134977
   1 O :   -0.231117
   2 C :    0.117928
   3 O :   -0.176990
   4 C :   -0.148154
   5 Cl:   -0.127620
   6 H :    0.125654
   7 H :    0.129290
   8 H :    0.135185
   9 H :    0.159056
  10 H :    0.151745
Sum of atomic charges:   -0.0000000

LOEWDIN ATOMIC CHARGES
----------------------
   0 C :   -0.208716
   1 O :   -0.065259
   2 C :    0.005522
   3 O :   -0.142436
   4 C :   -0.300292
   5 Cl:    0.055633
   6 H :    0.121720
   7 H :    0.123798
   8 H :    0.124650
   9 H :    0.144820
  10 H :    0.140560

  Mayer bond orders larger than 0.100000
B(  0-C ,  1-O ) :   0.9387 B(  0-C ,  6-H ) :   0.9599 B(  0-C ,  7-H ) :   0.9589
B(  0-C ,  8-H ) :   0.9296 B(  1-O ,  2-C ) :   1.2234 B(  1-O ,  3-O ) :   0.1049
B(  2-C ,  3-O ) :   2.0947 B(  2-C ,  4-C ) :   0.9774 B(  4-C ,  5-Cl) :   1.0497
B(  4-C ,  9-H ) :   0.9055 B(  4-C , 10-H ) :   0.9213

Dispersion correction           -0.008305203
FINAL SINGLE POINT ENERGY      -727.081051095337

DIPOLE MOMENT
-------------

Method             : SCF
Type of density    : Electron Density
Multiplicity       :   1
Irrep              :   0
Energy             :  -727.1231662020197746 Eh
Relativity type    :
Basis              : AO
                                X                 Y                 Z
Electronic contribution:      7.685533991      -0.533209850      -0.744912180
Nuclear contribution   :     -8.097167744       0.214317484       1.123814724
                        -----------------------------------------
Total Dipole Moment    :     -0.411633754      -0.318892366       0.378902544
                        -----------------------------------------
Magnitude (a.u.)       :      0.643973467
Magnitude (Debye)      :      1.636850470

Rotational constants in cm-1:             0.179426             0.059611             0.047869
Rotational constants in MHz :          5379.065141          1787.085877          1435.084257

                             ****ORCA TERMINATED NORMALLY****
TOTAL RUN TIME: 0 days 0 hours 0 minutes 7 seconds 422 msec
