                         Program Version 6.0.1  -  RELEASE   -
|  1> ! pbe def2-sv(p) def2/J RI DEFGRID1 loosescf d4 GCP(DFT/SV(P)) printgap
|  2> %output
|  3>     printlevel normal
|  4> end
|  5> * xyz 0 1
|  6> C 2.562534963 2.7024334163 1.032149542
|  7> C 2.3140833427 1.7604153544 -0.1449471204
|  8> C 3.1505765181 0.4606211874 -0.0298925442
|  9> C 2.0988704302 -0.6037431352 0.0623899578
| 10> C 2.2014158895 -1.9737017675 0.1789308906
| 11> C 1.032579215 -2.7157775497 0.2452785971
| 12> C -0.2114924179 -2.1062614464 0.1975159766
| 13> C -0.3213139352 -0.7266340555 0.0787738659
| 14> C 0.8562533358 0.0171703292 0.0115265363
| 15> O 0.9251591779 1.3636003436 -0.1047114275
| 16> O -1.4945618181 0.0058600714 0.0251552032
| 17> C -2.7368801571 -0.5347272212 0.0264440633
| 18> O -3.0234379954 -1.7040557636 0.0734388555
| 19> N -3.6339355818 0.4757663498 -0.0351321779
| 20> C -5.0557185364 0.2514660437 -0.0561975516
| 21> C 2.5554639589 2.4744892571 -1.474197387
| 22> H 3.5958332893 3.0391566205 1.0320717322
| 23> H 1.9069693572 3.5662347653 0.9582597814
| 24> H 2.3530673419 2.189926698 1.9683617353
| 25> H 3.7900669977 0.3186490003 -0.9029232045
| 26> H 3.7870712898 0.4726282249 0.8568001173
| 27> H 3.1678092351 -2.4525127942 0.2169134509
| 28> H 1.0837481795 -3.7895943915 0.3363564685
| 29> H -1.1066439045 -2.7023626771 0.2499519207
| 30> H -3.2798309995 1.4177606295 -0.0747339286
| 31> H -5.2156926429 -0.8240928967 -0.0038266233
| 32> H -5.4963984491 0.637465321 -0.9776888193
| 33> H -5.5364672695 0.7304787927 0.7990548452
| 34> H 3.5880149543 2.807172993 -1.5398324136
| 35> H 1.8982158052 3.3363987074 -1.5548140595
| 36> H 2.3432512 1.8007018058 -2.3012893629
| 37> *
| 38>
| 39>                          ****END OF INPUT****

CARTESIAN COORDINATES (ANGSTROEM)
---------------------------------
  C      2.562535    2.702433    1.032150
  C      2.314083    1.760415   -0.144947
  C      3.150577    0.460621   -0.029893
  C      2.098870   -0.603743    0.062390
  C      2.201416   -1.973702    0.178931
  C      1.032579   -2.715778    0.245279
  C     -0.211492   -2.106261    0.197516
  C     -0.321314   -0.726634    0.078774
  C      0.856253    0.017170    0.011527
  O      0.925159    1.363600   -0.104711
  O     -1.494562    0.005860    0.025155
  C     -2.736880   -0.534727    0.026444
  O     -3.023438   -1.704056    0.073439
  N     -3.633936    0.475766   -0.035132
  C     -5.055719    0.251466   -0.056198
  C      2.555464    2.474489   -1.474197
  H      3.595833    3.039157    1.032072
  H      1.906969    3.566235    0.958260
  H      2.353067    2.189927    1.968362
  H      3.790067    0.318649   -0.902923
  H      3.787071    0.472628    0.856800
  H      3.167809   -2.452513    0.216913
  H      1.083748   -3.789594    0.336356
  H     -1.106644   -2.702363    0.249952
  H     -3.279831    1.417761   -0.074734
  H     -5.215693   -0.824093   -0.003827
  H     -5.496398    0.637465   -0.977689
  H     -5.536467    0.730479    0.799055
  H      3.588015    2.807173   -1.539832
  H      1.898216    3.336399   -1.554814
  H      2.343251    1.800702   -2.301289

 Total Charge           Charge          ....    0
 Multiplicity           Mult            ....    1
 Number of Electrons    NEL             ....  118
 Basis Dimension        Dim             ....  254

ORBITAL ENERGIES
----------------

  NO   OCC          E(Eh)            E(eV)
   0   2.0000     -18.805598      -511.7263
   1   2.0000     -18.781112      -511.0600
   2   2.0000     -18.719415      -509.3812
   3   2.0000     -14.018405      -381.4602
   4   2.0000     -10.026344      -272.8307
   5   2.0000      -9.962057      -271.0813
   6   2.0000      -9.950048      -270.7546
   7   2.0000      -9.940023      -270.4818
   8   2.0000      -9.919434      -269.9215
   9   2.0000      -9.897694      -269.3299
  10   2.0000      -9.892631      -269.1922
  11   2.0000      -9.884644      -268.9748
  12   2.0000      -9.882700      -268.9219
  13   2.0000      -9.882638      -268.9202
  14   2.0000      -9.880188      -268.8536
  15   2.0000      -9.878585      -268.8100
  16   2.0000      -1.011978       -27.5373
  17   2.0000      -0.974873       -26.5276
  18   2.0000      -0.920573       -25.0501
  19   2.0000      -0.842327       -22.9209
  20   2.0000      -0.769899       -20.9500
  21   2.0000      -0.736421       -20.0390
  22   2.0000      -0.692130       -18.8338
  23   2.0000      -0.677139       -18.4259
  24   2.0000      -0.635311       -17.2877
  25   2.0000      -0.627159       -17.0659
  26   2.0000      -0.613743       -16.7008
  27   2.0000      -0.573079       -15.5943
  28   2.0000      -0.548810       -14.9339
  29   2.0000      -0.528915       -14.3925
  30   2.0000      -0.511231       -13.9113
  31   2.0000      -0.493589       -13.4312
  32   2.0000      -0.454746       -12.3743
  33   2.0000      -0.432291       -11.7632
  34   2.0000      -0.431076       -11.7302
  35   2.0000      -0.427280       -11.6269
  36   2.0000      -0.423114       -11.5135
  37   2.0000      -0.412584       -11.2270
  38   2.0000      -0.395246       -10.7552
  39   2.0000      -0.386527       -10.5179
  40   2.0000      -0.384649       -10.4668
  41   2.0000      -0.371082       -10.0976
  42   2.0000      -0.363776        -9.8988
  43   2.0000      -0.357117        -9.7177
  44   2.0000      -0.351506        -9.5650
  45   2.0000      -0.346337        -9.4243
  46   2.0000      -0.338784        -9.2188
  47   2.0000      -0.333227        -9.0676
  48   2.0000      -0.319766        -8.7013
  49   2.0000      -0.319276        -8.6879
  50   2.0000      -0.310520        -8.4497
  51   2.0000      -0.299434        -8.1480
  52   2.0000      -0.289169        -7.8687
  53   2.0000      -0.284013        -7.7284
  54   2.0000      -0.271879        -7.3982
  55   2.0000      -0.221986        -6.0405
  56   2.0000      -0.220108        -5.9894
  57   2.0000      -0.202785        -5.5181
  58   2.0000      -0.177007        -4.8166
  59   0.0000      -0.028003        -0.7620
  60   0.0000      -0.011710        -0.3186
  61   0.0000       0.029797         0.8108
  62   0.0000       0.031304         0.8518
  63   0.0000       0.040397         1.0993

MULLIKEN ATOMIC CHARGES
-----------------------
   0 C :   -0.200341
   1 C :   -0.080110
   2 C :   -0.006801
   3 C :   -0.043936
   4 C :   -0.147989
   5 C :   -0.041191
   6 C :   -0.191734
   7 C :    0.161837
   8 C :    0.161409
   9 O :   -0.252452
  10 O :   -0.236890
  11 C :    0.210595
  12 O :   -0.221745
  13 N :   -0.295904
  14 C :   -0.177773
  15 C :   -0.199710
  16 H :    0.102475
  17 H :    0.105668
  18 H :    0.107166
  19 H :    0.090147
  20 H :    0.089987
  21 H :    0.027401
  22 H :    0.047904
  23 H :    0.077217
  24 H :    0.233711
  25 H :    0.138573
  26 H :    0.113769
  27 H :    0.113679
  28 H :    0.102332
  29 H :    0.105479
  30 H :    0.107230
Sum of atomic charges:    0.0000000

LOEWDIN ATOMIC CHARGES
----------------------
   0 C :   -0.327613
   1 C :    0.015829
   2 C :   -0.198781
   3 C :   -0.072269
   4 C :   -0.133988
   5 C :   -0.138331
   6 C :   -0.152502
   7 C :    0.015617
   8 C :    0.019563
   9 O :   -0.073217
  10 O :   -0.043368
  11 C :    0.037736
  12 O :   -0.188943
  13 N :   -0.176900
  14 C :   -0.259169
  15 C :   -0.327561
  16 H :    0.124072
  17 H :    0.123964
  18 H :    0.124737
  19 H :    0.130407
  20 H :    0.130372
  21 H :    0.121584
  22 H :    0.123126
  23 H :    0.144125
  24 H :    0.237826
  25 H :    0.137921
  26 H :    0.116466
  27 H :    0.116553
  28 H :    0.124018
  29 H :    0.123947
  30 H :    0.124779

  Mayer bond orders larger than 0.100000
B(  0-C ,  1-C ) :   1.1004 B(  0-C , 16-H ) :   0.9409 B(  0-C , 17-H ) :   0.9411
B(  0-C , 18-H ) :   0.9383 B(  1-C ,  2-C ) :   1.0551 B(  1-C ,  9-O ) :   0.9452
B(  1-C , 15-C ) :   1.1007 B(  2-C ,  3-C ) :   1.0700 B(  2-C , 19-H ) :   0.8801
B(  2-C , 20-H ) :   0.8799 B(  3-C ,  4-C ) :   1.3702 B(  3-C ,  8-C ) :   1.3718
B(  4-C ,  5-C ) :   1.3122 B(  4-C , 21-H ) :   0.9850 B(  5-C ,  6-C ) :   1.3086
B(  5-C , 22-H ) :   0.9656 B(  6-C ,  7-C ) :   1.3791 B(  6-C , 23-H ) :   0.9585
B(  7-C ,  8-C ) :   1.3364 B(  7-C , 10-O ) :   1.0523 B(  8-C ,  9-O ) :   1.1405
B( 10-O , 11-C ) :   1.0818 B( 11-C , 12-O ) :   2.0029 B( 11-C , 13-N ) :   1.2164
B( 13-N , 14-C ) :   1.0273 B( 13-N , 24-H ) :   0.8603 B( 14-C , 25-H ) :   0.9368
B( 14-C , 26-H ) :   0.9582 B( 14-C , 27-H ) :   0.9582 B( 15-C , 28-H ) :   0.9409
B( 15-C , 29-H ) :   0.9409 B( 15-C , 30-H ) :   0.9384

Dispersion correction           -0.035257959
FINAL SINGLE POINT ENERGY      -745.174092863222

DIPOLE MOMENT
-------------

Method             : SCF
Type of density    : Electron Density
Multiplicity       :   1
Irrep              :   0
Energy             :  -745.2772748845939077 Eh
Relativity type    :
Basis              : AO
                                X                 Y                 Z
Electronic contribution:     -6.057469169      -8.650312494       0.805255423
Nuclear contribution   :      6.380516595       9.893481441      -0.879666177
                        -----------------------------------------
Total Dipole Moment    :      0.323047426       1.243168947      -0.074410753
                        -----------------------------------------
Magnitude (a.u.)       :      1.286610132
Magnitude (Debye)      :      3.270303059

Rotational constants in cm-1:             0.029976             0.010812             0.008398
Rotational constants in MHz :           898.666693           324.128195           251.772067

                             ****ORCA TERMINATED NORMALLY****
TOTAL RUN TIME: 0 days 0 hours 0 minutes 33 seconds 141 msec
