                         Program Version 6.0.0  -   RELEASE  -
|  1> ! r2SCAN-3c DEF2-TZVP FREQ
|  2> * xyzfile 0 1 censo.xyz
|  3>
|  4>                          ****END OF INPUT****

CARTESIAN COORDINATES (ANGSTROEM)
---------------------------------
  C     -3.095159    0.407454    0.000386
  C     -1.633270    0.054224   -0.000161
  C     -1.203542   -1.272416   -0.000239
  C      0.155077   -1.585146   -0.000089
  C      1.099244   -0.564713    0.000064
  C      0.708196    0.782121    0.000148
  C     -0.657795    1.058959    0.000023
  C      1.738718    1.871690   -0.000077
  O      2.456983   -0.824109   -0.000078
  H     -3.361730    0.995854    0.885386
  H     -3.359008    1.009817   -0.875920
  H     -3.716529   -0.491796   -0.007468
  H     -1.933558   -2.077066   -0.000458
  H      0.484289   -2.621190   -0.000238
  H     -0.971785    2.100733    0.000051
  H      2.390856    1.804254    0.877777
  H      2.387053    1.807347   -0.881010
  H      1.259054    2.853103    0.002621
  H      2.589812   -1.782260   -0.000049

 Total Charge           Charge          ....    0
 Multiplicity           Mult            ....    1
 Number of Electrons    NEL             ....   66
 Basis Dimension        Dim             ....  339

ORBITAL ENERGIES
----------------

  NO   OCC          E(Eh)            E(eV)
   0   2.0000     -18.983037      -516.5547
   1   2.0000     -10.088250      -274.5152
   2   2.0000     -10.038416      -273.1592
   3   2.0000     -10.035654      -273.0840
   4   2.0000     -10.032818      -273.0069
   5   2.0000     -10.030933      -272.9556
   6   2.0000     -10.028397      -272.8866
   7   2.0000     -10.026156      -272.8256
   8   2.0000     -10.024060      -272.7685
   9   2.0000      -1.019270       -27.7357
  10   2.0000      -0.819140       -22.2899
  11   2.0000      -0.743976       -20.2446
  12   2.0000      -0.723199       -19.6792
  13   2.0000      -0.653526       -17.7833
  14   2.0000      -0.642425       -17.4813
  15   2.0000      -0.583291       -15.8722
  16   2.0000      -0.537548       -14.6274
  17   2.0000      -0.505057       -13.7433
  18   2.0000      -0.451945       -12.2980
  19   2.0000      -0.428479       -11.6595
  20   2.0000      -0.399928       -10.8826
  21   2.0000      -0.398406       -10.8412
  22   2.0000      -0.381043       -10.3687
  23   2.0000      -0.377138       -10.2625
  24   2.0000      -0.368894       -10.0381
  25   2.0000      -0.356313        -9.6958
  26   2.0000      -0.352003        -9.5785
  27   2.0000      -0.334705        -9.1078
  28   2.0000      -0.315430        -8.5833
  29   2.0000      -0.301426        -8.2022
  30   2.0000      -0.295833        -8.0500
  31   2.0000      -0.226349        -6.1593
  32   2.0000      -0.194577        -5.2947
  33   0.0000      -0.030299        -0.8245
  34   0.0000      -0.013045        -0.3550
  35   0.0000       0.035770         0.9733
  36   0.0000       0.059989         1.6324
  37   0.0000       0.069062         1.8793

MULLIKEN ATOMIC CHARGES
-----------------------
   0 C :   -0.349571
   1 C :    0.184315
   2 C :   -0.199850
   3 C :   -0.195873
   4 C :    0.219192
   5 C :    0.082093
   6 C :   -0.271056
   7 C :   -0.311724
   8 O :   -0.408505
   9 H :    0.114361
  10 H :    0.114232
  11 H :    0.105464
  12 H :    0.097039
  13 H :    0.085818
  14 H :    0.089204
  15 H :    0.116283
  16 H :    0.116214
  17 H :    0.103166
  18 H :    0.309198
Sum of atomic charges:   -0.0000000

LOEWDIN ATOMIC CHARGES
----------------------
   0 C :   -0.257646
   1 C :   -0.185241
   2 C :   -0.126798
   3 C :   -0.148937
   4 C :   -0.239240
   5 C :   -0.154645
   6 C :   -0.091271
   7 C :   -0.249853
   8 O :    0.069836
   9 H :    0.127516
  10 H :    0.127476
  11 H :    0.124674
  12 H :    0.143420
  13 H :    0.139826
  14 H :    0.147103
  15 H :    0.131562
  16 H :    0.131573
  17 H :    0.124538
  18 H :    0.186109

  Mayer bond orders larger than 0.100000
B(  0-C ,  1-C ) :   0.9040 B(  0-C ,  9-H ) :   0.9673 B(  0-C , 10-H ) :   0.9679
B(  0-C , 11-H ) :   0.9902 B(  1-C ,  2-C ) :   1.3808 B(  1-C ,  6-C ) :   1.3254
B(  2-C ,  3-C ) :   1.3790 B(  2-C , 12-H ) :   0.9649 B(  3-C ,  4-C ) :   1.3646
B(  3-C , 13-H ) :   0.9707 B(  4-C ,  5-C ) :   1.3046 B(  4-C ,  8-O ) :   1.1406
B(  5-C ,  6-C ) :   1.4036 B(  5-C ,  7-C ) :   0.9430 B(  6-C , 14-H ) :   0.9882
B(  7-C , 15-H ) :   0.9579 B(  7-C , 16-H ) :   0.9577 B(  7-C , 17-H ) :   0.9847
B(  8-O , 18-H ) :   0.8865

Dispersion correction           -0.006108630
FINAL SINGLE POINT ENERGY      -386.034865997464

DIPOLE MOMENT
-------------

Method             : SCF
Type of density    : Electron Density
Multiplicity       :   1
Irrep              :   0
Energy             :  -386.0358979239405244 Eh
Relativity type    :
Basis              : AO
                                X                 Y                 Z
Electronic contribution:      3.883119363      -3.760977306      -0.000422278
Nuclear contribution   :     -3.960498872       3.404341105       0.000639858
                        -----------------------------------------
Total Dipole Moment    :     -0.077379510      -0.356636201       0.000217579
                        -----------------------------------------
Magnitude (a.u.)       :      0.364934262
Magnitude (Debye)      :      0.927589178

VIBRATIONAL FREQUENCIES
-----------------------

Scaling factor for frequencies =  1.000000000  (already applied!)

     0:       0.00 cm**-1
     1:       0.00 cm**-1
     2:       0.00 cm**-1
     3:       0.00 cm**-1
     4:       0.00 cm**-1
     5:       0.00 cm**-1
     6:      76.35 cm**-1
     7:     146.69 cm**-1
     8:     157.19 cm**-1
     9:     203.06 cm**-1
    10:     275.86 cm**-1
    11:     319.69 cm**-1
    12:     349.56 cm**-1
    13:     421.22 cm**-1
    14:     444.65 cm**-1
    15:     453.19 cm**-1
    16:     500.46 cm**-1
    17:     568.34 cm**-1
    18:     578.50 cm**-1
    19:     719.23 cm**-1
    20:     730.55 cm**-1
    21:     776.42 cm**-1
    22:     795.48 cm**-1
    23:     877.21 cm**-1
    24:     896.61 cm**-1
    25:     947.31 cm**-1
    26:    1000.42 cm**-1
    27:    1032.68 cm**-1
    28:    1053.59 cm**-1
    29:    1055.57 cm**-1
    30:    1133.77 cm**-1
    31:    1168.56 cm**-1
    32:    1204.65 cm**-1
    33:    1254.42 cm**-1
    34:    1276.84 cm**-1
    35:    1321.82 cm**-1
    36:    1365.66 cm**-1
    37:    1401.38 cm**-1
    38:    1406.28 cm**-1
    39:    1433.06 cm**-1
    40:    1471.31 cm**-1
    41:    1476.09 cm**-1
    42:    1482.31 cm**-1
    43:    1499.08 cm**-1
    44:    1531.61 cm**-1
    45:    1632.32 cm**-1
    46:    1640.71 cm**-1
    47:    3003.57 cm**-1
    48:    3007.58 cm**-1
    49:    3062.82 cm**-1
    50:    3067.00 cm**-1
    51:    3097.08 cm**-1
    52:    3103.33 cm**-1
    53:    3139.08 cm**-1
    54:    3143.27 cm**-1
    55:    3161.36 cm**-1
    56:    3758.33 cm**-1

IR SPECTRUM
-----------

 Mode   freq       eps      Int      T**2         TX        TY        TZ
       cm**-1   L/(mol*cm) km/mol    a.u.
----------------------------------------------------------------------------
  6:     76.35   0.000031    0.16  0.000127  (-0.000541 -0.000444  0.011239)
  7:    146.69   0.000070    0.36  0.000150  ( 0.000353  0.000046  0.012228)
  8:    157.19   0.000000    0.00  0.000000  (-0.000023 -0.000259  0.000605)
  9:    203.06   0.001214    6.13  0.001865  (-0.000199 -0.000072 -0.043187)
 10:    275.86   0.000293    1.48  0.000332  ( 0.013037 -0.012726  0.000002)
 11:    319.69   0.000705    3.56  0.000688  (-0.025726  0.005112  0.000091)
 12:    349.56   0.000108    0.55  0.000097  ( 0.000004 -0.000052  0.009833)
 13:    421.22   0.017294   87.40  0.012812  (-0.000021 -0.000010  0.113190)
 14:    444.65   0.000937    4.74  0.000658  (-0.000060  0.000107 -0.025644)
 15:    453.19   0.000179    0.90  0.000123  (-0.005119 -0.009849 -0.000041)
 16:    500.46   0.001177    5.95  0.000734  ( 0.025016 -0.010399  0.000016)
 17:    568.34   0.001370    6.92  0.000752  (-0.000134  0.000017  0.027427)
 18:    578.50   0.000626    3.17  0.000338  ( 0.018338 -0.001257  0.000158)
 19:    719.23   0.000061    0.31  0.000026  (-0.000042 -0.000032 -0.005141)
 20:    730.55   0.000864    4.37  0.000369  ( 0.018326 -0.005761  0.000039)
 21:    776.42   0.002324   11.74  0.000934  ( 0.028899 -0.009946  0.000097)
 22:    795.48   0.007272   36.75  0.002853  ( 0.000136 -0.000082 -0.053411)
 23:    877.21   0.000976    4.93  0.000347  (-0.000014 -0.000060 -0.018633)
 24:    896.61   0.000089    0.45  0.000031  ( 0.000008  0.000019  0.005552)
 25:    947.31   0.000680    3.43  0.000224  ( 0.009174 -0.011819  0.000047)
 26:   1000.42   0.001672    8.45  0.000522  ( 0.022691  0.002582 -0.000024)
 27:   1032.68   0.001195    6.04  0.000361  ( 0.014322  0.012485 -0.000009)
 28:   1053.59   0.000692    3.50  0.000205  ( 0.000353 -0.000137 -0.014312)
 29:   1055.57   0.000079    0.40  0.000023  ( 0.000012 -0.000052  0.004828)
 30:   1133.77   0.017716   89.53  0.004876  ( 0.065520 -0.024154  0.000011)
 31:   1168.56   0.001045    5.28  0.000279  ( 0.005895  0.015628  0.000023)
 32:   1204.65   0.015187   76.75  0.003934  (-0.061592  0.011857  0.000036)
 33:   1254.42   0.008049   40.68  0.002002  ( 0.042939 -0.012599 -0.000009)
 34:   1276.84   0.009503   48.02  0.002323  (-0.048188  0.000685 -0.000017)
 35:   1321.82   0.003353   16.94  0.000792  ( 0.028061 -0.002018 -0.000011)
 36:   1365.66   0.006436   32.53  0.001471  ( 0.035361 -0.014845 -0.000008)
 37:   1401.38   0.000097    0.49  0.000022  ( 0.004653 -0.000070 -0.000021)
 38:   1406.28   0.000289    1.46  0.000064  (-0.002322 -0.007671  0.000010)
 39:   1433.06   0.002136   10.80  0.000465  ( 0.021351 -0.003058 -0.000033)
 40:   1471.31   0.001609    8.13  0.000341  ( 0.000113  0.000048  0.018475)
 41:   1476.09   0.001090    5.51  0.000230  ( 0.000238 -0.000109  0.015177)
 42:   1482.31   0.000082    0.42  0.000017  (-0.000962 -0.004047 -0.000147)
 43:   1499.08   0.004263   21.54  0.000887  ( 0.014255 -0.026158 -0.000064)
 44:   1531.61   0.015701   79.35  0.003199  ( 0.055938 -0.008370 -0.000035)
 45:   1632.32   0.000392    1.98  0.000075  (-0.002475  0.008299 -0.000002)
 46:   1640.71   0.001878    9.49  0.000357  (-0.016390  0.009413 -0.000005)
 47:   3003.57   0.008932   45.14  0.000928  ( 0.029694 -0.006802 -0.000140)
 48:   3007.58   0.005334   26.96  0.000553  ( 0.014015  0.018896 -0.000043)
 49:   3062.82   0.003403   17.20  0.000347  (-0.000174  0.000053 -0.018620)
 50:   3067.00   0.002706   13.68  0.000275  (-0.000027 -0.000051 -0.016593)
 51:   3097.08   0.003342   16.89  0.000337  ( 0.007990  0.016519  0.000013)
 52:   3103.33   0.002997   15.14  0.000301  (-0.008417  0.015182  0.000011)
 53:   3139.08   0.003812   19.26  0.000379  (-0.005803  0.018581  0.000003)
 54:   3143.27   0.002928   14.80  0.000291  ( 0.015869 -0.006236  0.000001)
 55:   3161.36   0.002959   14.95  0.000292  ( 0.004978  0.016349  0.000003)
 56:   3758.33   0.010019   50.63  0.000832  (-0.018083  0.022470  0.000002)

--------------------------
THERMOCHEMISTRY AT 298.15K
--------------------------

Temperature         ...   298.15 K
Pressure            ...     1.00 atm
Total Mass          ...   122.17 AMU
Quasi RRHO          ...     True
Cut-Off Frequency   ...     1.00 cm^-1

Throughout the following assumptions are being made:
  (1) The electronic state is orbitally nondegenerate
  (2) There are no thermally accessible electronically excited states
  (3) Hindered rotations indicated by low frequency modes are not
      treated as such but are treated as vibrations and this may
      cause some error
  (4) All equations used are the standard statistical mechanics
      equations for an ideal gas
  (5) All vibrations are strictly harmonic

freq.      76.35  E(vib)   ...       0.49
freq.     146.69  E(vib)   ...       0.41
freq.     157.19  E(vib)   ...       0.40
freq.     203.06  E(vib)   ...       0.35
freq.     275.86  E(vib)   ...       0.28
freq.     319.69  E(vib)   ...       0.25
freq.     349.56  E(vib)   ...       0.23
freq.     421.22  E(vib)   ...       0.18
freq.     444.65  E(vib)   ...       0.17
freq.     453.19  E(vib)   ...       0.16
freq.     500.46  E(vib)   ...       0.14
freq.     568.34  E(vib)   ...       0.11
freq.     578.50  E(vib)   ...       0.11
freq.     719.23  E(vib)   ...       0.07
freq.     730.55  E(vib)   ...       0.06
freq.     776.42  E(vib)   ...       0.05
freq.     795.48  E(vib)   ...       0.05
freq.     877.21  E(vib)   ...       0.04
freq.     896.61  E(vib)   ...       0.03
freq.     947.31  E(vib)   ...       0.03
freq.    1000.42  E(vib)   ...       0.02
freq.    1032.68  E(vib)   ...       0.02
freq.    1053.59  E(vib)   ...       0.02
freq.    1055.57  E(vib)   ...       0.02
freq.    1133.77  E(vib)   ...       0.01
freq.    1168.56  E(vib)   ...       0.01
freq.    1204.65  E(vib)   ...       0.01
freq.    1254.42  E(vib)   ...       0.01
freq.    1276.84  E(vib)   ...       0.01
freq.    1321.82  E(vib)   ...       0.01
freq.    1365.66  E(vib)   ...       0.01
freq.    1401.38  E(vib)   ...       0.00
freq.    1406.28  E(vib)   ...       0.00
freq.    1433.06  E(vib)   ...       0.00
freq.    1471.31  E(vib)   ...       0.00
freq.    1476.09  E(vib)   ...       0.00
freq.    1482.31  E(vib)   ...       0.00
freq.    1499.08  E(vib)   ...       0.00
freq.    1531.61  E(vib)   ...       0.00
freq.    1632.32  E(vib)   ...       0.00
freq.    1640.71  E(vib)   ...       0.00
freq.    3003.57  E(vib)   ...       0.00
freq.    3007.58  E(vib)   ...       0.00
freq.    3062.82  E(vib)   ...       0.00
freq.    3067.00  E(vib)   ...       0.00
freq.    3097.08  E(vib)   ...       0.00
freq.    3103.33  E(vib)   ...       0.00
freq.    3139.08  E(vib)   ...       0.00
freq.    3143.27  E(vib)   ...       0.00
freq.    3161.36  E(vib)   ...       0.00
freq.    3758.33  E(vib)   ...       0.00

------------
INNER ENERGY
------------

The inner energy is: U= E(el) + E(ZPE) + E(vib) + E(rot) + E(trans)
    E(el)   - is the total energy from the electronic structure calculation
              = E(kin-el) + E(nuc-el) + E(el-el) + E(nuc-nuc)
    E(ZPE)  - the the zero temperature vibrational energy from the frequency calculation
    E(vib)  - the the finite temperature correction to E(ZPE) due to population
              of excited vibrational states
    E(rot)  - is the rotational thermal energy
    E(trans)- is the translational thermal energy

Summary of contributions to the inner energy U:
Electronic energy                ...   -386.03486600 Eh
Zero point energy                ...      0.15861319 Eh      99.53 kcal/mol
Thermal vibrational correction   ...      0.00603212 Eh       3.79 kcal/mol
Thermal rotational correction    ...      0.00141627 Eh       0.89 kcal/mol
Thermal translational correction ...      0.00141627 Eh       0.89 kcal/mol
-----------------------------------------------------------------------
Total thermal energy                   -385.86738815 Eh

Summary of corrections to the electronic energy:
(perhaps to be used in another calculation)
Total thermal correction                  0.00886466 Eh       5.56 kcal/mol
Non-thermal (ZPE) correction              0.15861319 Eh      99.53 kcal/mol
-----------------------------------------------------------------------
Total correction                          0.16747785 Eh     105.09 kcal/mol

--------
ENTHALPY
--------

The enthalpy is H = U + kB*T
                kB is Boltzmann's constant
Total thermal energy              ...   -385.86738815 Eh
Thermal Enthalpy correction       ...      0.00094421 Eh       0.59 kcal/mol
-----------------------------------------------------------------------
Total Enthalpy                    ...   -385.86644394 Eh

Note: Only C1 symmetry has been detected, increase convergence thresholds
      if your molecule has a higher symmetry. Symmetry factor of 1.0 is
      used for the rotational entropy correction.

Note: Rotational entropy computed according to Herzberg
Infrared and Raman Spectra, Chapter V,1, Van Nostrand Reinhold, 1945
Point Group:  C1, Symmetry Number:   1
Rotational constants in cm-1:     0.100140     0.043442     0.030642

Vibrational entropy computed according to the QRRHO of S. Grimme
Chem.Eur.J. 2012 18 9955 using a reference frequency of 100.0 cm-1

-------
ENTROPY
-------

The entropy contributions are T*S = T*(S(el)+S(vib)+S(rot)+S(trans))
     S(el)   - electronic entropy
     S(vib)  - vibrational entropy
     S(rot)  - rotational entropy
     S(trans)- translational entropy
The entropies will be listed as multiplied by the temperature to get
units of energy

Electronic entropy                ...      0.00000000 Eh      0.00 kcal/mol
Vibrational entropy               ...      0.00996933 Eh      6.26 kcal/mol
Rotational entropy                ...      0.01372323 Eh      8.61 kcal/mol
Translational entropy             ...      0.01915481 Eh     12.02 kcal/mol
-----------------------------------------------------------------------
Final entropy term                ...      0.04284737 Eh     26.89 kcal/mol

In case the symmetry of your molecule has not been determined correctly
or in case you have a reason to use a different symmetry number we print
out the resulting rotational entropy values for sn=1,12:

 non-linear molecules -----------------------------------
|  sn= 1 | S(rot)=       0.01372323 Eh      8.61 kcal/mol|
|  sn= 2 | S(rot)=       0.01306877 Eh      8.20 kcal/mol|
|  sn= 3 | S(rot)=       0.01268594 Eh      7.96 kcal/mol|
|  sn= 4 | S(rot)=       0.01241431 Eh      7.79 kcal/mol|
|  sn= 5 | S(rot)=       0.01220363 Eh      7.66 kcal/mol|
|  sn= 6 | S(rot)=       0.01203148 Eh      7.55 kcal/mol|
|  sn= 7 | S(rot)=       0.01188593 Eh      7.46 kcal/mol|
|  sn= 8 | S(rot)=       0.01175986 Eh      7.38 kcal/mol|
|  sn= 9 | S(rot)=       0.01164865 Eh      7.31 kcal/mol|

                             ****ORCA TERMINATED NORMALLY****
TOTAL RUN TIME: 0 days 0 hours 16 minutes 45 seconds 632 msec
