                         Program Version 6.0.0  -   RELEASE  -
|  1> ! r2SCAN-3c DEF2-TZVP FREQ
|  2> * xyzfile 0 1 vacuum_censo.xyz
|  3>
|  4>                          ****END OF INPUT****

CARTESIAN COORDINATES (ANGSTROEM)
---------------------------------
  C     -3.096598   -0.407969   -0.000636
  C     -1.633976   -0.052803    0.000439
  C     -1.204099    1.271061    0.000363
  C      0.153794    1.581688   -0.000020
  C      1.099207    0.562763   -0.000257
  C      0.704406   -0.782407   -0.000000
  C     -0.659457   -1.056390    0.000396
  C      1.741632   -1.866792    0.000078
  O      2.450562    0.808331   -0.000483
  H     -3.363975   -0.988654   -0.890358
  H     -3.359104   -1.014013    0.873353
  H     -3.721340    0.488660    0.013729
  H     -1.932881    2.076471    0.000634
  H      0.475453    2.620956    0.000080
  H     -0.975089   -2.097768    0.000732
  H      1.270666   -2.852416    0.001291
  H      2.391199   -1.790921   -0.878450
  H      2.392678   -1.789414    0.877365
  H      2.592680    1.761265   -0.000606

 Total Charge           Charge          ....    0
 Multiplicity           Mult            ....    1
 Number of Electrons    NEL             ....   66
 Basis Dimension        Dim             ....  339

ORBITAL ENERGIES
----------------

  NO   OCC          E(Eh)            E(eV)
   0   2.0000     -18.983833      -516.5764
   1   2.0000     -10.087624      -274.4982
   2   2.0000     -10.037265      -273.1279
   3   2.0000     -10.034690      -273.0578
   4   2.0000     -10.032117      -272.9878
   5   2.0000     -10.029998      -272.9301
   6   2.0000     -10.027430      -272.8602
   7   2.0000     -10.025793      -272.8157
   8   2.0000     -10.023695      -272.7586
   9   2.0000      -1.023695       -27.8561
  10   2.0000      -0.819335       -22.2952
  11   2.0000      -0.743886       -20.2422
  12   2.0000      -0.722811       -19.6687
  13   2.0000      -0.653543       -17.7838
  14   2.0000      -0.642554       -17.4848
  15   2.0000      -0.584013       -15.8918
  16   2.0000      -0.537807       -14.6345
  17   2.0000      -0.506317       -13.7776
  18   2.0000      -0.452388       -12.3101
  19   2.0000      -0.427934       -11.6447
  20   2.0000      -0.399548       -10.8723
  21   2.0000      -0.399063       -10.8591
  22   2.0000      -0.381123       -10.3709
  23   2.0000      -0.376530       -10.2459
  24   2.0000      -0.369173       -10.0457
  25   2.0000      -0.356333        -9.6963
  26   2.0000      -0.352834        -9.6011
  27   2.0000      -0.334931        -9.1139
  28   2.0000      -0.315156        -8.5758
  29   2.0000      -0.300711        -8.1828
  30   2.0000      -0.296519        -8.0687
  31   2.0000      -0.226091        -6.1523
  32   2.0000      -0.194180        -5.2839
  33   0.0000      -0.029360        -0.7989
  34   0.0000      -0.012161        -0.3309
  35   0.0000       0.036429         0.9913
  36   0.0000       0.060421         1.6442
  37   0.0000       0.069369         1.8876

MULLIKEN ATOMIC CHARGES
-----------------------
   0 C :   -0.350166
   1 C :    0.183754
   2 C :   -0.198867
   3 C :   -0.197485
   4 C :    0.219272
   5 C :    0.082739
   6 C :   -0.271604
   7 C :   -0.309422
   8 O :   -0.406978
   9 H :    0.114362
  10 H :    0.114116
  11 H :    0.105369
  12 H :    0.096905
  13 H :    0.085972
  14 H :    0.088435
  15 H :    0.103296
  16 H :    0.115757
  17 H :    0.115777
  18 H :    0.308770
Sum of atomic charges:   -0.0000000

LOEWDIN ATOMIC CHARGES
----------------------
   0 C :   -0.257410
   1 C :   -0.185843
   2 C :   -0.127630
   3 C :   -0.149253
   4 C :   -0.246193
   5 C :   -0.154899
   6 C :   -0.092000
   7 C :   -0.249598
   8 O :    0.080679
   9 H :    0.127370
  10 H :    0.127298
  11 H :    0.124394
  12 H :    0.143557
  13 H :    0.140058
  14 H :    0.147295
  15 H :    0.124240
  16 H :    0.131498
  17 H :    0.131493
  18 H :    0.184943

  Mayer bond orders larger than 0.100000
B(  0-C ,  1-C ) :   0.9042 B(  0-C ,  9-H ) :   0.9672 B(  0-C , 10-H ) :   0.9683
B(  0-C , 11-H ) :   0.9903 B(  1-C ,  2-C ) :   1.3843 B(  1-C ,  6-C ) :   1.3244
B(  2-C ,  3-C ) :   1.3797 B(  2-C , 12-H ) :   0.9649 B(  3-C ,  4-C ) :   1.3647
B(  3-C , 13-H ) :   0.9699 B(  4-C ,  5-C ) :   1.3002 B(  4-C ,  8-O ) :   1.1462
B(  5-C ,  6-C ) :   1.4065 B(  5-C ,  7-C ) :   0.9429 B(  6-C , 14-H ) :   0.9892
B(  7-C , 15-H ) :   0.9841 B(  7-C , 16-H ) :   0.9583 B(  7-C , 17-H ) :   0.9583
B(  8-O , 18-H ) :   0.8869

Dispersion correction           -0.006114146
FINAL SINGLE POINT ENERGY      -386.035055567574

DIPOLE MOMENT
-------------

Method             : SCF
Type of density    : Electron Density
Multiplicity       :   1
Irrep              :   0
Energy             :  -386.0360803201961062 Eh
Relativity type    :
Basis              : AO
                                X                 Y                 Z
Electronic contribution:      3.895801451       3.741569729       0.001011085
Nuclear contribution   :     -3.945053466      -3.375228581      -0.001666809
                        -----------------------------------------
Total Dipole Moment    :     -0.049252015       0.366341147      -0.000655723
                        -----------------------------------------
Magnitude (a.u.)       :      0.369637697
Magnitude (Debye)      :      0.939544359

VIBRATIONAL FREQUENCIES
-----------------------

Scaling factor for frequencies =  1.000000000  (already applied!)

     0:       0.00 cm**-1
     1:       0.00 cm**-1
     2:       0.00 cm**-1
     3:       0.00 cm**-1
     4:       0.00 cm**-1
     5:       0.00 cm**-1
     6:      62.73 cm**-1
     7:     144.65 cm**-1
     8:     159.91 cm**-1
     9:     201.76 cm**-1
    10:     277.58 cm**-1
    11:     318.67 cm**-1
    12:     341.72 cm**-1
    13:     366.47 cm**-1
    14:     441.32 cm**-1
    15:     452.06 cm**-1
    16:     498.80 cm**-1
    17:     567.26 cm**-1
    18:     578.34 cm**-1
    19:     718.68 cm**-1
    20:     731.23 cm**-1
    21:     783.06 cm**-1
    22:     797.16 cm**-1
    23:     878.83 cm**-1
    24:     897.49 cm**-1
    25:     948.04 cm**-1
    26:     999.99 cm**-1
    27:    1032.30 cm**-1
    28:    1053.61 cm**-1
    29:    1054.85 cm**-1
    30:    1132.87 cm**-1
    31:    1170.50 cm**-1
    32:    1200.00 cm**-1
    33:    1266.17 cm**-1
    34:    1281.52 cm**-1
    35:    1324.26 cm**-1
    36:    1369.86 cm**-1
    37:    1400.67 cm**-1
    38:    1404.70 cm**-1
    39:    1436.33 cm**-1
    40:    1470.52 cm**-1
    41:    1477.06 cm**-1
    42:    1482.53 cm**-1
    43:    1499.49 cm**-1
    44:    1537.21 cm**-1
    45:    1637.32 cm**-1
    46:    1646.33 cm**-1
    47:    3004.76 cm**-1
    48:    3010.24 cm**-1
    49:    3064.85 cm**-1
    50:    3070.52 cm**-1
    51:    3097.66 cm**-1
    52:    3105.57 cm**-1
    53:    3136.81 cm**-1
    54:    3137.99 cm**-1
    55:    3161.79 cm**-1
    56:    3808.24 cm**-1

IR SPECTRUM
-----------

 Mode   freq       eps      Int      T**2         TX        TY        TZ
       cm**-1   L/(mol*cm) km/mol    a.u.
----------------------------------------------------------------------------
  6:     62.73   0.000035    0.18  0.000174  (-0.000879  0.000822 -0.013123)
  7:    144.65   0.000098    0.49  0.000211  ( 0.000383 -0.000070 -0.014516)
  8:    159.91   0.000005    0.02  0.000009  (-0.000100 -0.000054 -0.003070)
  9:    201.76   0.001560    7.88  0.002413  (-0.000166 -0.000035  0.049119)
 10:    277.58   0.000261    1.32  0.000293  (-0.011638 -0.012551  0.000030)
 11:    318.67   0.000797    4.03  0.000780  ( 0.027335  0.005722  0.000197)
 12:    341.72   0.003643   18.41  0.003327  (-0.000014  0.000104 -0.057677)
 13:    366.47   0.013939   70.44  0.011870  ( 0.000062 -0.000066 -0.108948)
 14:    441.32   0.000691    3.49  0.000489  (-0.000086  0.000016  0.022107)
 15:    452.06   0.000167    0.85  0.000115  ( 0.002479 -0.010456 -0.000106)
 16:    498.80   0.001168    5.90  0.000731  (-0.025291 -0.009538 -0.000036)
 17:    567.26   0.001210    6.12  0.000666  (-0.000129 -0.000070 -0.025803)
 18:    578.34   0.000657    3.32  0.000354  (-0.018796 -0.001018  0.000072)
 19:    718.68   0.000035    0.17  0.000015  (-0.000087  0.000040  0.003873)
 20:    731.23   0.000742    3.75  0.000317  ( 0.017009  0.005226 -0.000034)
 21:    783.06   0.002047   10.35  0.000816  ( 0.027063  0.009135 -0.000213)
 22:    797.16   0.007288   36.83  0.002853  ( 0.000205 -0.000007  0.053412)
 23:    878.83   0.000905    4.58  0.000321  ( 0.000016  0.000012 -0.017930)
 24:    897.49   0.000116    0.59  0.000040  (-0.000041  0.000083 -0.006359)
 25:    948.04   0.000624    3.16  0.000206  ( 0.008655  0.011430 -0.000066)
 26:    999.99   0.001587    8.02  0.000495  ( 0.022156 -0.002109  0.000051)
 27:   1032.30   0.001298    6.56  0.000392  ( 0.015247 -0.012643  0.000001)
 28:   1053.61   0.000748    3.78  0.000221  ( 0.000600  0.000203  0.014868)
 29:   1054.85   0.000024    0.12  0.000007  ( 0.000244  0.000060 -0.002673)
 30:   1132.87   0.018021   91.07  0.004964  (-0.066522 -0.023216  0.000029)
 31:   1170.50   0.001018    5.15  0.000272  ( 0.002896 -0.016222 -0.000033)
 32:   1200.00   0.013234   66.88  0.003442  (-0.057860 -0.009684 -0.000030)
 33:   1266.17   0.001714    8.66  0.000422  ( 0.017350  0.011018  0.000050)
 34:   1281.52   0.018019   91.06  0.004388  (-0.065911 -0.006594  0.000056)
 35:   1324.26   0.003254   16.44  0.000767  (-0.027575 -0.002514 -0.000018)
 36:   1369.86   0.005521   27.90  0.001258  ( 0.032342  0.014553 -0.000011)
 37:   1400.67   0.000104    0.52  0.000023  ( 0.004707 -0.000964  0.000022)
 38:   1404.70   0.000307    1.55  0.000068  (-0.000125  0.008262  0.000016)
 39:   1436.33   0.001957    9.89  0.000425  (-0.020566 -0.001470 -0.000064)
 40:   1470.52   0.001587    8.02  0.000337  (-0.000004  0.000041 -0.018352)
 41:   1477.06   0.001163    5.88  0.000246  ( 0.000375  0.000243 -0.015666)
 42:   1482.53   0.000135    0.68  0.000028  ( 0.001137 -0.005196 -0.000443)
 43:   1499.49   0.004107   20.75  0.000855  ( 0.014285  0.025507  0.000060)
 44:   1537.21   0.017285   87.35  0.003509  ( 0.058544  0.009033  0.000023)
 45:   1637.32   0.000191    0.97  0.000036  (-0.001679  0.005802 -0.000009)
 46:   1646.33   0.002422   12.24  0.000459  (-0.018114 -0.011445  0.000021)
 47:   3004.76   0.008785   44.40  0.000912  ( 0.029290  0.007379  0.000238)
 48:   3010.24   0.005500   27.80  0.000570  ( 0.014554 -0.018931 -0.000033)
 49:   3064.85   0.003423   17.30  0.000349  (-0.000296 -0.000110  0.018666)
 50:   3070.52   0.002704   13.67  0.000275  ( 0.000009 -0.000022  0.016578)
 51:   3097.66   0.003422   17.29  0.000345  (-0.008300  0.016607  0.000039)
 52:   3105.57   0.002885   14.58  0.000290  (-0.008524 -0.014739  0.000006)
 53:   3136.81   0.006062   30.63  0.000603  (-0.015437 -0.019098  0.000003)
 54:   3137.99   0.001068    5.40  0.000106  (-0.004397  0.009320 -0.000002)
 55:   3161.79   0.002884   14.58  0.000285  (-0.007694  0.015016  0.000003)
 56:   3808.24   0.010224   51.67  0.000838  ( 0.018306  0.022421 -0.000002)

--------------------------
THERMOCHEMISTRY AT 298.15K
--------------------------

Temperature         ...   298.15 K
Pressure            ...     1.00 atm
Total Mass          ...   122.17 AMU
Quasi RRHO          ...     True
Cut-Off Frequency   ...     1.00 cm^-1

Throughout the following assumptions are being made:
  (1) The electronic state is orbitally nondegenerate
  (2) There are no thermally accessible electronically excited states
  (3) Hindered rotations indicated by low frequency modes are not
      treated as such but are treated as vibrations and this may
      cause some error
  (4) All equations used are the standard statistical mechanics
      equations for an ideal gas
  (5) All vibrations are strictly harmonic

freq.      62.73  E(vib)   ...       0.51
freq.     144.65  E(vib)   ...       0.41
freq.     159.91  E(vib)   ...       0.39
freq.     201.76  E(vib)   ...       0.35
freq.     277.58  E(vib)   ...       0.28
freq.     318.67  E(vib)   ...       0.25
freq.     341.72  E(vib)   ...       0.23
freq.     366.47  E(vib)   ...       0.22
freq.     441.32  E(vib)   ...       0.17
freq.     452.06  E(vib)   ...       0.16
freq.     498.80  E(vib)   ...       0.14
freq.     567.26  E(vib)   ...       0.11
freq.     578.34  E(vib)   ...       0.11
freq.     718.68  E(vib)   ...       0.07
freq.     731.23  E(vib)   ...       0.06
freq.     783.06  E(vib)   ...       0.05
freq.     797.16  E(vib)   ...       0.05
freq.     878.83  E(vib)   ...       0.04
freq.     897.49  E(vib)   ...       0.03
freq.     948.04  E(vib)   ...       0.03
freq.     999.99  E(vib)   ...       0.02
freq.    1032.30  E(vib)   ...       0.02
freq.    1053.61  E(vib)   ...       0.02
freq.    1054.85  E(vib)   ...       0.02
freq.    1132.87  E(vib)   ...       0.01
freq.    1170.50  E(vib)   ...       0.01
freq.    1200.00  E(vib)   ...       0.01
freq.    1266.17  E(vib)   ...       0.01
freq.    1281.52  E(vib)   ...       0.01
freq.    1324.26  E(vib)   ...       0.01
freq.    1369.86  E(vib)   ...       0.01
freq.    1400.67  E(vib)   ...       0.00
freq.    1404.70  E(vib)   ...       0.00
freq.    1436.33  E(vib)   ...       0.00
freq.    1470.52  E(vib)   ...       0.00
freq.    1477.06  E(vib)   ...       0.00
freq.    1482.53  E(vib)   ...       0.00
freq.    1499.49  E(vib)   ...       0.00
freq.    1537.21  E(vib)   ...       0.00
freq.    1637.32  E(vib)   ...       0.00
freq.    1646.33  E(vib)   ...       0.00
freq.    3004.76  E(vib)   ...       0.00
freq.    3010.24  E(vib)   ...       0.00
freq.    3064.85  E(vib)   ...       0.00
freq.    3070.52  E(vib)   ...       0.00
freq.    3097.66  E(vib)   ...       0.00
freq.    3105.57  E(vib)   ...       0.00
freq.    3136.81  E(vib)   ...       0.00
freq.    3137.99  E(vib)   ...       0.00
freq.    3161.79  E(vib)   ...       0.00
freq.    3808.24  E(vib)   ...       0.00

------------
INNER ENERGY
------------

The inner energy is: U= E(el) + E(ZPE) + E(vib) + E(rot) + E(trans)
    E(el)   - is the total energy from the electronic structure calculation
              = E(kin-el) + E(nuc-el) + E(el-el) + E(nuc-nuc)
    E(ZPE)  - the the zero temperature vibrational energy from the frequency calculation
    E(vib)  - the the finite temperature correction to E(ZPE) due to population
              of excited vibrational states
    E(rot)  - is the rotational thermal energy
    E(trans)- is the translational thermal energy

Summary of contributions to the inner energy U:
Electronic energy                ...   -386.03505557 Eh
Zero point energy                ...      0.15865670 Eh      99.56 kcal/mol
Thermal vibrational correction   ...      0.00612421 Eh       3.84 kcal/mol
Thermal rotational correction    ...      0.00141627 Eh       0.89 kcal/mol
Thermal translational correction ...      0.00141627 Eh       0.89 kcal/mol
-----------------------------------------------------------------------
Total thermal energy                   -385.86744211 Eh

Summary of corrections to the electronic energy:
(perhaps to be used in another calculation)
Total thermal correction                  0.00895675 Eh       5.62 kcal/mol
Non-thermal (ZPE) correction              0.15865670 Eh      99.56 kcal/mol
-----------------------------------------------------------------------
Total correction                          0.16761345 Eh     105.18 kcal/mol

--------
ENTHALPY
--------

The enthalpy is H = U + kB*T
                kB is Boltzmann's constant
Total thermal energy              ...   -385.86744211 Eh
Thermal Enthalpy correction       ...      0.00094421 Eh       0.59 kcal/mol
-----------------------------------------------------------------------
Total Enthalpy                    ...   -385.86649791 Eh

Note: Only C1 symmetry has been detected, increase convergence thresholds
      if your molecule has a higher symmetry. Symmetry factor of 1.0 is
      used for the rotational entropy correction.

Note: Rotational entropy computed according to Herzberg
Infrared and Raman Spectra, Chapter V,1, Van Nostrand Reinhold, 1945
Point Group:  C1, Symmetry Number:   1
Rotational constants in cm-1:     0.100804     0.043459     0.030712

Vibrational entropy computed according to the QRRHO of S. Grimme
Chem.Eur.J. 2012 18 9955 using a reference frequency of 100.0 cm-1

-------
ENTROPY
-------

The entropy contributions are T*S = T*(S(el)+S(vib)+S(rot)+S(trans))
     S(el)   - electronic entropy
     S(vib)  - vibrational entropy
     S(rot)  - rotational entropy
     S(trans)- translational entropy
The entropies will be listed as multiplied by the temperature to get
units of energy

Electronic entropy                ...      0.00000000 Eh      0.00 kcal/mol
Vibrational entropy               ...      0.01014525 Eh      6.37 kcal/mol
Rotational entropy                ...      0.01371884 Eh      8.61 kcal/mol
Translational entropy             ...      0.01915481 Eh     12.02 kcal/mol
-----------------------------------------------------------------------
Final entropy term                ...      0.04301889 Eh     26.99 kcal/mol

In case the symmetry of your molecule has not been determined correctly
or in case you have a reason to use a different symmetry number we print
out the resulting rotational entropy values for sn=1,12:

 non-linear molecules -----------------------------------
|  sn= 1 | S(rot)=       0.01371884 Eh      8.61 kcal/mol|
|  sn= 2 | S(rot)=       0.01306439 Eh      8.20 kcal/mol|
|  sn= 3 | S(rot)=       0.01268155 Eh      7.96 kcal/mol|
|  sn= 4 | S(rot)=       0.01240993 Eh      7.79 kcal/mol|
|  sn= 5 | S(rot)=       0.01219924 Eh      7.66 kcal/mol|
|  sn= 6 | S(rot)=       0.01202710 Eh      7.55 kcal/mol|
|  sn= 7 | S(rot)=       0.01188155 Eh      7.46 kcal/mol|
|  sn= 8 | S(rot)=       0.01175547 Eh      7.38 kcal/mol|
|  sn= 9 | S(rot)=       0.01164427 Eh      7.31 kcal/mol|

                             ****ORCA TERMINATED NORMALLY****
TOTAL RUN TIME: 0 days 0 hours 16 minutes 42 seconds 748 msec
