                         Program Version 6.0.1  -  RELEASE   -
|  1> ! pbe def2-sv(p) def2/J RI DEFGRID1 loosescf d4 GCP(DFT/SV(P)) printgap
|  2> %output
|  3>     printlevel normal
|  4> end
|  5> * xyz 0 1
|  6> C 1.9520369348 7.72127e-05 -0.7614612153
|  7> C 1.1122117792 -0.0001125705 0.5145147294
|  8> C 0.2383584986 1.2536200312 0.6290347612
|  9> C -0.9169517244 1.2518565884 -0.3681883103
| 10> C -1.7706318213 0.0001025161 -0.1946420472
| 11> C -0.9171239566 -1.2517886451 -0.3681977053
| 12> C 0.2382216094 -1.2537621167 0.6289877004
| 13> H 2.5892896344 0.881615985 -0.7915652305
| 14> H 2.5882377549 -0.8821950711 -0.7924893139
| 15> H 1.3294691143 0.0009339125 -1.6510491388
| 16> H 1.81013272 -0.0001468043 1.3614755484
| 17> H -0.1733885022 1.3010424681 1.6405961742
| 18> H 0.8542494449 2.1435268396 0.480364436
| 19> H -1.5293897617 2.1435942124 -0.2153043905
| 20> H -0.5294834102 1.2906031645 -1.3876544997
| 21> H -2.2124424101 0.0001373084 0.8050013591
| 22> H -2.5865537726 0.0001586346 -0.9209560992
| 23> H -1.5297182405 -2.1434067521 -0.2151853013
| 24> H -0.5297454631 -1.2906650574 -1.3876928309
| 25> H -0.1734304309 -1.3014551718 1.6405331708
| 26> H 0.8540064111 -2.1436604417 0.4800065996
| 27> *
| 28>
| 29>                          ****END OF INPUT****

CARTESIAN COORDINATES (ANGSTROEM)
---------------------------------
  C      1.952037    0.000077   -0.761461
  C      1.112212   -0.000113    0.514515
  C      0.238358    1.253620    0.629035
  C     -0.916952    1.251857   -0.368188
  C     -1.770632    0.000103   -0.194642
  C     -0.917124   -1.251789   -0.368198
  C      0.238222   -1.253762    0.628988
  H      2.589290    0.881616   -0.791565
  H      2.588238   -0.882195   -0.792489
  H      1.329469    0.000934   -1.651049
  H      1.810133   -0.000147    1.361476
  H     -0.173389    1.301042    1.640596
  H      0.854249    2.143527    0.480364
  H     -1.529390    2.143594   -0.215304
  H     -0.529483    1.290603   -1.387654
  H     -2.212442    0.000137    0.805001
  H     -2.586554    0.000159   -0.920956
  H     -1.529718   -2.143407   -0.215185
  H     -0.529745   -1.290665   -1.387693
  H     -0.173430   -1.301455    1.640533
  H      0.854006   -2.143660    0.480007

 Total Charge           Charge          ....    0
 Multiplicity           Mult            ....    1
 Number of Electrons    NEL             ....   56
 Basis Dimension        Dim             ....  126

ORBITAL ENERGIES
----------------

  NO   OCC          E(Eh)            E(eV)
   0   2.0000      -9.886531      -269.0262
   1   2.0000      -9.876179      -268.7445
   2   2.0000      -9.875985      -268.7392
   3   2.0000      -9.875964      -268.7386
   4   2.0000      -9.875280      -268.7200
   5   2.0000      -9.875264      -268.7196
   6   2.0000      -9.869202      -268.5546
   7   2.0000      -0.753169       -20.4948
   8   2.0000      -0.679828       -18.4991
   9   2.0000      -0.660340       -17.9688
  10   2.0000      -0.602410       -16.3924
  11   2.0000      -0.535991       -14.5851
  12   2.0000      -0.525977       -14.3126
  13   2.0000      -0.468351       -12.7445
  14   2.0000      -0.432970       -11.7817
  15   2.0000      -0.399024       -10.8580
  16   2.0000      -0.393872       -10.7178
  17   2.0000      -0.378187       -10.2910
  18   2.0000      -0.354348        -9.6423
  19   2.0000      -0.352596        -9.5946
  20   2.0000      -0.328172        -8.9300
  21   2.0000      -0.313293        -8.5251
  22   2.0000      -0.310482        -8.4487
  23   2.0000      -0.293733        -7.9929
  24   2.0000      -0.290254        -7.8982
  25   2.0000      -0.266924        -7.2634
  26   2.0000      -0.250798        -6.8246
  27   2.0000      -0.250275        -6.8103
  28   0.0000       0.029786         0.8105
  29   0.0000       0.048892         1.3304
  30   0.0000       0.068585         1.8663
  31   0.0000       0.077470         2.1081
  32   0.0000       0.093897         2.5551

MULLIKEN ATOMIC CHARGES
-----------------------
   0 C :   -0.263058
   1 C :   -0.156156
   2 C :   -0.123654
   3 C :   -0.160290
   4 C :   -0.153471
   5 C :   -0.160309
   6 C :   -0.123611
   7 H :    0.096913
   8 H :    0.096905
   9 H :    0.105794
  10 H :    0.064172
  11 H :    0.071686
  12 H :    0.077665
  13 H :    0.082443
  14 H :    0.079788
  15 H :    0.071289
  16 H :    0.082317
  17 H :    0.082443
  18 H :    0.079782
  19 H :    0.071693
  20 H :    0.077660
Sum of atomic charges:   -0.0000000

LOEWDIN ATOMIC CHARGES
----------------------
   0 C :   -0.332728
   1 C :   -0.152576
   2 C :   -0.217500
   3 C :   -0.228212
   4 C :   -0.225456
   5 C :   -0.228208
   6 C :   -0.217509
   7 H :    0.118159
   8 H :    0.118147
   9 H :    0.114024
  10 H :    0.113828
  11 H :    0.113161
  12 H :    0.112988
  13 H :    0.115835
  14 H :    0.113605
  15 H :    0.112433
  16 H :    0.114399
  17 H :    0.115834
  18 H :    0.113610
  19 H :    0.113170
  20 H :    0.112993

  Mayer bond orders larger than 0.100000
B(  0-C ,  1-C ) :   1.1047 B(  0-C ,  7-H ) :   0.9491 B(  0-C ,  8-H ) :   0.9491
B(  0-C ,  9-H ) :   0.9429 B(  1-C ,  2-C ) :   1.0893 B(  1-C ,  6-C ) :   1.0893
B(  1-C , 10-H ) :   0.8961 B(  2-C ,  3-C ) :   1.1289 B(  2-C , 11-H ) :   0.9135
B(  2-C , 12-H ) :   0.9189 B(  3-C ,  4-C ) :   1.1314 B(  3-C , 13-H ) :   0.9184
B(  3-C , 14-H ) :   0.9156 B(  4-C ,  5-C ) :   1.1314 B(  4-C , 15-H ) :   0.9148
B(  4-C , 16-H ) :   0.9203 B(  5-C ,  6-C ) :   1.1289 B(  5-C , 17-H ) :   0.9184
B(  5-C , 18-H ) :   0.9156 B(  6-C , 19-H ) :   0.9135 B(  6-C , 20-H ) :   0.9189

Dispersion correction           -0.019046115
FINAL SINGLE POINT ENERGY      -274.489402883429

DIPOLE MOMENT
-------------

Method             : SCF
Type of density    : Electron Density
Multiplicity       :   1
Irrep              :   0
Energy             :  -274.5603573543103266 Eh
Relativity type    :
Basis              : AO
                                X                 Y                 Z
Electronic contribution:     -0.708168946      -0.000090075       0.904933153
Nuclear contribution   :      0.714160748       0.000078080      -0.894932033
                        -----------------------------------------
Total Dipole Moment    :      0.005991802      -0.000011995       0.010001119
                        -----------------------------------------
Magnitude (a.u.)       :      0.011658654
Magnitude (Debye)      :      0.029633943

Rotational constants in cm-1:             0.118098             0.085334             0.065003
Rotational constants in MHz :          3540.483510          2558.259094          1948.733032

                             ****ORCA TERMINATED NORMALLY****
TOTAL RUN TIME: 0 days 0 hours 0 minutes 12 seconds 609 msec
