                         Program Version 6.0.0  -   RELEASE  -
|  1> ! r2SCAN-3c DEF2-TZVP FREQ
|  2> * xyzfile 0 1 censo.xyz
|  3>
|  4>                          ****END OF INPUT****

CARTESIAN COORDINATES (ANGSTROEM)
---------------------------------
  C      2.364245   -1.394768    0.001212
  C      1.170886   -0.696677    0.002876
  C      1.170886    0.696677    0.002936
  C      2.364245    1.394767    0.001422
  C      3.568779    0.697150   -0.000109
  C      3.568779   -0.697150   -0.000241
  Cl     5.058548   -1.601924   -0.002272
  Cl     5.058548    1.601926   -0.001899
  O     -0.000001    1.432575    0.004648
  C     -1.170888    0.696678    0.002894
  C     -2.364248    1.394768    0.001248
  C     -3.568780    0.697149   -0.000207
  C     -3.568781   -0.697151   -0.000099
  C     -2.364248   -1.394767    0.001414
  C     -1.170888   -0.696676    0.002932
  O     -0.000001   -1.432574    0.004626
  Cl    -5.058548   -1.601925   -0.001892
  Cl    -5.058551    1.601925   -0.002200
  H      2.347268   -2.478465    0.001138
  H      2.347268    2.478465    0.001527
  H     -2.347271    2.478466    0.001194
  H     -2.347270   -2.478464    0.001503

 Total Charge           Charge          ....    0
 Multiplicity           Mult            ....    1
 Number of Electrons    NEL             ....  160
 Basis Dimension        Dim             ....  606

ORBITAL ENERGIES
----------------

  NO   OCC          E(Eh)            E(eV)
   0   2.0000    -101.208116     -2754.0129
   1   2.0000    -101.208116     -2754.0129
   2   2.0000    -101.208111     -2754.0127
   3   2.0000    -101.208109     -2754.0127
   4   2.0000     -19.041164      -518.1364
   5   2.0000     -19.041151      -518.1361
   6   2.0000     -10.136898      -275.8390
   7   2.0000     -10.136889      -275.8388
   8   2.0000     -10.136476      -275.8275
   9   2.0000     -10.136464      -275.8272
  10   2.0000     -10.126684      -275.5611
  11   2.0000     -10.126683      -275.5611
  12   2.0000     -10.126265      -275.5497
  13   2.0000     -10.126265      -275.5497
  14   2.0000     -10.076351      -274.1915
  15   2.0000     -10.076348      -274.1914
  16   2.0000     -10.076338      -274.1911
  17   2.0000     -10.076334      -274.1910
  18   2.0000      -9.383835      -255.3471
  19   2.0000      -9.383835      -255.3471
  20   2.0000      -9.383830      -255.3470
  21   2.0000      -9.383829      -255.3470
  22   2.0000      -7.129060      -193.9916
  23   2.0000      -7.129060      -193.9916
  24   2.0000      -7.129058      -193.9915
  25   2.0000      -7.129058      -193.9915
  26   2.0000      -7.118736      -193.7106
  27   2.0000      -7.118735      -193.7106
  28   2.0000      -7.118735      -193.7106
  29   2.0000      -7.118735      -193.7106
  30   2.0000      -7.118090      -193.6931
  31   2.0000      -7.118090      -193.6931
  32   2.0000      -7.118089      -193.6931
  33   2.0000      -7.118089      -193.6931
  34   2.0000      -1.104008       -30.0416
  35   2.0000      -1.071071       -29.1453
  36   2.0000      -0.901134       -24.5211
  37   2.0000      -0.893145       -24.3037
  38   2.0000      -0.841295       -22.8928
  39   2.0000      -0.834162       -22.6987
  40   2.0000      -0.832935       -22.6653
  41   2.0000      -0.809451       -22.0263
  42   2.0000      -0.768165       -20.9028
  43   2.0000      -0.731871       -19.9152
  44   2.0000      -0.731379       -19.9018
  45   2.0000      -0.699029       -19.0215
  46   2.0000      -0.645814       -17.5735
  47   2.0000      -0.639373       -17.3982
  48   2.0000      -0.613435       -16.6924
  49   2.0000      -0.580966       -15.8089
  50   2.0000      -0.554832       -15.0977
  51   2.0000      -0.526413       -14.3244
  52   2.0000      -0.495728       -13.4894
  53   2.0000      -0.479492       -13.0476
  54   2.0000      -0.476478       -12.9656
  55   2.0000      -0.474948       -12.9240
  56   2.0000      -0.454802       -12.3758
  57   2.0000      -0.450165       -12.2496
  58   2.0000      -0.440993       -12.0000
  59   2.0000      -0.414207       -11.2711
  60   2.0000      -0.414165       -11.2700
  61   2.0000      -0.413067       -11.2401
  62   2.0000      -0.409853       -11.1527
  63   2.0000      -0.406305       -11.0561
  64   2.0000      -0.392748       -10.6872
  65   2.0000      -0.390182       -10.6174
  66   2.0000      -0.385890       -10.5006
  67   2.0000      -0.339627        -9.2417
  68   2.0000      -0.337133        -9.1739
  69   2.0000      -0.335668        -9.1340
  70   2.0000      -0.332630        -9.0513
  71   2.0000      -0.312322        -8.4987
  72   2.0000      -0.310929        -8.4608
  73   2.0000      -0.292732        -7.9656
  74   2.0000      -0.291807        -7.9405
  75   2.0000      -0.290804        -7.9132
  76   2.0000      -0.268554        -7.3077
  77   2.0000      -0.248009        -6.7487
  78   2.0000      -0.244849        -6.6627
  79   2.0000      -0.205205        -5.5839
  80   0.0000      -0.073060        -1.9881
  81   0.0000      -0.071376        -1.9422
  82   0.0000      -0.068639        -1.8678
  83   0.0000      -0.042848        -1.1660
  84   0.0000      -0.035537        -0.9670

MULLIKEN ATOMIC CHARGES
-----------------------
   0 C :   -0.342508
   1 C :    0.250960
   2 C :    0.251119
   3 C :   -0.342595
   4 C :    0.159326
   5 C :    0.159319
   6 Cl:   -0.078365
   7 Cl:   -0.078366
   8 O :   -0.240977
   9 C :    0.251117
  10 C :   -0.342625
  11 C :    0.159314
  12 C :    0.159296
  13 C :   -0.342549
  14 C :    0.251043
  15 O :   -0.240977
  16 Cl:   -0.078361
  17 Cl:   -0.078365
  18 H :    0.131054
  19 H :    0.131046
  20 H :    0.131044
  21 H :    0.131050
Sum of atomic charges:    0.0000000

LOEWDIN ATOMIC CHARGES
----------------------
   0 C :   -0.105181
   1 C :   -0.198662
   2 C :   -0.198661
   3 C :   -0.105182
   4 C :   -0.435445
   5 C :   -0.435445
   6 Cl:    0.411481
   7 Cl:    0.411482
   8 O :    0.332668
   9 C :   -0.198661
  10 C :   -0.105182
  11 C :   -0.435443
  12 C :   -0.435448
  13 C :   -0.105181
  14 C :   -0.198661
  15 O :    0.332668
  16 Cl:    0.411485
  17 Cl:    0.411479
  18 H :    0.161472
  19 H :    0.161472
  20 H :    0.161472
  21 H :    0.161472

  Mayer bond orders larger than 0.100000
B(  0-C ,  1-C ) :   1.3551 B(  0-C ,  5-C ) :   1.3243 B(  0-C , 18-H ) :   0.9829
B(  1-C ,  2-C ) :   1.3646 B(  1-C , 15-O ) :   0.9844 B(  2-C ,  3-C ) :   1.3551
B(  2-C ,  8-O ) :   0.9844 B(  3-C ,  4-C ) :   1.3242 B(  3-C , 19-H ) :   0.9829
B(  4-C ,  5-C ) :   1.2765 B(  4-C ,  7-Cl) :   1.0460 B(  5-C ,  6-Cl) :   1.0460
B(  8-O ,  9-C ) :   0.9844 B(  9-C , 10-C ) :   1.3550 B(  9-C , 14-C ) :   1.3647
B( 10-C , 11-C ) :   1.3242 B( 10-C , 20-H ) :   0.9829 B( 11-C , 12-C ) :   1.2765
B( 11-C , 17-Cl) :   1.0460 B( 12-C , 13-C ) :   1.3243 B( 12-C , 16-Cl) :   1.0460
B( 13-C , 14-C ) :   1.3551 B( 13-C , 21-H ) :   0.9829 B( 14-C , 15-O ) :   0.9843

Dispersion correction           -0.012402217
FINAL SINGLE POINT ENERGY     -2450.782508965843

DIPOLE MOMENT
-------------

Method             : SCF
Type of density    : Electron Density
Multiplicity       :   1
Irrep              :   0
Energy             : -2450.7814305004849302 Eh
Relativity type    :
Basis              : AO
                                X                 Y                 Z
Electronic contribution:      0.000001343      -0.000003296      -0.015787373
Nuclear contribution   :     -0.000002673      -0.000001285       0.016536521
                        -----------------------------------------
Total Dipole Moment    :     -0.000001330      -0.000004580       0.000749149
                        -----------------------------------------
Magnitude (a.u.)       :      0.000749164
Magnitude (Debye)      :      0.001904223

VIBRATIONAL FREQUENCIES
-----------------------

Scaling factor for frequencies =  1.000000000  (already applied!)

     0:       0.00 cm**-1
     1:       0.00 cm**-1
     2:       0.00 cm**-1
     3:       0.00 cm**-1
     4:       0.00 cm**-1
     5:       0.00 cm**-1
     6:      33.74 cm**-1
     7:      56.86 cm**-1
     8:     116.81 cm**-1
     9:     121.93 cm**-1
    10:     149.50 cm**-1
    11:     183.29 cm**-1
    12:     187.95 cm**-1
    13:     203.49 cm**-1
    14:     226.10 cm**-1
    15:     234.58 cm**-1
    16:     255.27 cm**-1
    17:     294.27 cm**-1
    18:     328.09 cm**-1
    19:     383.80 cm**-1
    20:     391.61 cm**-1
    21:     393.57 cm**-1
    22:     440.68 cm**-1
    23:     452.31 cm**-1
    24:     457.67 cm**-1
    25:     495.79 cm**-1
    26:     543.76 cm**-1
    27:     560.24 cm**-1
    28:     638.90 cm**-1
    29:     640.16 cm**-1
    30:     648.09 cm**-1
    31:     657.43 cm**-1
    32:     668.69 cm**-1
    33:     690.70 cm**-1
    34:     694.39 cm**-1
    35:     754.50 cm**-1
    36:     797.45 cm**-1
    37:     847.23 cm**-1
    38:     854.03 cm**-1
    39:     880.69 cm**-1
    40:     882.04 cm**-1
    41:     889.09 cm**-1
    42:     920.62 cm**-1
    43:     976.53 cm**-1
    44:    1111.74 cm**-1
    45:    1116.76 cm**-1
    46:    1158.32 cm**-1
    47:    1178.91 cm**-1
    48:    1237.20 cm**-1
    49:    1243.46 cm**-1
    50:    1252.38 cm**-1
    51:    1305.78 cm**-1
    52:    1332.19 cm**-1
    53:    1352.64 cm**-1
    54:    1382.06 cm**-1
    55:    1416.25 cm**-1
    56:    1487.79 cm**-1
    57:    1504.65 cm**-1
    58:    1602.20 cm**-1
    59:    1604.57 cm**-1
    60:    1639.11 cm**-1
    61:    1657.64 cm**-1
    62:    3199.51 cm**-1
    63:    3199.63 cm**-1
    64:    3200.33 cm**-1
    65:    3200.53 cm**-1

IR SPECTRUM
-----------

 Mode   freq       eps      Int      T**2         TX        TY        TZ
       cm**-1   L/(mol*cm) km/mol    a.u.
----------------------------------------------------------------------------
  6:     33.74   0.000018    0.09  0.000163  (-0.000001  0.000001 -0.012783)
  7:     56.86   0.000000    0.00  0.000000  (-0.000000  0.000000  0.000020)
  8:    116.81   0.000009    0.04  0.000023  ( 0.000000 -0.004782 -0.000000)
  9:    121.93   0.000000    0.00  0.000000  (-0.000010  0.000255 -0.000001)
 10:    149.50   0.000000    0.00  0.000000  ( 0.000244  0.000007  0.000000)
 11:    183.29   0.000107    0.54  0.000182  (-0.000000 -0.000001 -0.013478)
 12:    187.95   0.000000    0.00  0.000000  (-0.000000  0.000000 -0.000172)
 13:    203.49   0.000065    0.33  0.000100  (-0.010002  0.000000  0.000000)
 14:    226.10   0.000000    0.00  0.000000  (-0.000001  0.000001 -0.000001)
 15:    234.58   0.000000    0.00  0.000000  ( 0.000000 -0.000000 -0.000002)
 16:    255.27   0.000000    0.00  0.000000  ( 0.000000  0.000000  0.000027)
 17:    294.27   0.000000    0.00  0.000000  (-0.000003 -0.000070  0.000001)
 18:    328.09   0.000003    0.01  0.000003  (-0.000000  0.001617 -0.000000)
 19:    383.80   0.000000    0.00  0.000000  (-0.000221 -0.000003 -0.000001)
 20:    391.61   0.000000    0.00  0.000000  (-0.000001 -0.000000 -0.000020)
 21:    393.57   0.000384    1.94  0.000304  ( 0.000000  0.000002  0.017444)
 22:    440.68   0.004653   23.52  0.003295  (-0.057404  0.000001  0.000000)
 23:    452.31   0.000000    0.00  0.000000  (-0.000115 -0.000021  0.000001)
 24:    457.67   0.001552    7.84  0.001058  (-0.000000 -0.000001 -0.032532)
 25:    495.79   0.002578   13.03  0.001623  (-0.000000 -0.040282 -0.000000)
 26:    543.76   0.000000    0.00  0.000000  ( 0.000000  0.000000 -0.000003)
 27:    560.24   0.000000    0.00  0.000000  (-0.000000 -0.000000  0.000103)
 28:    638.90   0.000000    0.00  0.000000  (-0.000002  0.000002  0.000012)
 29:    640.16   0.000000    0.00  0.000000  ( 0.000004  0.000054 -0.000000)
 30:    648.09   0.000000    0.00  0.000000  ( 0.000001  0.000000  0.000006)
 31:    657.43   0.000000    0.00  0.000000  ( 0.000000  0.000000 -0.000124)
 32:    668.69   0.000000    0.00  0.000000  ( 0.000002 -0.000000  0.000009)
 33:    690.70   0.004592   23.20  0.002074  (-0.045547  0.000000  0.000000)
 34:    694.39   0.000000    0.00  0.000000  ( 0.000057 -0.000237 -0.000001)
 35:    754.50   0.000000    0.00  0.000000  ( 0.000000 -0.000000  0.000038)
 36:    797.45   0.006097   30.81  0.002386  (-0.000001  0.048847  0.000001)
 37:    847.23   0.000000    0.00  0.000000  ( 0.000000  0.000001 -0.000003)
 38:    854.03   0.000000    0.00  0.000000  (-0.000004 -0.000087 -0.000000)
 39:    880.69   0.000000    0.00  0.000000  ( 0.000135 -0.000016 -0.000005)
 40:    882.04   0.014557   73.56  0.005150  ( 0.000001 -0.000001 -0.071764)
 41:    889.09   0.047362  239.35  0.016624  (-0.128933  0.000000 -0.000000)
 42:    920.62   0.005338   26.97  0.001809  (-0.000001 -0.042536 -0.000001)
 43:    976.53   0.000000    0.00  0.000000  ( 0.000000 -0.000000  0.000009)
 44:   1111.74   0.046909  237.06  0.013167  (-0.114748  0.000000  0.000001)
 45:   1116.76   0.000000    0.00  0.000000  ( 0.000004 -0.000000  0.000075)
 46:   1158.32   0.000000    0.00  0.000000  (-0.000000  0.000000  0.000001)
 47:   1178.91   0.013486   68.15  0.003570  (-0.000000 -0.059747 -0.000001)
 48:   1237.20   0.000000    0.00  0.000000  ( 0.000000  0.000000 -0.000000)
 49:   1243.46   0.000000    0.00  0.000000  ( 0.000000  0.000000 -0.000048)
 50:   1252.38   0.002391   12.08  0.000596  (-0.000000  0.024410  0.000000)
 51:   1305.78   0.087278  441.07  0.020858  (-0.144423 -0.000000  0.000000)
 52:   1332.19   0.033536  169.48  0.007856  ( 0.088632 -0.000000 -0.000000)
 53:   1352.64   0.000000    0.00  0.000000  ( 0.000001 -0.000000  0.000044)
 54:   1382.06   0.000000    0.00  0.000000  (-0.000000 -0.000000 -0.000001)
 55:   1416.25   0.004669   23.59  0.001029  (-0.000000  0.032074  0.000000)
 56:   1487.79   0.229039  1157.47  0.048041  (-0.219183 -0.000000  0.000001)
 57:   1504.65   0.000000    0.00  0.000000  (-0.000001 -0.000000 -0.000145)
 58:   1602.20   0.013609   68.78  0.002651  (-0.051485 -0.000000  0.000000)
 59:   1604.57   0.000000    0.00  0.000000  (-0.000004 -0.000000 -0.000006)
 60:   1639.11   0.000000    0.00  0.000000  ( 0.000000  0.000000  0.000014)
 61:   1657.64   0.000561    2.83  0.000106  ( 0.000000 -0.010276 -0.000000)
 62:   3199.51   0.000000    0.00  0.000000  (-0.000002  0.000071  0.000001)
 63:   3199.63   0.001312    6.63  0.000128  ( 0.000011 -0.011310 -0.000000)
 64:   3200.33   0.000291    1.47  0.000028  (-0.005326 -0.000022  0.000000)
 65:   3200.53   0.000000    0.00  0.000000  (-0.000020  0.000004 -0.000006)

--------------------------
THERMOCHEMISTRY AT 298.15K
--------------------------

Temperature         ...   298.15 K
Pressure            ...     1.00 atm
Total Mass          ...   321.97 AMU
Quasi RRHO          ...     True
Cut-Off Frequency   ...     1.00 cm^-1

Throughout the following assumptions are being made:
  (1) The electronic state is orbitally nondegenerate
  (2) There are no thermally accessible electronically excited states
  (3) Hindered rotations indicated by low frequency modes are not
      treated as such but are treated as vibrations and this may
      cause some error
  (4) All equations used are the standard statistical mechanics
      equations for an ideal gas
  (5) All vibrations are strictly harmonic

freq.      33.74  E(vib)   ...       0.55
freq.      56.86  E(vib)   ...       0.51
freq.     116.81  E(vib)   ...       0.44
freq.     121.93  E(vib)   ...       0.44
freq.     149.50  E(vib)   ...       0.40
freq.     183.29  E(vib)   ...       0.37
freq.     187.95  E(vib)   ...       0.36
freq.     203.49  E(vib)   ...       0.35
freq.     226.10  E(vib)   ...       0.33
freq.     234.58  E(vib)   ...       0.32
freq.     255.27  E(vib)   ...       0.30
freq.     294.27  E(vib)   ...       0.27
freq.     328.09  E(vib)   ...       0.24
freq.     383.80  E(vib)   ...       0.20
freq.     391.61  E(vib)   ...       0.20
freq.     393.57  E(vib)   ...       0.20
freq.     440.68  E(vib)   ...       0.17
freq.     452.31  E(vib)   ...       0.16
freq.     457.67  E(vib)   ...       0.16
freq.     495.79  E(vib)   ...       0.14
freq.     543.76  E(vib)   ...       0.12
freq.     560.24  E(vib)   ...       0.11
freq.     638.90  E(vib)   ...       0.09
freq.     640.16  E(vib)   ...       0.09
freq.     648.09  E(vib)   ...       0.08
freq.     657.43  E(vib)   ...       0.08
freq.     668.69  E(vib)   ...       0.08
freq.     690.70  E(vib)   ...       0.07
freq.     694.39  E(vib)   ...       0.07
freq.     754.50  E(vib)   ...       0.06
freq.     797.45  E(vib)   ...       0.05
freq.     847.23  E(vib)   ...       0.04
freq.     854.03  E(vib)   ...       0.04
freq.     880.69  E(vib)   ...       0.04
freq.     882.04  E(vib)   ...       0.04
freq.     889.09  E(vib)   ...       0.04
freq.     920.62  E(vib)   ...       0.03
freq.     976.53  E(vib)   ...       0.03
freq.    1111.74  E(vib)   ...       0.01
freq.    1116.76  E(vib)   ...       0.01
freq.    1158.32  E(vib)   ...       0.01
freq.    1178.91  E(vib)   ...       0.01
freq.    1237.20  E(vib)   ...       0.01
freq.    1243.46  E(vib)   ...       0.01
freq.    1252.38  E(vib)   ...       0.01
freq.    1305.78  E(vib)   ...       0.01
freq.    1332.19  E(vib)   ...       0.01
freq.    1352.64  E(vib)   ...       0.01
freq.    1382.06  E(vib)   ...       0.01
freq.    1416.25  E(vib)   ...       0.00
freq.    1487.79  E(vib)   ...       0.00
freq.    1504.65  E(vib)   ...       0.00
freq.    1602.20  E(vib)   ...       0.00
freq.    1604.57  E(vib)   ...       0.00
freq.    1639.11  E(vib)   ...       0.00
freq.    1657.64  E(vib)   ...       0.00
freq.    3199.51  E(vib)   ...       0.00
freq.    3199.63  E(vib)   ...       0.00
freq.    3200.33  E(vib)   ...       0.00
freq.    3200.53  E(vib)   ...       0.00

------------
INNER ENERGY
------------

The inner energy is: U= E(el) + E(ZPE) + E(vib) + E(rot) + E(trans)
    E(el)   - is the total energy from the electronic structure calculation
              = E(kin-el) + E(nuc-el) + E(el-el) + E(nuc-nuc)
    E(ZPE)  - the the zero temperature vibrational energy from the frequency calculation
    E(vib)  - the the finite temperature correction to E(ZPE) due to population
              of excited vibrational states
    E(rot)  - is the rotational thermal energy
    E(trans)- is the translational thermal energy

Summary of contributions to the inner energy U:
Electronic energy                ...  -2450.78250897 Eh
Zero point energy                ...      0.12834162 Eh      80.54 kcal/mol
Thermal vibrational correction   ...      0.01179014 Eh       7.40 kcal/mol
Thermal rotational correction    ...      0.00141627 Eh       0.89 kcal/mol
Thermal translational correction ...      0.00141627 Eh       0.89 kcal/mol
-----------------------------------------------------------------------
Total thermal energy                  -2450.63954466 Eh

Summary of corrections to the electronic energy:
(perhaps to be used in another calculation)
Total thermal correction                  0.01462269 Eh       9.18 kcal/mol
Non-thermal (ZPE) correction              0.12834162 Eh      80.54 kcal/mol
-----------------------------------------------------------------------
Total correction                          0.14296431 Eh      89.71 kcal/mol

--------
ENTHALPY
--------

The enthalpy is H = U + kB*T
                kB is Boltzmann's constant
Total thermal energy              ...  -2450.63954466 Eh
Thermal Enthalpy correction       ...      0.00094421 Eh       0.59 kcal/mol
-----------------------------------------------------------------------
Total Enthalpy                    ...  -2450.63860045 Eh

WARNING (ORCA/SYM): A non-planar off-center atom subset has been encountered
in function TSymmetryFinder::FilterSubsetShapes() which cannot occur under
regular conditions. The full point group may not be assigned correctly. If the
symmetry appears to be too low, please try increasing the cleaning tolerance
using option SymThresh in the %symmetry input block. If the problem persists,
you may post a message in the ORCA forum.

WARNING (ORCA/SYM): A non-planar off-center atom subset has been encountered
in function TSymmetryFinder::FilterSubsetShapes() which cannot occur under
regular conditions. The full point group may not be assigned correctly. If the
symmetry appears to be too low, please try increasing the cleaning tolerance
using option SymThresh in the %symmetry input block. If the problem persists,
you may post a message in the ORCA forum.

WARNING (ORCA/SYM): A non-planar off-center atom subset has been encountered
in function TSymmetryFinder::FilterSubsetShapes() which cannot occur under
regular conditions. The full point group may not be assigned correctly. If the
symmetry appears to be too low, please try increasing the cleaning tolerance
using option SymThresh in the %symmetry input block. If the problem persists,
you may post a message in the ORCA forum.

WARNING (ORCA/SYM): A non-planar off-center atom subset has been encountered
in function TSymmetryFinder::FilterSubsetShapes() which cannot occur under
regular conditions. The full point group may not be assigned correctly. If the
symmetry appears to be too low, please try increasing the cleaning tolerance
using option SymThresh in the %symmetry input block. If the problem persists,
you may post a message in the ORCA forum.

Note: Rotational entropy computed according to Herzberg
Infrared and Raman Spectra, Chapter V,1, Van Nostrand Reinhold, 1945
Point Group:  C2, Symmetry Number:   2
Rotational constants in cm-1:     0.028357     0.003667     0.003247

Vibrational entropy computed according to the QRRHO of S. Grimme
Chem.Eur.J. 2012 18 9955 using a reference frequency of 100.0 cm-1

-------

                             ****ORCA TERMINATED NORMALLY****
TOTAL RUN TIME: 0 days 0 hours 40 minutes 31 seconds 501 msec
