                         Program Version 6.0.0  -   RELEASE  -
|  1> ! r2SCAN-3c DEF2-TZVP FREQ
|  2> * xyzfile 0 1 vacuum_censo.xyz
|  3>
|  4>                          ****END OF INPUT****

CARTESIAN COORDINATES (ANGSTROEM)
---------------------------------
  C      2.362785   -1.391518   -0.000037
  C      1.166535   -0.697294   -0.000077
  C      1.166535    0.697299   -0.000080
  C      2.362785    1.391523   -0.000037
  C      3.570671    0.697770    0.000003
  C      3.570671   -0.697764    0.000000
  Cl     5.053985   -1.602622    0.000047
  Cl     5.053984    1.602629    0.000057
  O     -0.000000    1.430111   -0.000130
  C     -1.166535    0.697298   -0.000083
  C     -2.362786    1.391522   -0.000048
  C     -3.570671    0.697768   -0.000004
  C     -3.570671   -0.697766    0.000009
  C     -2.362785   -1.391519   -0.000025
  C     -1.166535   -0.697295   -0.000074
  O      0.000000   -1.430107   -0.000116
  Cl    -5.053984   -1.602624    0.000069
  Cl    -5.053985    1.602626    0.000036
  H      2.348844   -2.474583   -0.000037
  H      2.348843    2.474588   -0.000036
  H     -2.348844    2.474587   -0.000056
  H     -2.348843   -2.474584   -0.000015

 Total Charge           Charge          ....    0
 Multiplicity           Mult            ....    1
 Number of Electrons    NEL             ....  160
 Basis Dimension        Dim             ....  606

ORBITAL ENERGIES
----------------

  NO   OCC          E(Eh)            E(eV)
   0   2.0000    -101.208244     -2754.0163
   1   2.0000    -101.208244     -2754.0163
   2   2.0000    -101.208239     -2754.0162
   3   2.0000    -101.208238     -2754.0162
   4   2.0000     -19.041746      -518.1523
   5   2.0000     -19.041733      -518.1519
   6   2.0000     -10.136684      -275.8332
   7   2.0000     -10.136674      -275.8329
   8   2.0000     -10.136266      -275.8218
   9   2.0000     -10.136254      -275.8215
  10   2.0000     -10.125949      -275.5411
  11   2.0000     -10.125948      -275.5411
  12   2.0000     -10.125535      -275.5298
  13   2.0000     -10.125535      -275.5298
  14   2.0000     -10.075617      -274.1715
  15   2.0000     -10.075614      -274.1714
  16   2.0000     -10.075604      -274.1711
  17   2.0000     -10.075600      -274.1710
  18   2.0000      -9.384034      -255.3526
  19   2.0000      -9.384034      -255.3526
  20   2.0000      -9.384029      -255.3524
  21   2.0000      -9.384028      -255.3524
  22   2.0000      -7.129233      -193.9963
  23   2.0000      -7.129233      -193.9963
  24   2.0000      -7.129231      -193.9962
  25   2.0000      -7.129231      -193.9962
  26   2.0000      -7.118940      -193.7162
  27   2.0000      -7.118940      -193.7162
  28   2.0000      -7.118939      -193.7162
  29   2.0000      -7.118939      -193.7162
  30   2.0000      -7.118289      -193.6985
  31   2.0000      -7.118289      -193.6985
  32   2.0000      -7.118289      -193.6985
  33   2.0000      -7.118289      -193.6985
  34   2.0000      -1.107412       -30.1342
  35   2.0000      -1.074388       -29.2356
  36   2.0000      -0.901120       -24.5207
  37   2.0000      -0.893439       -24.3117
  38   2.0000      -0.841870       -22.9084
  39   2.0000      -0.835209       -22.7272
  40   2.0000      -0.834047       -22.6956
  41   2.0000      -0.809254       -22.0209
  42   2.0000      -0.768274       -20.9058
  43   2.0000      -0.731411       -19.9027
  44   2.0000      -0.730960       -19.8904
  45   2.0000      -0.698707       -19.0128
  46   2.0000      -0.646769       -17.5995
  47   2.0000      -0.639230       -17.3943
  48   2.0000      -0.612753       -16.6739
  49   2.0000      -0.582248       -15.8438
  50   2.0000      -0.554686       -15.0938
  51   2.0000      -0.526852       -14.3364
  52   2.0000      -0.496758       -13.5175
  53   2.0000      -0.479103       -13.0371
  54   2.0000      -0.476494       -12.9661
  55   2.0000      -0.476354       -12.9623
  56   2.0000      -0.455408       -12.3923
  57   2.0000      -0.449252       -12.2248
  58   2.0000      -0.439775       -11.9669
  59   2.0000      -0.415762       -11.3135
  60   2.0000      -0.414244       -11.2722
  61   2.0000      -0.412817       -11.2333
  62   2.0000      -0.411850       -11.2070
  63   2.0000      -0.406562       -11.0631
  64   2.0000      -0.393179       -10.6990
  65   2.0000      -0.391082       -10.6419
  66   2.0000      -0.385298       -10.4845
  67   2.0000      -0.339741        -9.2448
  68   2.0000      -0.336343        -9.1524
  69   2.0000      -0.336164        -9.1475
  70   2.0000      -0.333246        -9.0681
  71   2.0000      -0.312050        -8.4913
  72   2.0000      -0.310641        -8.4530
  73   2.0000      -0.293166        -7.9774
  74   2.0000      -0.292224        -7.9518
  75   2.0000      -0.290516        -7.9053
  76   2.0000      -0.267935        -7.2909
  77   2.0000      -0.247408        -6.7323
  78   2.0000      -0.244097        -6.6422
  79   2.0000      -0.204471        -5.5640
  80   0.0000      -0.073120        -1.9897
  81   0.0000      -0.070719        -1.9244
  82   0.0000      -0.068072        -1.8523
  83   0.0000      -0.040582        -1.1043
  84   0.0000      -0.033615        -0.9147

MULLIKEN ATOMIC CHARGES
-----------------------
   0 C :   -0.342824
   1 C :    0.252184
   2 C :    0.252121
   3 C :   -0.342738
   4 C :    0.157450
   5 C :    0.157508
   6 Cl:   -0.076380
   7 Cl:   -0.076379
   8 O :   -0.241039
   9 C :    0.252117
  10 C :   -0.342729
  11 C :    0.157416
  12 C :    0.157479
  13 C :   -0.342774
  14 C :    0.252168
  15 O :   -0.241038
  16 Cl:   -0.076382
  17 Cl:   -0.076379
  18 H :    0.130045
  19 H :    0.130044
  20 H :    0.130064
  21 H :    0.130065
Sum of atomic charges:    0.0000000

LOEWDIN ATOMIC CHARGES
----------------------
   0 C :   -0.105501
   1 C :   -0.201604
   2 C :   -0.201604
   3 C :   -0.105501
   4 C :   -0.440537
   5 C :   -0.440537
   6 Cl:    0.417021
   7 Cl:    0.417021
   8 O :    0.339377
   9 C :   -0.201604
  10 C :   -0.105501
  11 C :   -0.440537
  12 C :   -0.440537
  13 C :   -0.105501
  14 C :   -0.201604
  15 O :    0.339377
  16 Cl:    0.417021
  17 Cl:    0.417021
  18 H :    0.160933
  19 H :    0.160933
  20 H :    0.160933
  21 H :    0.160933

  Mayer bond orders larger than 0.100000
B(  0-C ,  1-C ) :   1.3564 B(  0-C ,  5-C ) :   1.3237 B(  0-C , 18-H ) :   0.9829
B(  1-C ,  2-C ) :   1.3619 B(  1-C , 15-O ) :   0.9845 B(  2-C ,  3-C ) :   1.3564
B(  2-C ,  8-O ) :   0.9845 B(  3-C ,  4-C ) :   1.3237 B(  3-C , 19-H ) :   0.9829
B(  4-C ,  5-C ) :   1.2759 B(  4-C ,  7-Cl) :   1.0495 B(  5-C ,  6-Cl) :   1.0495
B(  8-O ,  9-C ) :   0.9845 B(  9-C , 10-C ) :   1.3565 B(  9-C , 14-C ) :   1.3620
B( 10-C , 11-C ) :   1.3238 B( 10-C , 20-H ) :   0.9828 B( 11-C , 12-C ) :   1.2759
B( 11-C , 17-Cl) :   1.0495 B( 12-C , 13-C ) :   1.3238 B( 12-C , 16-Cl) :   1.0495
B( 13-C , 14-C ) :   1.3565 B( 13-C , 21-H ) :   0.9828 B( 14-C , 15-O ) :   0.9845

Dispersion correction           -0.012411796
FINAL SINGLE POINT ENERGY     -2450.783027143828

DIPOLE MOMENT
-------------

Method             : SCF
Type of density    : Electron Density
Multiplicity       :   1
Irrep              :   0
Energy             : -2450.7819752393652379 Eh
Relativity type    :
Basis              : AO
                                X                 Y                 Z
Electronic contribution:     -0.000000249       0.000001027       0.000410755
Nuclear contribution   :     -0.000000118      -0.000000693      -0.000429587
                        -----------------------------------------
Total Dipole Moment    :     -0.000000368       0.000000334      -0.000018831
                        -----------------------------------------
Magnitude (a.u.)       :      0.000018838
Magnitude (Debye)      :      0.000047882

VIBRATIONAL FREQUENCIES
-----------------------

Scaling factor for frequencies =  1.000000000  (already applied!)

     0:       0.00 cm**-1
     1:       0.00 cm**-1
     2:       0.00 cm**-1
     3:       0.00 cm**-1
     4:       0.00 cm**-1
     5:       0.00 cm**-1
     6:      31.56 cm**-1
     7:      55.26 cm**-1
     8:     116.27 cm**-1
     9:     118.59 cm**-1
    10:     145.70 cm**-1
    11:     178.22 cm**-1
    12:     187.17 cm**-1
    13:     202.44 cm**-1
    14:     225.36 cm**-1
    15:     233.91 cm**-1
    16:     256.20 cm**-1
    17:     291.67 cm**-1
    18:     328.93 cm**-1
    19:     382.98 cm**-1
    20:     391.23 cm**-1
    21:     392.61 cm**-1
    22:     443.32 cm**-1
    23:     450.30 cm**-1
    24:     454.90 cm**-1
    25:     499.23 cm**-1
    26:     545.76 cm**-1
    27:     560.49 cm**-1
    28:     639.92 cm**-1
    29:     640.65 cm**-1
    30:     651.67 cm**-1
    31:     662.30 cm**-1
    32:     668.38 cm**-1
    33:     692.31 cm**-1
    34:     693.02 cm**-1
    35:     757.52 cm**-1
    36:     799.44 cm**-1
    37:     845.21 cm**-1
    38:     851.92 cm**-1
    39:     878.63 cm**-1
    40:     880.03 cm**-1
    41:     892.41 cm**-1
    42:     928.60 cm**-1
    43:     984.59 cm**-1
    44:    1114.91 cm**-1
    45:    1119.64 cm**-1
    46:    1171.98 cm**-1
    47:    1187.37 cm**-1
    48:    1238.19 cm**-1
    49:    1250.18 cm**-1
    50:    1254.80 cm**-1
    51:    1316.36 cm**-1
    52:    1328.47 cm**-1
    53:    1348.42 cm**-1
    54:    1382.39 cm**-1
    55:    1414.89 cm**-1
    56:    1492.30 cm**-1
    57:    1508.31 cm**-1
    58:    1597.78 cm**-1
    59:    1604.01 cm**-1
    60:    1635.30 cm**-1
    61:    1658.56 cm**-1
    62:    3205.06 cm**-1
    63:    3205.18 cm**-1
    64:    3205.92 cm**-1
    65:    3206.11 cm**-1

IR SPECTRUM
-----------

 Mode   freq       eps      Int      T**2         TX        TY        TZ
       cm**-1   L/(mol*cm) km/mol    a.u.
----------------------------------------------------------------------------
  6:     31.56   0.000022    0.11  0.000221  (-0.000001  0.000000 -0.014857)
  7:     55.26   0.000000    0.00  0.000000  (-0.000000  0.000000 -0.000000)
  8:    116.27   0.000009    0.04  0.000023  (-0.000000  0.004813 -0.000000)
  9:    118.59   0.000000    0.00  0.000000  (-0.000001 -0.000000  0.000000)
 10:    145.70   0.000000    0.00  0.000000  (-0.000009  0.000001  0.000000)
 11:    178.22   0.000095    0.48  0.000166  (-0.000000  0.000001 -0.012869)
 12:    187.17   0.000000    0.00  0.000000  ( 0.000000 -0.000000  0.000002)
 13:    202.44   0.000063    0.32  0.000097  (-0.009865  0.000000 -0.000000)
 14:    225.36   0.000000    0.00  0.000000  ( 0.000000  0.000001  0.000000)
 15:    233.91   0.000000    0.00  0.000000  (-0.000000  0.000000  0.000000)
 16:    256.20   0.000000    0.00  0.000000  ( 0.000000 -0.000000 -0.000001)
 17:    291.67   0.000000    0.00  0.000000  ( 0.000000  0.000001 -0.000000)
 18:    328.93   0.000001    0.00  0.000001  ( 0.000000 -0.000939 -0.000000)
 19:    382.98   0.000000    0.00  0.000000  ( 0.000006 -0.000000  0.000000)
 20:    391.23   0.000349    1.77  0.000279  ( 0.000000 -0.000002  0.016695)
 21:    392.61   0.000000    0.00  0.000000  (-0.000000  0.000000  0.000001)
 22:    443.32   0.004454   22.51  0.003135  (-0.055994  0.000000 -0.000000)
 23:    450.30   0.000000    0.00  0.000000  ( 0.000001 -0.000000 -0.000000)
 24:    454.90   0.001588    8.03  0.001089  ( 0.000000  0.000000 -0.033006)
 25:    499.23   0.002461   12.44  0.001539  ( 0.000000  0.039224 -0.000000)
 26:    545.76   0.000000    0.00  0.000000  ( 0.000000 -0.000000  0.000000)
 27:    560.49   0.000000    0.00  0.000000  ( 0.000000 -0.000000 -0.000003)
 28:    639.92   0.000000    0.00  0.000000  ( 0.000001  0.000002  0.000000)
 29:    640.65   0.000000    0.00  0.000000  (-0.000000 -0.000002 -0.000000)
 30:    651.67   0.000000    0.00  0.000000  ( 0.000000  0.000000  0.000000)
 31:    662.30   0.000000    0.00  0.000000  ( 0.000000  0.000000  0.000003)
 32:    668.38   0.000000    0.00  0.000000  (-0.000000 -0.000000 -0.000000)
 33:    692.31   0.004339   21.93  0.001956  ( 0.044222  0.000000 -0.000000)
 34:    693.02   0.000000    0.00  0.000000  ( 0.000016  0.000009  0.000000)
 35:    757.52   0.000000    0.00  0.000000  ( 0.000000  0.000000 -0.000001)
 36:    799.44   0.005901   29.82  0.002304  ( 0.000000 -0.047996  0.000000)
 37:    845.21   0.000000    0.00  0.000000  ( 0.000000  0.000001 -0.000000)
 38:    851.92   0.000000    0.00  0.000000  (-0.000000  0.000001 -0.000000)
 39:    878.63   0.000000    0.00  0.000000  (-0.000001 -0.000001 -0.000142)
 40:    880.03   0.014523   73.39  0.005150  ( 0.000000  0.000001 -0.071763)
 41:    892.41   0.043241  218.52  0.015121  ( 0.122967  0.000000  0.000000)
 42:    928.60   0.005695   28.78  0.001914  (-0.000000 -0.043749  0.000000)
 43:    984.59   0.000000    0.00  0.000000  ( 0.000000  0.000000 -0.000001)
 44:   1114.91   0.046753  236.27  0.013086  (-0.114395  0.000000  0.000000)
 45:   1119.64   0.000000    0.00  0.000000  ( 0.000002  0.000000 -0.000002)
 46:   1171.98   0.000000    0.00  0.000000  (-0.000000  0.000001  0.000000)
 47:   1187.37   0.012689   64.12  0.003335  ( 0.000000 -0.057748  0.000000)
 48:   1238.19   0.000000    0.00  0.000000  (-0.000000  0.000000  0.000000)
 49:   1250.18   0.000000    0.00  0.000000  (-0.000000  0.000000  0.000001)
 50:   1254.80   0.003062   15.47  0.000761  (-0.000000 -0.027595  0.000000)
 51:   1316.36   0.052625  265.95  0.012476  (-0.111694 -0.000000  0.000000)
 52:   1328.47   0.061889  312.76  0.014538  ( 0.120574  0.000000 -0.000000)
 53:   1348.42   0.000000    0.00  0.000000  (-0.000000 -0.000000 -0.000001)
 54:   1382.39   0.000000    0.00  0.000000  (-0.000000 -0.000000 -0.000000)
 55:   1414.89   0.004917   24.85  0.001084  ( 0.000000  0.032931 -0.000000)
 56:   1492.30   0.243421  1230.15  0.050903  (-0.225618 -0.000000  0.000000)
 57:   1508.31   0.000000    0.00  0.000000  (-0.000000  0.000000  0.000004)
 58:   1597.78   0.017215   87.00  0.003362  ( 0.057985  0.000000 -0.000000)
 59:   1604.01   0.000000    0.00  0.000000  (-0.000000 -0.000000 -0.000000)
 60:   1635.30   0.000000    0.00  0.000000  (-0.000000 -0.000000  0.000000)
 61:   1658.56   0.000505    2.55  0.000095  ( 0.000000 -0.009748 -0.000000)
 62:   3205.06   0.000000    0.00  0.000000  (-0.000001  0.000005  0.000000)
 63:   3205.18   0.001114    5.63  0.000108  (-0.000001 -0.010415  0.000000)
 64:   3205.92   0.000304    1.54  0.000030  (-0.005442  0.000002  0.000000)
 65:   3206.11   0.000000    0.00  0.000000  (-0.000001  0.000002  0.000000)

--------------------------
THERMOCHEMISTRY AT 298.15K
--------------------------

Temperature         ...   298.15 K
Pressure            ...     1.00 atm
Total Mass          ...   321.97 AMU
Quasi RRHO          ...     True
Cut-Off Frequency   ...     1.00 cm^-1

Throughout the following assumptions are being made:
  (1) The electronic state is orbitally nondegenerate
  (2) There are no thermally accessible electronically excited states
  (3) Hindered rotations indicated by low frequency modes are not
      treated as such but are treated as vibrations and this may
      cause some error
  (4) All equations used are the standard statistical mechanics
      equations for an ideal gas
  (5) All vibrations are strictly harmonic

freq.      31.56  E(vib)   ...       0.55
freq.      55.26  E(vib)   ...       0.52
freq.     116.27  E(vib)   ...       0.44
freq.     118.59  E(vib)   ...       0.44
freq.     145.70  E(vib)   ...       0.41
freq.     178.22  E(vib)   ...       0.37
freq.     187.17  E(vib)   ...       0.36
freq.     202.44  E(vib)   ...       0.35
freq.     225.36  E(vib)   ...       0.33
freq.     233.91  E(vib)   ...       0.32
freq.     256.20  E(vib)   ...       0.30
freq.     291.67  E(vib)   ...       0.27
freq.     328.93  E(vib)   ...       0.24
freq.     382.98  E(vib)   ...       0.20
freq.     391.23  E(vib)   ...       0.20
freq.     392.61  E(vib)   ...       0.20
freq.     443.32  E(vib)   ...       0.17
freq.     450.30  E(vib)   ...       0.17
freq.     454.90  E(vib)   ...       0.16
freq.     499.23  E(vib)   ...       0.14
freq.     545.76  E(vib)   ...       0.12
freq.     560.49  E(vib)   ...       0.11
freq.     639.92  E(vib)   ...       0.09
freq.     640.65  E(vib)   ...       0.09
freq.     651.67  E(vib)   ...       0.08
freq.     662.30  E(vib)   ...       0.08
freq.     668.38  E(vib)   ...       0.08
freq.     692.31  E(vib)   ...       0.07
freq.     693.02  E(vib)   ...       0.07
freq.     757.52  E(vib)   ...       0.06
freq.     799.44  E(vib)   ...       0.05
freq.     845.21  E(vib)   ...       0.04
freq.     851.92  E(vib)   ...       0.04
freq.     878.63  E(vib)   ...       0.04
freq.     880.03  E(vib)   ...       0.04
freq.     892.41  E(vib)   ...       0.03
freq.     928.60  E(vib)   ...       0.03
freq.     984.59  E(vib)   ...       0.02
freq.    1114.91  E(vib)   ...       0.01
freq.    1119.64  E(vib)   ...       0.01
freq.    1171.98  E(vib)   ...       0.01
freq.    1187.37  E(vib)   ...       0.01
freq.    1238.19  E(vib)   ...       0.01
freq.    1250.18  E(vib)   ...       0.01
freq.    1254.80  E(vib)   ...       0.01
freq.    1316.36  E(vib)   ...       0.01
freq.    1328.47  E(vib)   ...       0.01
freq.    1348.42  E(vib)   ...       0.01
freq.    1382.39  E(vib)   ...       0.01
freq.    1414.89  E(vib)   ...       0.00
freq.    1492.30  E(vib)   ...       0.00
freq.    1508.31  E(vib)   ...       0.00
freq.    1597.78  E(vib)   ...       0.00
freq.    1604.01  E(vib)   ...       0.00
freq.    1635.30  E(vib)   ...       0.00
freq.    1658.56  E(vib)   ...       0.00
freq.    3205.06  E(vib)   ...       0.00
freq.    3205.18  E(vib)   ...       0.00
freq.    3205.92  E(vib)   ...       0.00
freq.    3206.11  E(vib)   ...       0.00

------------
INNER ENERGY
------------

The inner energy is: U= E(el) + E(ZPE) + E(vib) + E(rot) + E(trans)
    E(el)   - is the total energy from the electronic structure calculation
              = E(kin-el) + E(nuc-el) + E(el-el) + E(nuc-nuc)
    E(ZPE)  - the the zero temperature vibrational energy from the frequency calculation
    E(vib)  - the the finite temperature correction to E(ZPE) due to population
              of excited vibrational states
    E(rot)  - is the rotational thermal energy
    E(trans)- is the translational thermal energy

Summary of contributions to the inner energy U:
Electronic energy                ...  -2450.78302714 Eh
Zero point energy                ...      0.12849967 Eh      80.63 kcal/mol
Thermal vibrational correction   ...      0.01181536 Eh       7.41 kcal/mol
Thermal rotational correction    ...      0.00141627 Eh       0.89 kcal/mol
Thermal translational correction ...      0.00141627 Eh       0.89 kcal/mol
-----------------------------------------------------------------------
Total thermal energy                  -2450.63987958 Eh

Summary of corrections to the electronic energy:
(perhaps to be used in another calculation)
Total thermal correction                  0.01464790 Eh       9.19 kcal/mol
Non-thermal (ZPE) correction              0.12849967 Eh      80.63 kcal/mol
-----------------------------------------------------------------------
Total correction                          0.14314757 Eh      89.83 kcal/mol

--------
ENTHALPY
--------

The enthalpy is H = U + kB*T
                kB is Boltzmann's constant
Total thermal energy              ...  -2450.63987958 Eh
Thermal Enthalpy correction       ...      0.00094421 Eh       0.59 kcal/mol
-----------------------------------------------------------------------
Total Enthalpy                    ...  -2450.63893537 Eh

Note: Rotational entropy computed according to Herzberg
Infrared and Raman Spectra, Chapter V,1, Van Nostrand Reinhold, 1945
Point Group:  C2v, Symmetry Number:   2
Rotational constants in cm-1:     0.028373     0.003672     0.003251

Vibrational entropy computed according to the QRRHO of S. Grimme
Chem.Eur.J. 2012 18 9955 using a reference frequency of 100.0 cm-1

-------
ENTROPY
-------

The entropy contributions are T*S = T*(S(el)+S(vib)+S(rot)+S(trans))
     S(el)   - electronic entropy
     S(vib)  - vibrational entropy
     S(rot)  - rotational entropy
     S(trans)- translational entropy
The entropies will be listed as multiplied by the temperature to get
units of energy

Electronic entropy                ...      0.00000000 Eh      0.00 kcal/mol
Vibrational entropy               ...      0.02028654 Eh     12.73 kcal/mol
Rotational entropy                ...      0.01588955 Eh      9.97 kcal/mol
Translational entropy             ...      0.02052729 Eh     12.88 kcal/mol
-----------------------------------------------------------------------
Final entropy term                ...      0.05670337 Eh     35.58 kcal/mol

In case the symmetry of your molecule has not been determined correctly
or in case you have a reason to use a different symmetry number we print
out the resulting rotational entropy values for sn=1,12:

 non-linear molecules -----------------------------------
|  sn= 1 | S(rot)=       0.01654400 Eh     10.38 kcal/mol|
|  sn= 2 | S(rot)=       0.01588955 Eh      9.97 kcal/mol|
|  sn= 3 | S(rot)=       0.01550671 Eh      9.73 kcal/mol|
|  sn= 4 | S(rot)=       0.01523509 Eh      9.56 kcal/mol|
|  sn= 5 | S(rot)=       0.01502440 Eh      9.43 kcal/mol|

                             ****ORCA TERMINATED NORMALLY****
TOTAL RUN TIME: 0 days 0 hours 39 minutes 50 seconds 714 msec
