                         Program Version 6.0.1  -  RELEASE   -
|  1> ! pbe def2-sv(p) def2/J RI DEFGRID1 loosescf d4 GCP(DFT/SV(P)) printgap
|  2> %output
|  3>     printlevel normal
|  4> end
|  5> * xyz 0 1
|  6> C -2.8580380111 -0.6731129478 0.299064487
|  7> C -1.629312721 -0.4513825683 -0.5920426734
|  8> H -1.9765348484 -0.4363128666 -1.6315821113
|  9> C -0.5877367132 -1.5620015219 -0.4246996899
| 10> C 0.1678276372 -1.4625026086 0.894401206
| 11> C 0.8636960567 -0.101401128 1.0411014336
| 12> H 1.2961162974 -0.0579401353 2.0482723365
| 13> C -0.1829921462 1.0125425743 0.9376828051
| 14> C -1.0654521499 0.9240632262 -0.2834444162
| 15> O -1.3700638814 1.8951847488 -0.9323090438
| 16> C 2.0129961638 0.0293923771 0.0595489897
| 17> C 3.1473585105 -0.613720608 0.2940037804
| 18> C 1.8428007629 0.885381538 -1.1563602464
| 19> H -3.3437773019 -1.6088153548 0.0307195182
| 20> H -2.5842048415 -0.7164210178 1.3497720804
| 21> H -3.5706911979 0.13716305 0.1618131075
| 22> H -1.0907247333 -2.5300645794 -0.4875807993
| 23> H 0.1289753031 -1.5130802379 -1.2467736637
| 24> H -0.5204835124 -1.6049807621 1.7299974079
| 25> H 0.9145315116 -2.2568762999 0.9417552608
| 26> H -0.8499709449 0.9369252207 1.8019875875
| 27> H 0.2836261256 1.9983310784 0.971307645
| 28> H 3.9812136058 -0.5647601842 -0.3848876922
| 29> H 3.2902964719 -1.2170798777 1.1752271453
| 30> H 1.7425347776 1.9334263519 -0.8770826247
| 31> H 2.7060808064 0.7881224346 -1.8102206277
| 32> H 0.9499018207 0.6137634116 -1.7154218669
| 33> *
| 34>
| 35>                          ****END OF INPUT****

CARTESIAN COORDINATES (ANGSTROEM)
---------------------------------
  C     -2.858038   -0.673113    0.299064
  C     -1.629313   -0.451383   -0.592043
  H     -1.976535   -0.436313   -1.631582
  C     -0.587737   -1.562002   -0.424700
  C      0.167828   -1.462503    0.894401
  C      0.863696   -0.101401    1.041101
  H      1.296116   -0.057940    2.048272
  C     -0.182992    1.012543    0.937683
  C     -1.065452    0.924063   -0.283444
  O     -1.370064    1.895185   -0.932309
  C      2.012996    0.029392    0.059549
  C      3.147359   -0.613721    0.294004
  C      1.842801    0.885382   -1.156360
  H     -3.343777   -1.608815    0.030720
  H     -2.584205   -0.716421    1.349772
  H     -3.570691    0.137163    0.161813
  H     -1.090725   -2.530065   -0.487581
  H      0.128975   -1.513080   -1.246774
  H     -0.520484   -1.604981    1.729997
  H      0.914532   -2.256876    0.941755
  H     -0.849971    0.936925    1.801988
  H      0.283626    1.998331    0.971308
  H      3.981214   -0.564760   -0.384888
  H      3.290296   -1.217080    1.175227
  H      1.742535    1.933426   -0.877083
  H      2.706081    0.788122   -1.810221
  H      0.949902    0.613763   -1.715422

 Total Charge           Charge          ....    0
 Multiplicity           Mult            ....    1
 Number of Electrons    NEL             ....   84
 Basis Dimension        Dim             ....  186

ORBITAL ENERGIES
----------------

  NO   OCC          E(Eh)            E(eV)
   0   2.0000     -18.738150      -509.8910
   1   2.0000      -9.970292      -271.3054
   2   2.0000      -9.907823      -269.6056
   3   2.0000      -9.902650      -269.4648
   4   2.0000      -9.901433      -269.4317
   5   2.0000      -9.894835      -269.2521
   6   2.0000      -9.893195      -269.2075
   7   2.0000      -9.893113      -269.2053
   8   2.0000      -9.890408      -269.1317
   9   2.0000      -9.882724      -268.9226
  10   2.0000      -9.874549      -268.7001
  11   2.0000      -0.938510       -25.5382
  12   2.0000      -0.773867       -21.0580
  13   2.0000      -0.727634       -19.7999
  14   2.0000      -0.683516       -18.5994
  15   2.0000      -0.664865       -18.0919
  16   2.0000      -0.623294       -16.9607
  17   2.0000      -0.600345       -16.3362
  18   2.0000      -0.556699       -15.1486
  19   2.0000      -0.535907       -14.5828
  20   2.0000      -0.484440       -13.1823
  21   2.0000      -0.449851       -12.2411
  22   2.0000      -0.438554       -11.9337
  23   2.0000      -0.421953       -11.4819
  24   2.0000      -0.416469       -11.3327
  25   2.0000      -0.399910       -10.8821
  26   2.0000      -0.394843       -10.7442
  27   2.0000      -0.377514       -10.2727
  28   2.0000      -0.370001       -10.0683
  29   2.0000      -0.360977        -9.8227
  30   2.0000      -0.355689        -9.6788
  31   2.0000      -0.354639        -9.6502
  32   2.0000      -0.347307        -9.4507
  33   2.0000      -0.327868        -8.9218
  34   2.0000      -0.323803        -8.8111
  35   2.0000      -0.307300        -8.3621
  36   2.0000      -0.304726        -8.2920
  37   2.0000      -0.291999        -7.9457
  38   2.0000      -0.283038        -7.7018
  39   2.0000      -0.274437        -7.4678
  40   2.0000      -0.218635        -5.9494
  41   2.0000      -0.189814        -5.1651
  42   0.0000      -0.052380        -1.4253
  43   0.0000      -0.019054        -0.5185
  44   0.0000       0.023807         0.6478
  45   0.0000       0.044738         1.2174
  46   0.0000       0.058746         1.5985

MULLIKEN ATOMIC CHARGES
-----------------------
   0 C :   -0.269279
   1 C :   -0.123024
   2 H :    0.071763
   3 C :   -0.127362
   4 C :   -0.124393
   5 C :   -0.131795
   6 H :    0.074809
   7 C :   -0.082967
   8 C :   -0.026455
   9 O :   -0.152192
  10 C :   -0.072191
  11 C :   -0.241170
  12 C :   -0.207137
  13 H :    0.110955
  14 H :    0.107899
  15 H :    0.118326
  16 H :    0.082803
  17 H :    0.099790
  18 H :    0.083738
  19 H :    0.089461
  20 H :    0.106181
  21 H :    0.093047
  22 H :    0.085171
  23 H :    0.085125
  24 H :    0.119466
  25 H :    0.098815
  26 H :    0.130620
Sum of atomic charges:   -0.0000000

LOEWDIN ATOMIC CHARGES
----------------------
   0 C :   -0.320655
   1 C :   -0.170013
   2 H :    0.127420
   3 C :   -0.216190
   4 C :   -0.210603
   5 C :   -0.129122
   6 H :    0.127923
   7 C :   -0.236204
   8 C :    0.045873
   9 O :   -0.123724
  10 C :   -0.051844
  11 C :   -0.264068
  12 C :   -0.323845
  13 H :    0.124842
  14 H :    0.116032
  15 H :    0.127676
  16 H :    0.119362
  17 H :    0.122234
  18 H :    0.113600
  19 H :    0.122506
  20 H :    0.143360
  21 H :    0.129871
  22 H :    0.118229
  23 H :    0.115805
  24 H :    0.135739
  25 H :    0.126844
  26 H :    0.128953

  Mayer bond orders larger than 0.100000
B(  0-C ,  1-C ) :   1.0906 B(  0-C , 13-H ) :   0.9439 B(  0-C , 14-H ) :   0.9431
B(  0-C , 15-H ) :   0.9447 B(  1-C ,  2-H ) :   0.8709 B(  1-C ,  3-C ) :   1.0564
B(  1-C ,  8-C ) :   0.9625 B(  3-C ,  4-C ) :   1.1181 B(  3-C , 16-H ) :   0.9089
B(  3-C , 17-H ) :   0.9106 B(  4-C ,  5-C ) :   1.0655 B(  4-C , 18-H ) :   0.9126
B(  4-C , 19-H ) :   0.9091 B(  5-C ,  6-H ) :   0.8748 B(  5-C ,  7-C ) :   1.0605
B(  5-C , 10-C ) :   0.9981 B(  7-C ,  8-C ) :   1.0075 B(  7-C , 20-H ) :   0.8792
B(  7-C , 21-H ) :   0.8913 B(  8-C ,  9-O ) :   2.1931 B( 10-C , 11-C ) :   2.0292
B( 10-C , 12-C ) :   1.1574 B( 11-C , 22-H ) :   0.9071 B( 11-C , 23-H ) :   0.9091
B( 12-C , 24-H ) :   0.9117 B( 12-C , 25-H ) :   0.9298 B( 12-C , 26-H ) :   0.9050

Dispersion correction           -0.030408205
FINAL SINGLE POINT ENERGY      -464.824301625646

DIPOLE MOMENT
-------------

Method             : SCF
Type of density    : Electron Density
Multiplicity       :   1
Irrep              :   0
Energy             :  -464.9094378839770343 Eh
Relativity type    :
Basis              : AO
                                X                 Y                 Z
Electronic contribution:     -1.159888915       4.916085627      -1.400024453
Nuclear contribution   :      1.252671814      -5.693399010       1.916267569
                        -----------------------------------------
Total Dipole Moment    :      0.092782899      -0.777313383       0.516243116
                        -----------------------------------------
Magnitude (a.u.)       :      0.937726888
Magnitude (Debye)      :      2.383512329

Rotational constants in cm-1:             0.058848             0.030376             0.024690
Rotational constants in MHz :          1764.231483           910.659758           740.190064

                             ****ORCA TERMINATED NORMALLY****
TOTAL RUN TIME: 0 days 0 hours 0 minutes 26 seconds 912 msec
