                         Program Version 6.0.1  -  RELEASE   -
|  1> ! r2scan-3c def2/J RI DEFGRID2 scfconv6 printgap
|  2> %output
|  3>     printlevel normal
|  4> end
|  5> * xyz 0 1
|  6> C -3.5766461872 0.1272512495 -0.3652344366
|  7> O -2.2119415769 0.1698455389 -0.7598731838
|  8> C -1.3100065669 -0.0853347908 0.1974440479
|  9> O -1.6072107452 -0.343558495 1.3340876769
| 10> C 0.1017929783 0.0088009616 -0.3371441072
| 11> C 0.8680754468 -1.2737039245 0.0002390653
| 12> C 2.3187577943 -1.1687218906 -0.4575839375
| 13> C 2.9988112625 0.0339931632 0.1882235005
| 14> C 2.2430232068 1.3140522759 -0.1528142585
| 15> C 0.7923499862 1.2174275088 0.3075026994
| 16> H -4.1600197982 0.3279515366 -1.2600234489
| 17> H -3.7731034599 0.8819275634 0.3990583143
| 18> H -3.8218193378 -0.8556500041 0.0420525518
| 19> H 0.0521197923 0.146047837 -1.4208652774
| 20> H 0.8275261842 -1.4279673388 1.0801742412
| 21> H 0.3850474571 -2.1275010722 -0.4801578606
| 22> H 2.8518322555 -2.0847121471 -0.1958970944
| 23> H 2.3494432782 -1.0621885336 -1.5446014475
| 24> H 3.0150517306 -0.0985710904 1.2720392474
| 25> H 4.0320217948 0.1081506939 -0.1570114376
| 26> H 2.7216077668 2.1700607471 0.3268795457
| 27> H 2.2713398931 1.4758249201 -1.2329623246
| 28> H 0.7543955858 1.1022155312 1.3926846623
| 29> H 0.2547045667 2.1312027283 0.0444650333
| 30> *
| 31>
| 32>                          ****END OF INPUT****

CARTESIAN COORDINATES (ANGSTROEM)
---------------------------------
  C     -3.576646    0.127251   -0.365234
  O     -2.211942    0.169846   -0.759873
  C     -1.310007   -0.085335    0.197444
  O     -1.607211   -0.343558    1.334088
  C      0.101793    0.008801   -0.337144
  C      0.868075   -1.273704    0.000239
  C      2.318758   -1.168722   -0.457584
  C      2.998811    0.033993    0.188224
  C      2.243023    1.314052   -0.152814
  C      0.792350    1.217428    0.307503
  H     -4.160020    0.327952   -1.260023
  H     -3.773103    0.881928    0.399058
  H     -3.821819   -0.855650    0.042053
  H      0.052120    0.146048   -1.420865
  H      0.827526   -1.427967    1.080174
  H      0.385047   -2.127501   -0.480158
  H      2.851832   -2.084712   -0.195897
  H      2.349443   -1.062189   -1.544601
  H      3.015052   -0.098571    1.272039
  H      4.032022    0.108151   -0.157011
  H      2.721608    2.170061    0.326880
  H      2.271340    1.475825   -1.232962
  H      0.754396    1.102216    1.392685
  H      0.254705    2.131203    0.044465

 Total Charge           Charge          ....    0
 Multiplicity           Mult            ....    1
 Number of Electrons    NEL             ....   78
 Basis Dimension        Dim             ....  270

ORBITAL ENERGIES
----------------

  NO   OCC          E(Eh)            E(eV)
   0   2.0000     -18.997545      -516.9495
   1   2.0000     -18.930802      -515.1333
   2   2.0000     -10.148247      -276.1478
   3   2.0000     -10.083447      -274.3845
   4   2.0000     -10.044248      -273.3179
   5   2.0000     -10.031010      -272.9577
   6   2.0000     -10.028526      -272.8901
   7   2.0000     -10.027011      -272.8488
   8   2.0000     -10.026196      -272.8267
   9   2.0000     -10.024576      -272.7826
  10   2.0000      -1.072097       -29.1732
  11   2.0000      -0.980958       -26.6932
  12   2.0000      -0.809265       -22.0212
  13   2.0000      -0.735765       -20.0212
  14   2.0000      -0.713031       -19.4026
  15   2.0000      -0.688663       -18.7395
  16   2.0000      -0.594301       -16.1717
  17   2.0000      -0.580133       -15.7862
  18   2.0000      -0.537396       -14.6233
  19   2.0000      -0.517476       -14.0812
  20   2.0000      -0.476704       -12.9718
  21   2.0000      -0.450248       -12.2519
  22   2.0000      -0.445806       -12.1310
  23   2.0000      -0.434976       -11.8363
  24   2.0000      -0.411331       -11.1929
  25   2.0000      -0.409183       -11.1344
  26   2.0000      -0.398550       -10.8451
  27   2.0000      -0.376960       -10.2576
  28   2.0000      -0.359345        -9.7783
  29   2.0000      -0.351547        -9.5661
  30   2.0000      -0.332095        -9.0368
  31   2.0000      -0.324439        -8.8284
  32   2.0000      -0.320444        -8.7197
  33   2.0000      -0.316053        -8.6002
  34   2.0000      -0.294617        -8.0169
  35   2.0000      -0.280179        -7.6241
  36   2.0000      -0.273852        -7.4519
  37   2.0000      -0.271065        -7.3761
  38   2.0000      -0.235540        -6.4094
  39   0.0000      -0.013802        -0.3756
  40   0.0000       0.064989         1.7684
  41   0.0000       0.092458         2.5159
  42   0.0000       0.100524         2.7354
  43   0.0000       0.108124         2.9422

MULLIKEN ATOMIC CHARGES
-----------------------
   0 C :   -0.301019
   1 O :   -0.186493
   2 C :    0.361183
   3 O :   -0.427896
   4 C :   -0.094057
   5 C :   -0.351800
   6 C :   -0.264958
   7 C :   -0.298135
   8 C :   -0.267246
   9 C :   -0.346075
  10 H :    0.149132
  11 H :    0.159117
  12 H :    0.160640
  13 H :    0.185079
  14 H :    0.177566
  15 H :    0.144618
  16 H :    0.147851
  17 H :    0.144489
  18 H :    0.146452
  19 H :    0.148687
  20 H :    0.147860
  21 H :    0.145320
  22 H :    0.175027
  23 H :    0.144657
Sum of atomic charges:    0.0000000

LOEWDIN ATOMIC CHARGES
----------------------
   0 C :   -0.047960
   1 O :   -0.603709
   2 C :    0.359190
   3 O :   -0.418546
   4 C :   -0.156425
   5 C :   -0.271403
   6 C :   -0.300174
   7 C :   -0.303568
   8 C :   -0.299756
   9 C :   -0.269155
  10 H :    0.174944
  11 H :    0.175468
  12 H :    0.176634
  13 H :    0.181779
  14 H :    0.172016
  15 H :    0.161961
  16 H :    0.157018
  17 H :    0.155300
  18 H :    0.156225
  19 H :    0.155364
  20 H :    0.157102
  21 H :    0.155572
  22 H :    0.170046
  23 H :    0.162079

  Mayer bond orders larger than 0.100000
B(  0-C ,  1-O ) :   0.8569 B(  0-C , 10-H ) :   0.9694 B(  0-C , 11-H ) :   0.9638
B(  0-C , 12-H ) :   0.9644 B(  1-O ,  2-C ) :   1.0396 B(  2-C ,  3-O ) :   1.8234
B(  2-C ,  4-C ) :   0.9387 B(  4-C ,  5-C ) :   0.9067 B(  4-C ,  9-C ) :   0.9174
B(  4-C , 13-H ) :   0.9629 B(  5-C ,  6-C ) :   0.8943 B(  5-C , 14-H ) :   0.9950
B(  5-C , 15-H ) :   0.9390 B(  6-C ,  7-C ) :   0.9175 B(  6-C , 16-H ) :   0.9440
B(  6-C , 17-H ) :   0.9912 B(  7-C ,  8-C ) :   0.9201 B(  7-C , 18-H ) :   0.9944
B(  7-C , 19-H ) :   0.9515 B(  8-C ,  9-C ) :   0.8951 B(  8-C , 20-H ) :   0.9437
B(  8-C , 21-H ) :   0.9926 B(  9-C , 22-H ) :   0.9956 B(  9-C , 23-H ) :   0.9334

Dispersion correction           -0.007527137
FINAL SINGLE POINT ENERGY      -463.637325971788

DIPOLE MOMENT
-------------

Method             : SCF
Type of density    : Electron Density
Multiplicity       :   1
Irrep              :   0
Energy             :  -463.6428320890706800 Eh
Relativity type    :
Basis              : AO
                                X                 Y                 Z
Electronic contribution:     -7.165318038      -0.467216354       0.981498902
Nuclear contribution   :      7.223691723       0.641749584      -1.618423435
                        -----------------------------------------
Total Dipole Moment    :      0.058373685       0.174533230      -0.636924533
                        -----------------------------------------
Magnitude (a.u.)       :      0.662979786
Magnitude (Debye)      :      1.685160693

Rotational constants in cm-1:             0.104032             0.024014             0.022561
Rotational constants in MHz :          3118.805242           719.923037           676.348276

                             ****ORCA TERMINATED NORMALLY****
TOTAL RUN TIME: 0 days 0 hours 0 minutes 23 seconds 902 msec
