                         Program Version 6.0.1  -  RELEASE   -
|  1> ! pbe def2-sv(p) def2/J RI DEFGRID1 loosescf d4 GCP(DFT/SV(P)) printgap
|  2> %output
|  3>     printlevel normal
|  4> end
|  5> * xyz 0 1
|  6> C 4.8143687704 0.1154809643 -0.0004056082
|  7> C 4.5284174103 1.4679890093 -0.0008342198
|  8> C 3.2116868407 1.9015671922 -0.0006048709
|  9> C 2.1823659618 0.9772189272 3.71298e-05
| 10> C 2.4704271568 -0.3862153784 0.0003229795
| 11> C 3.786219061 -0.8142863319 0.0001564572
| 12> O 1.4750206062 -1.3402116956 0.0007075193
| 13> C 0.1950159005 -0.8675228807 0.000357934
| 14> C -0.8527256103 -1.7828104006 -1.30229e-05
| 15> C -2.173353245 -1.3566069579 -0.0003031042
| 16> C -2.4536602971 -0.002493162 -0.0001215151
| 17> C -1.4175367827 0.9317890829 0.0002529694
| 18> C -0.0940839604 0.5004202143 0.0003892995
| 19> O 0.8848989371 1.4478149928 0.000455741
| 20> Cl -1.7376547796 2.6182563296 0.0004004799
| 21> Cl -4.0828137426 0.5338099067 -0.000528297
| 22> Cl -0.4846206675 -3.4599971339 -5.45098e-05
| 23> H 5.8377239485 -0.2248369887 -0.0006140128
| 24> H 5.32633841 2.1935186043 -0.0012844548
| 25> H 2.9616310355 2.9499918287 -0.0007441993
| 26> H 3.9823632329 -1.8741438463 0.0003935995
| 27> H -2.9724605588 -2.0785679525 -0.0006799399
| 28> *
| 29>
| 30>                          ****END OF INPUT****

CARTESIAN COORDINATES (ANGSTROEM)
---------------------------------
  C      4.814369    0.115481   -0.000406
  C      4.528417    1.467989   -0.000834
  C      3.211687    1.901567   -0.000605
  C      2.182366    0.977219    0.000037
  C      2.470427   -0.386215    0.000323
  C      3.786219   -0.814286    0.000156
  O      1.475021   -1.340212    0.000708
  C      0.195016   -0.867523    0.000358
  C     -0.852726   -1.782810   -0.000013
  C     -2.173353   -1.356607   -0.000303
  C     -2.453660   -0.002493   -0.000122
  C     -1.417537    0.931789    0.000253
  C     -0.094084    0.500420    0.000389
  O      0.884899    1.447815    0.000456
  Cl    -1.737655    2.618256    0.000400
  Cl    -4.082814    0.533810   -0.000528
  Cl    -0.484621   -3.459997   -0.000055
  H      5.837724   -0.224837   -0.000614
  H      5.326338    2.193519   -0.001284
  H      2.961631    2.949992   -0.000744
  H      3.982363   -1.874144    0.000394
  H     -2.972461   -2.078568   -0.000680

 Total Charge           Charge          ....    0
 Multiplicity           Mult            ....    1
 Number of Electrons    NEL             ....  144
 Basis Dimension        Dim             ....  260

ORBITAL ENERGIES
----------------

  NO   OCC          E(Eh)            E(eV)
   0   2.0000    -100.653584     -2738.9233
   1   2.0000    -100.653479     -2738.9204
   2   2.0000    -100.652756     -2738.9007
   3   2.0000     -18.835272      -512.5338
   4   2.0000     -18.834567      -512.5146
   5   2.0000      -9.989159      -271.8188
   6   2.0000      -9.985683      -271.7243
   7   2.0000      -9.976342      -271.4701
   8   2.0000      -9.976081      -271.4630
   9   2.0000      -9.970706      -271.3167
  10   2.0000      -9.969717      -271.2898
  11   2.0000      -9.969119      -271.2735
  12   2.0000      -9.921853      -269.9873
  13   2.0000      -9.911273      -269.6995
  14   2.0000      -9.911169      -269.6966
  15   2.0000      -9.908169      -269.6150
  16   2.0000      -9.907862      -269.6066
  17   2.0000      -9.189233      -250.0518
  18   2.0000      -9.189182      -250.0504
  19   2.0000      -9.188685      -250.0368
  20   2.0000      -7.020961      -191.0501
  21   2.0000      -7.020835      -191.0466
  22   2.0000      -7.020281      -191.0316
  23   2.0000      -7.009159      -190.7289
  24   2.0000      -7.009132      -190.7282
  25   2.0000      -7.008629      -190.7145
  26   2.0000      -7.008376      -190.7076
  27   2.0000      -7.008171      -190.7020
  28   2.0000      -7.007822      -190.6925
  29   2.0000      -1.039066       -28.2744
  30   2.0000      -1.004307       -27.3286
  31   2.0000      -0.854357       -23.2482
  32   2.0000      -0.820815       -22.3355
  33   2.0000      -0.802596       -21.8397
  34   2.0000      -0.789853       -21.4930
  35   2.0000      -0.758547       -20.6411
  36   2.0000      -0.708199       -19.2711
  37   2.0000      -0.706673       -19.2296
  38   2.0000      -0.667486       -18.1632
  39   2.0000      -0.659192       -17.9375
  40   2.0000      -0.616677       -16.7806
  41   2.0000      -0.588299       -16.0084
  42   2.0000      -0.564816       -15.3694
  43   2.0000      -0.545987       -14.8571
  44   2.0000      -0.533583       -14.5195
  45   2.0000      -0.491928       -13.3860
  46   2.0000      -0.475640       -12.9428
  47   2.0000      -0.457320       -12.4443
  48   2.0000      -0.450854       -12.2684
  49   2.0000      -0.447965       -12.1897
  50   2.0000      -0.422001       -11.4832
  51   2.0000      -0.419839       -11.4244
  52   2.0000      -0.407219       -11.0810
  53   2.0000      -0.391231       -10.6459
  54   2.0000      -0.389780       -10.6065
  55   2.0000      -0.385859       -10.4997
  56   2.0000      -0.384821       -10.4715
  57   2.0000      -0.375753       -10.2248
  58   2.0000      -0.348094        -9.4721
  59   2.0000      -0.342771        -9.3273
  60   2.0000      -0.342356        -9.3160
  61   2.0000      -0.331037        -9.0080
  62   2.0000      -0.308393        -8.3918
  63   2.0000      -0.307201        -8.3594
  64   2.0000      -0.291404        -7.9295
  65   2.0000      -0.279556        -7.6071
  66   2.0000      -0.276332        -7.5194
  67   2.0000      -0.267499        -7.2790
  68   2.0000      -0.247863        -6.7447
  69   2.0000      -0.244191        -6.6448
  70   2.0000      -0.213664        -5.8141
  71   2.0000      -0.189221        -5.1490
  72   0.0000      -0.067978        -1.8498
  73   0.0000      -0.057694        -1.5699
  74   0.0000      -0.050205        -1.3661
  75   0.0000      -0.033835        -0.9207
  76   0.0000      -0.023290        -0.6337

MULLIKEN ATOMIC CHARGES
-----------------------
   0 C :   -0.038499
   1 C :   -0.039341
   2 C :   -0.158374
   3 C :    0.204573
   4 C :    0.206177
   5 C :   -0.159138
   6 O :   -0.193519
   7 C :    0.159809
   8 C :    0.043927
   9 C :   -0.191483
  10 C :    0.062321
  11 C :    0.015128
  12 C :    0.097892
  13 O :   -0.192227
  14 Cl:   -0.015825
  15 Cl:   -0.047125
  16 Cl:   -0.039473
  17 H :    0.063156
  18 H :    0.063217
  19 H :    0.058195
  20 H :    0.057905
  21 H :    0.042705
Sum of atomic charges:   -0.0000000

LOEWDIN ATOMIC CHARGES
----------------------
   0 C :   -0.122554
   1 C :   -0.123287
   2 C :   -0.129914
   3 C :    0.018193
   4 C :    0.018674
   5 C :   -0.130472
   6 O :   -0.017581
   7 C :   -0.008536
   8 C :   -0.156988
   9 C :   -0.161387
  10 C :   -0.163249
  11 C :   -0.183603
  12 C :    0.001549
  13 O :   -0.015433
  14 Cl:    0.170941
  15 Cl:    0.160137
  16 Cl:    0.162890
  17 H :    0.129794
  18 H :    0.129825
  19 H :    0.139398
  20 H :    0.139263
  21 H :    0.142340

  Mayer bond orders larger than 0.100000
B(  0-C ,  1-C ) :   1.3718 B(  0-C ,  5-C ) :   1.3239 B(  0-C , 17-H ) :   0.9691
B(  1-C ,  2-C ) :   1.3233 B(  1-C , 18-H ) :   0.9691 B(  2-C ,  3-C ) :   1.3890
B(  2-C , 19-H ) :   0.9676 B(  3-C ,  4-C ) :   1.2924 B(  3-C , 13-O ) :   1.0298
B(  4-C ,  5-C ) :   1.3878 B(  4-C ,  6-O ) :   1.0342 B(  5-C , 20-H ) :   0.9676
B(  6-O ,  7-C ) :   1.1377 B(  7-C ,  8-C ) :   1.3749 B(  7-C , 12-C ) :   1.2511
B(  8-C ,  9-C ) :   1.3156 B(  8-C , 16-Cl) :   1.0076 B(  9-C , 10-C ) :   1.3334
B(  9-C , 21-H ) :   0.9942 B( 10-C , 11-C ) :   1.4185 B( 10-C , 15-Cl) :   1.0208
B( 11-C , 12-C ) :   1.3812 B( 11-C , 14-Cl) :   1.0952 B( 12-C , 13-O ) :   1.1433

Dispersion correction           -0.037677827
FINAL SINGLE POINT ENERGY     -1989.111194454134

DIPOLE MOMENT
-------------

Method             : SCF
Type of density    : Electron Density
Multiplicity       :   1
Irrep              :   0
Energy             : -1989.1542881459258751 Eh
Relativity type    :
Basis              : AO
                                X                 Y                 Z
Electronic contribution:    -21.925570344      -1.320712707       0.002202122
Nuclear contribution   :     22.697497123       1.321140827      -0.002485999
                        -----------------------------------------
Total Dipole Moment    :      0.771926779       0.000428120      -0.000283878
                        -----------------------------------------
Magnitude (a.u.)       :      0.771926950
Magnitude (Debye)      :      1.962082378

Rotational constants in cm-1:             0.018032             0.008583             0.005815
Rotational constants in MHz :           540.588111           257.304364           174.328859

                             ****ORCA TERMINATED NORMALLY****
TOTAL RUN TIME: 0 days 0 hours 0 minutes 21 seconds 224 msec
