                         Program Version 6.0.1  -  RELEASE   -
|  1> ! r2scan-3c def2/J RI DEFGRID2 scfconv6 printgap
|  2> %output
|  3>     printlevel normal
|  4> end
|  5> * xyz 0 1
|  6> C -2.7414483356 -0.8247575437 0.0155390314
|  7> O -1.8550747359 0.2714212254 -0.0124435499
|  8> C -0.5020122067 0.1155503795 -0.0055225587
|  9> C 0.2158381086 1.3151717625 -0.0074462793
| 10> C 1.5938847514 1.3117411413 -0.0024253936
| 11> C 2.2896784822 0.1124707244 0.0048375807
| 12> C 1.5851710004 -1.0756714894 0.0056401403
| 13> C 0.1994736012 -1.0844266131 9.61006e-05
| 14> H -3.3685299874 -0.7352859846 0.9066144695
| 15> H -2.2396895966 -1.7896715761 0.0347193987
| 16> H -3.3765935567 -0.7741307417 -0.8726625264
| 17> H -0.3413999216 2.2388617147 -0.0131039736
| 18> H 2.1295596801 2.2495011206 -0.0041434312
| 19> H 3.3688724995 0.1064990328 0.0090071228
| 20> H 2.1138603711 -2.0178816876 0.0099473596
| 21> H -0.3061097778 -2.0381736072 -0.0005818416
| 22> *
| 23>
| 24>                          ****END OF INPUT****

CARTESIAN COORDINATES (ANGSTROEM)
---------------------------------
  C     -2.741448   -0.824758    0.015539
  O     -1.855075    0.271421   -0.012444
  C     -0.502012    0.115550   -0.005523
  C      0.215838    1.315172   -0.007446
  C      1.593885    1.311741   -0.002425
  C      2.289678    0.112471    0.004838
  C      1.585171   -1.075671    0.005640
  C      0.199474   -1.084427    0.000096
  H     -3.368530   -0.735286    0.906614
  H     -2.239690   -1.789672    0.034719
  H     -3.376594   -0.774131   -0.872663
  H     -0.341400    2.238862   -0.013104
  H      2.129560    2.249501   -0.004143
  H      3.368872    0.106499    0.009007
  H      2.113860   -2.017882    0.009947
  H     -0.306110   -2.038174   -0.000582

 Total Charge           Charge          ....    0
 Multiplicity           Mult            ....    1
 Number of Electrons    NEL             ....   58
 Basis Dimension        Dim             ....  197

ORBITAL ENERGIES
----------------

  NO   OCC          E(Eh)            E(eV)
   0   2.0000     -18.984300      -516.5891
   1   2.0000     -10.096163      -274.7306
   2   2.0000     -10.087504      -274.4949
   3   2.0000     -10.034397      -273.0498
   4   2.0000     -10.032570      -273.0001
   5   2.0000     -10.032293      -272.9926
   6   2.0000     -10.026568      -272.8368
   7   2.0000     -10.024085      -272.7692
   8   2.0000      -1.032764       -28.1029
   9   2.0000      -0.821505       -22.3543
  10   2.0000      -0.727745       -19.8029
  11   2.0000      -0.715868       -19.4798
  12   2.0000      -0.663877       -18.0650
  13   2.0000      -0.577865       -15.7245
  14   2.0000      -0.560834       -15.2611
  15   2.0000      -0.509372       -13.8607
  16   2.0000      -0.455465       -12.3938
  17   2.0000      -0.447175       -12.1682
  18   2.0000      -0.436314       -11.8727
  19   2.0000      -0.415803       -11.3146
  20   2.0000      -0.391502       -10.6533
  21   2.0000      -0.381519       -10.3817
  22   2.0000      -0.355312        -9.6685
  23   2.0000      -0.332236        -9.0406
  24   2.0000      -0.326364        -8.8808
  25   2.0000      -0.294365        -8.0101
  26   2.0000      -0.292279        -7.9533
  27   2.0000      -0.236010        -6.4222
  28   2.0000      -0.198893        -5.4122
  29   0.0000      -0.030089        -0.8188
  30   0.0000      -0.013835        -0.3765
  31   0.0000       0.069005         1.8777
  32   0.0000       0.083569         2.2740
  33   0.0000       0.106758         2.9050

MULLIKEN ATOMIC CHARGES
-----------------------
   0 C :   -0.265341
   1 O :   -0.214486
   2 C :    0.375797
   3 C :   -0.308903
   4 C :   -0.110277
   5 C :   -0.187669
   6 C :   -0.135656
   7 C :   -0.309160
   8 H :    0.149456
   9 H :    0.129206
  10 H :    0.149624
  11 H :    0.157419
  12 H :    0.147641
  13 H :    0.146147
  14 H :    0.145093
  15 H :    0.131110
Sum of atomic charges:    0.0000000

LOEWDIN ATOMIC CHARGES
----------------------
   0 C :   -0.047263
   1 O :   -0.682915
   2 C :    0.196177
   3 C :   -0.135641
   4 C :   -0.155244
   5 C :   -0.194224
   6 C :   -0.154411
   7 C :   -0.180586
   8 H :    0.170762
   9 H :    0.162568
  10 H :    0.170836
  11 H :    0.180662
  12 H :    0.167866
  13 H :    0.166007
  14 H :    0.167107
  15 H :    0.168300

  Mayer bond orders larger than 0.100000
B(  0-C ,  1-O ) :   0.8559 B(  0-C ,  8-H ) :   0.9691 B(  0-C ,  9-H ) :   0.9697
B(  0-C , 10-H ) :   0.9695 B(  1-O ,  2-C ) :   0.9965 B(  2-C ,  3-C ) :   1.4075
B(  2-C ,  7-C ) :   1.3691 B(  3-C ,  4-C ) :   1.4027 B(  3-C , 11-H ) :   0.9482
B(  4-C ,  5-C ) :   1.3943 B(  4-C , 12-H ) :   0.9465 B(  5-C ,  6-C ) :   1.4554
B(  5-C , 13-H ) :   0.9478 B(  6-C ,  7-C ) :   1.4154 B(  6-C , 14-H ) :   0.9469
B(  7-C , 15-H ) :   0.9285

Dispersion correction           -0.004794988
FINAL SINGLE POINT ENERGY      -346.675040131396

DIPOLE MOMENT
-------------

Method             : SCF
Type of density    : Electron Density
Multiplicity       :   1
Irrep              :   0
Energy             :  -346.6771979337950711 Eh
Relativity type    :
Basis              : AO
                                X                 Y                 Z
Electronic contribution:      1.608841171       2.118975578      -0.053927706
Nuclear contribution   :     -1.922617585      -2.585590346       0.065296640
                        -----------------------------------------
Total Dipole Moment    :     -0.313776414      -0.466614768       0.011368934
                        -----------------------------------------
Magnitude (a.u.)       :      0.562418200
Magnitude (Debye)      :      1.429553457

Rotational constants in cm-1:             0.172815             0.051179             0.039784
Rotational constants in MHz :          5180.867618          1534.299187          1192.688149

                             ****ORCA TERMINATED NORMALLY****
TOTAL RUN TIME: 0 days 0 hours 0 minutes 30 seconds 356 msec
