                         Program Version 6.0.1  -  RELEASE   -
|  1> ! r2scan-3c def2/J RI DEFGRID2 scfconv6 printgap
|  2> %output
|  3>     printlevel normal
|  4> end
|  5> * xyz 0 1
|  6> C -2.3315472546 -0.5733404646 -0.0010380805
|  7> O -0.913594219 -0.6225327869 -0.0011819017
|  8> C -0.2870622117 0.5664915991 0.000829833
|  9> O -0.8735271918 1.6195788516 0.002392797
| 10> C 1.1880464081 0.4337205865 0.0006985284
| 11> C 1.8414098207 -0.7068307026 0.7421422318
| 12> C 1.8416297163 -0.7047182423 -0.7437873851
| 13> H -2.6719129974 -1.60576378 -0.0067289537
| 14> H -2.6933929464 -0.0442825395 -0.8851144191
| 15> H -2.6934992803 -0.0541548857 0.8888335604
| 16> H 1.6834984729 1.3956229739 0.0021384437
| 17> H 2.7604663337 -0.4941677163 1.2662561489
| 18> H 1.1899625221 -1.4015492684 1.2484208557
| 19> H 2.7608427007 -0.4905604015 -1.2670188172
| 20> H 1.1903526006 -1.3979915614 -1.252246114
| 21> *
| 22>
| 23>                          ****END OF INPUT****

CARTESIAN COORDINATES (ANGSTROEM)
---------------------------------
  C     -2.331547   -0.573340   -0.001038
  O     -0.913594   -0.622533   -0.001182
  C     -0.287062    0.566492    0.000830
  O     -0.873527    1.619579    0.002393
  C      1.188046    0.433721    0.000699
  C      1.841410   -0.706831    0.742142
  C      1.841630   -0.704718   -0.743787
  H     -2.671913   -1.605764   -0.006729
  H     -2.693393   -0.044283   -0.885114
  H     -2.693499   -0.054155    0.888834
  H      1.683498    1.395623    0.002138
  H      2.760466   -0.494168    1.266256
  H      1.189963   -1.401549    1.248421
  H      2.760843   -0.490560   -1.267019
  H      1.190353   -1.397992   -1.252246

 Total Charge           Charge          ....    0
 Multiplicity           Mult            ....    1
 Number of Electrons    NEL             ....   54
 Basis Dimension        Dim             ....  183

ORBITAL ENERGIES
----------------

  NO   OCC          E(Eh)            E(eV)
   0   2.0000     -18.997560      -516.9499
   1   2.0000     -18.929653      -515.1021
   2   2.0000     -10.153338      -276.2864
   3   2.0000     -10.085188      -274.4319
   4   2.0000     -10.057965      -273.6911
   5   2.0000     -10.048854      -273.4432
   6   2.0000     -10.048651      -273.4377
   7   2.0000      -1.072806       -29.1925
   8   2.0000      -0.980070       -26.6691
   9   2.0000      -0.847074       -23.0501
  10   2.0000      -0.704652       -19.1746
  11   2.0000      -0.616497       -16.7757
  12   2.0000      -0.582722       -15.8567
  13   2.0000      -0.534437       -14.5428
  14   2.0000      -0.490563       -13.3489
  15   2.0000      -0.469366       -12.7721
  16   2.0000      -0.450776       -12.2662
  17   2.0000      -0.429907       -11.6984
  18   2.0000      -0.407362       -11.0849
  19   2.0000      -0.371108       -10.0984
  20   2.0000      -0.360103        -9.7989
  21   2.0000      -0.343739        -9.3536
  22   2.0000      -0.328229        -8.9316
  23   2.0000      -0.297767        -8.1027
  24   2.0000      -0.279536        -7.6066
  25   2.0000      -0.273357        -7.4384
  26   2.0000      -0.235808        -6.4167
  27   0.0000      -0.017959        -0.4887
  28   0.0000       0.062835         1.7098
  29   0.0000       0.087933         2.3928
  30   0.0000       0.099458         2.7064
  31   0.0000       0.101830         2.7709

MULLIKEN ATOMIC CHARGES
-----------------------
   0 C :   -0.295566
   1 O :   -0.206618
   2 C :    0.401077
   3 O :   -0.420467
   4 C :   -0.135210
   5 C :   -0.336022
   6 C :   -0.336043
   7 H :    0.147869
   8 H :    0.160536
   9 H :    0.160280
  10 H :    0.183509
  11 H :    0.165529
  12 H :    0.172798
  13 H :    0.165529
  14 H :    0.172798
Sum of atomic charges:   -0.0000000

LOEWDIN ATOMIC CHARGES
----------------------
   0 C :   -0.044320
   1 O :   -0.622351
   2 C :    0.367072
   3 O :   -0.416334
   4 C :   -0.145323
   5 C :   -0.264515
   6 C :   -0.264519
   7 H :    0.174603
   8 H :    0.176371
   9 H :    0.176219
  10 H :    0.184125
  11 H :    0.163945
  12 H :    0.175540
  13 H :    0.163947
  14 H :    0.175540

  Mayer bond orders larger than 0.100000
B(  0-C ,  1-O ) :   0.8550 B(  0-C ,  7-H ) :   0.9710 B(  0-C ,  8-H ) :   0.9631
B(  0-C ,  9-H ) :   0.9631 B(  1-O ,  2-C ) :   1.0930 B(  2-C ,  3-O ) :   1.8521
B(  2-C ,  4-C ) :   1.1069 B(  4-C ,  5-C ) :   0.8723 B(  4-C ,  6-C ) :   0.8722
B(  4-C , 10-H ) :   0.9145 B(  5-C ,  6-C ) :   0.9967 B(  5-C , 11-H ) :   0.9418
B(  5-C , 12-H ) :   0.9521 B(  6-C , 13-H ) :   0.9418 B(  6-C , 14-H ) :   0.9521

Dispersion correction           -0.003585534
FINAL SINGLE POINT ENERGY      -345.699045808887

DIPOLE MOMENT
-------------

Method             : SCF
Type of density    : Electron Density
Multiplicity       :   1
Irrep              :   0
Energy             :  -345.7042255012775627 Eh
Relativity type    :
Basis              : AO
                                X                 Y                 Z
Electronic contribution:     -1.147947432       2.967011479       0.003813172
Nuclear contribution   :      1.405459435      -3.825006268      -0.005103796
                        -----------------------------------------
Total Dipole Moment    :      0.257512003      -0.857994789      -0.001290625
                        -----------------------------------------
Magnitude (a.u.)       :      0.895806427
Magnitude (Debye)      :      2.276958986

Rotational constants in cm-1:             0.173977             0.065358             0.053969
Rotational constants in MHz :          5215.712672          1959.375462          1617.939816

                             ****ORCA TERMINATED NORMALLY****
TOTAL RUN TIME: 0 days 0 hours 0 minutes 16 seconds 328 msec
