                         Program Version 6.0.1  -  RELEASE   -
|  1> ! pbe def2-sv(p) def2/J RI DEFGRID1 loosescf d4 GCP(DFT/SV(P)) printgap
|  2> %output
|  3>     printlevel normal
|  4> end
|  5> * xyz 0 1
|  6> C 1.0371771824 1.2581414849 0.2176543093
|  7> C 0.5471956756 0.0002432093 -0.5047576465
|  8> C 1.0372042973 -1.2576575314 0.2174450725
|  9> C -0.9652354351 0.0006710218 -0.5080739702
| 10> O -1.6482861825 -0.0014546443 0.4760049339
| 11> H 2.1229789024 1.2593556472 0.2736676777
| 12> H 0.6319353349 1.2849515057 1.2261557224
| 13> H 0.7148992803 2.1534602792 -0.3096438726
| 14> H 0.9149096822 0.0003520051 -1.5346989763
| 15> H 2.1230074984 -1.2583081049 0.2744620505
| 16> H 0.7156854724 -2.1528260659 -0.3106264194
| 17> H 0.6308998587 -1.2849686534 1.2255058778
| 18> H -1.4278158361 0.0044124399 -1.5161698791
| 19> *
| 20>
| 21>                          ****END OF INPUT****

CARTESIAN COORDINATES (ANGSTROEM)
---------------------------------
  C      1.037177    1.258141    0.217654
  C      0.547196    0.000243   -0.504758
  C      1.037204   -1.257658    0.217445
  C     -0.965235    0.000671   -0.508074
  O     -1.648286   -0.001455    0.476005
  H      2.122979    1.259356    0.273668
  H      0.631935    1.284952    1.226156
  H      0.714899    2.153460   -0.309644
  H      0.914910    0.000352   -1.534699
  H      2.123007   -1.258308    0.274462
  H      0.715685   -2.152826   -0.310626
  H      0.630900   -1.284969    1.225506
  H     -1.427816    0.004412   -1.516170

 Total Charge           Charge          ....    0
 Multiplicity           Mult            ....    1
 Number of Electrons    NEL             ....   40
 Basis Dimension        Dim             ....   86

ORBITAL ENERGIES
----------------

  NO   OCC          E(Eh)            E(eV)
   0   2.0000     -18.751820      -510.2630
   1   2.0000      -9.970992      -271.3245
   2   2.0000      -9.908185      -269.6154
   3   2.0000      -9.886179      -269.0166
   4   2.0000      -9.886095      -269.0143
   5   2.0000      -0.951714       -25.8975
   6   2.0000      -0.731263       -19.8987
   7   2.0000      -0.622392       -16.9361
   8   2.0000      -0.581296       -15.8179
   9   2.0000      -0.482065       -13.1177
  10   2.0000      -0.451658       -12.2902
  11   2.0000      -0.401861       -10.9352
  12   2.0000      -0.390297       -10.6205
  13   2.0000      -0.377282       -10.2664
  14   2.0000      -0.353690        -9.6244
  15   2.0000      -0.332063        -9.0359
  16   2.0000      -0.331933        -9.0324
  17   2.0000      -0.304624        -8.2892
  18   2.0000      -0.304130        -8.2758
  19   2.0000      -0.203927        -5.5491
  20   0.0000      -0.063212        -1.7201
  21   0.0000       0.035687         0.9711
  22   0.0000       0.063001         1.7143
  23   0.0000       0.089981         2.4485
  24   0.0000       0.091569         2.4917

MULLIKEN ATOMIC CHARGES
-----------------------
   0 C :   -0.257736
   1 C :   -0.160792
   2 C :   -0.257649
   3 C :    0.043637
   4 O :   -0.158297
   5 H :    0.108164
   6 H :    0.118394
   7 H :    0.107266
   8 H :    0.072367
   9 H :    0.108071
  10 H :    0.107258
  11 H :    0.118385
  12 H :    0.050933
Sum of atomic charges:    0.0000000

LOEWDIN ATOMIC CHARGES
----------------------
   0 C :   -0.321334
   1 C :   -0.199720
   2 C :   -0.321402
   3 C :    0.016782
   4 O :   -0.107926
   5 H :    0.122203
   6 H :    0.126766
   7 H :    0.121292
   8 H :    0.118323
   9 H :    0.122161
  10 H :    0.121288
  11 H :    0.126754
  12 H :    0.074813

  Mayer bond orders larger than 0.100000
B(  0-C ,  1-C ) :   1.0927 B(  0-C ,  5-H ) :   0.9506 B(  0-C ,  6-H ) :   0.9457
B(  0-C ,  7-H ) :   0.9526 B(  1-C ,  2-C ) :   1.0928 B(  1-C ,  3-C ) :   0.9291
B(  1-C ,  8-H ) :   0.8967 B(  2-C ,  9-H ) :   0.9506 B(  2-C , 10-H ) :   0.9526
B(  2-C , 11-H ) :   0.9456 B(  3-C ,  4-O ) :   2.1733 B(  3-C , 12-H ) :   0.9114

Dispersion correction           -0.008583516
FINAL SINGLE POINT ENERGY      -231.917285582233

DIPOLE MOMENT
-------------

Method             : SCF
Type of density    : Electron Density
Multiplicity       :   1
Irrep              :   0
Energy             :  -231.9619386447891429 Eh
Relativity type    :
Basis              : AO
                                X                 Y                 Z
Electronic contribution:     -5.301877655      -0.004296937       0.085461947
Nuclear contribution   :      6.004678141       0.006009945      -0.622776053
                        -----------------------------------------
Total Dipole Moment    :      0.702800486       0.001713008      -0.537314106
                        -----------------------------------------
Magnitude (a.u.)       :      0.884668246
Magnitude (Debye)      :      2.248647979

Rotational constants in cm-1:             0.231435             0.144200             0.111034
Rotational constants in MHz :          6938.234483          4323.008810          3328.707198

                             ****ORCA TERMINATED NORMALLY****
TOTAL RUN TIME: 0 days 0 hours 0 minutes 12 seconds 447 msec
