                         Program Version 6.0.1  -  RELEASE   -
|  1> ! pbe def2-sv(p) def2/J RI DEFGRID1 loosescf d4 GCP(DFT/SV(P)) printgap
|  2> %output
|  3>     printlevel normal
|  4> end
|  5> * xyz 0 1
|  6> C -3.3797278942 0.6874602127 0.3868201464
|  7> C -1.8824905907 0.3957333625 0.4459312604
|  8> H -1.5700171927 0.4493411035 1.4945124408
|  9> C -1.0785924737 1.4233879438 -0.3712966803
| 10> C -0.0340715924 0.7944056592 -1.3000636591
| 11> C 0.7631811441 -0.3678235376 -0.6976554785
| 12> H 1.1161202976 -0.9866828204 -1.5353673649
| 13> C -0.1236683147 -1.3005447002 0.1062067062
| 14> O 0.3175300546 -2.1790603428 0.8057900881
| 15> C -1.5983419112 -1.0320483623 -0.0384623695
| 16> C 2.0327965253 -0.0069485938 0.1046670857
| 17> C 3.1364484304 0.5333654255 -0.8010590456
| 18> C 1.7637473797 0.9651505157 1.2489135712
| 19> H -3.7439289989 0.6082422196 -0.6355263081
| 20> H -3.9325723371 -0.017276084 1.0037932501
| 21> H -3.5833617174 1.692454367 0.7497456618
| 22> H -1.7628022267 2.0046762483 -0.9937949965
| 23> H -0.5989381694 2.124932141 0.3097890197
| 24> H -0.547230209 0.4239446343 -2.1909198653
| 25> H 0.6535598635 1.571151493 -1.636817336
| 26> H -1.8919254908 -1.134496385 -1.0843663985
| 27> H -2.1585543313 -1.7542631536 0.5572242439
| 28> H 2.3797020211 -0.950469918 0.5412822955
| 29> H 2.8467855473 1.4805474388 -1.25146276
| 30> H 3.3663605405 -0.1708536156 -1.597687777
| 31> H 4.0419016158 0.7008443681 -0.2224290049
| 32> H 0.9457319822 0.6098277082 1.8703955685
| 33> H 1.5236041311 1.9564283377 0.8725818311
| 34> H 2.650408534 1.0503377239 1.8737618626
| 35> *
| 36>
| 37>                          ****END OF INPUT****

CARTESIAN COORDINATES (ANGSTROEM)
---------------------------------
  C     -3.379728    0.687460    0.386820
  C     -1.882491    0.395733    0.445931
  H     -1.570017    0.449341    1.494512
  C     -1.078592    1.423388   -0.371297
  C     -0.034072    0.794406   -1.300064
  C      0.763181   -0.367824   -0.697655
  H      1.116120   -0.986683   -1.535367
  C     -0.123668   -1.300545    0.106207
  O      0.317530   -2.179060    0.805790
  C     -1.598342   -1.032048   -0.038462
  C      2.032797   -0.006949    0.104667
  C      3.136448    0.533365   -0.801059
  C      1.763747    0.965151    1.248914
  H     -3.743929    0.608242   -0.635526
  H     -3.932572   -0.017276    1.003793
  H     -3.583362    1.692454    0.749746
  H     -1.762802    2.004676   -0.993795
  H     -0.598938    2.124932    0.309789
  H     -0.547230    0.423945   -2.190920
  H      0.653560    1.571151   -1.636817
  H     -1.891925   -1.134496   -1.084366
  H     -2.158554   -1.754263    0.557224
  H      2.379702   -0.950470    0.541282
  H      2.846786    1.480547   -1.251463
  H      3.366361   -0.170854   -1.597688
  H      4.041902    0.700844   -0.222429
  H      0.945732    0.609828    1.870396
  H      1.523604    1.956428    0.872582
  H      2.650409    1.050338    1.873762

 Total Charge           Charge          ....    0
 Multiplicity           Mult            ....    1
 Number of Electrons    NEL             ....   86
 Basis Dimension        Dim             ....  190

ORBITAL ENERGIES
----------------

  NO   OCC          E(Eh)            E(eV)
   0   2.0000     -18.732118      -509.7268
   1   2.0000      -9.966125      -271.1921
   2   2.0000      -9.907078      -269.5853
   3   2.0000      -9.897709      -269.3304
   4   2.0000      -9.895274      -269.2641
   5   2.0000      -9.893019      -269.2027
   6   2.0000      -9.888920      -269.0912
   7   2.0000      -9.888010      -269.0664
   8   2.0000      -9.880238      -268.8549
   9   2.0000      -9.874151      -268.6893
  10   2.0000      -9.873698      -268.6770
  11   2.0000      -0.935361       -25.4525
  12   2.0000      -0.766436       -20.8558
  13   2.0000      -0.728641       -19.8273
  14   2.0000      -0.676770       -18.4159
  15   2.0000      -0.654858       -17.8196
  16   2.0000      -0.617625       -16.8064
  17   2.0000      -0.610836       -16.6217
  18   2.0000      -0.560712       -15.2577
  19   2.0000      -0.510713       -13.8972
  20   2.0000      -0.503544       -13.7021
  21   2.0000      -0.456524       -12.4226
  22   2.0000      -0.449722       -12.2376
  23   2.0000      -0.424658       -11.5555
  24   2.0000      -0.411599       -11.2002
  25   2.0000      -0.395241       -10.7551
  26   2.0000      -0.388224       -10.5641
  27   2.0000      -0.376752       -10.2520
  28   2.0000      -0.364982        -9.9317
  29   2.0000      -0.361762        -9.8440
  30   2.0000      -0.349912        -9.5216
  31   2.0000      -0.342929        -9.3316
  32   2.0000      -0.339125        -9.2281
  33   2.0000      -0.336090        -9.1455
  34   2.0000      -0.323909        -8.8140
  35   2.0000      -0.317786        -8.6474
  36   2.0000      -0.296272        -8.0620
  37   2.0000      -0.294559        -8.0154
  38   2.0000      -0.292202        -7.9512
  39   2.0000      -0.280690        -7.6380
  40   2.0000      -0.270534        -7.3616
  41   2.0000      -0.264118        -7.1870
  42   2.0000      -0.188084        -5.1180
  43   0.0000      -0.046995        -1.2788
  44   0.0000       0.021709         0.5907
  45   0.0000       0.040283         1.0961
  46   0.0000       0.048799         1.3279
  47   0.0000       0.061383         1.6703

MULLIKEN ATOMIC CHARGES
-----------------------
   0 C :   -0.213718
   1 C :   -0.258376
   2 H :    0.085992
   3 C :   -0.098627
   4 C :   -0.103359
   5 C :   -0.140464
   6 H :    0.091941
   7 C :   -0.001126
   8 O :   -0.152095
   9 C :   -0.039409
  10 C :   -0.165303
  11 C :   -0.237036
  12 C :   -0.256922
  13 H :    0.094623
  14 H :    0.100556
  15 H :    0.106424
  16 H :    0.076225
  17 H :    0.087709
  18 H :    0.069434
  19 H :    0.090486
  20 H :    0.084008
  21 H :    0.081739
  22 H :    0.088385
  23 H :    0.096106
  24 H :    0.096544
  25 H :    0.100166
  26 H :    0.111448
  27 H :    0.102251
  28 H :    0.102397
Sum of atomic charges:   -0.0000000

LOEWDIN ATOMIC CHARGES
----------------------
   0 C :   -0.326304
   1 C :   -0.146280
   2 H :    0.119850
   3 C :   -0.221575
   4 C :   -0.220907
   5 C :   -0.164118
   6 H :    0.144750
   7 C :    0.049869
   8 O :   -0.122168
   9 C :   -0.235931
  10 C :   -0.144878
  11 C :   -0.329668
  12 C :   -0.330699
  13 H :    0.116640
  14 H :    0.119269
  15 H :    0.120356
  16 H :    0.120104
  17 H :    0.120046
  18 H :    0.119754
  19 H :    0.121982
  20 H :    0.132583
  21 H :    0.127514
  22 H :    0.123780
  23 H :    0.113112
  24 H :    0.116990
  25 H :    0.120350
  26 H :    0.118357
  27 H :    0.115049
  28 H :    0.122169

  Mayer bond orders larger than 0.100000
B(  0-C ,  1-C ) :   1.1181 B(  0-C , 13-H ) :   0.9440 B(  0-C , 14-H ) :   0.9465
B(  0-C , 15-H ) :   0.9484 B(  1-C ,  2-H ) :   0.8921 B(  1-C ,  3-C ) :   1.0664
B(  1-C ,  9-C ) :   1.1197 B(  3-C ,  4-C ) :   1.1847 B(  3-C , 16-H ) :   0.9061
B(  3-C , 17-H ) :   0.9039 B(  4-C ,  5-C ) :   1.0878 B(  4-C , 18-H ) :   0.8813
B(  4-C , 19-H ) :   0.9072 B(  5-C ,  6-H ) :   0.8470 B(  5-C ,  7-C ) :   0.9112
B(  5-C , 10-C ) :   1.0567 B(  7-C ,  8-O ) :   2.1851 B(  7-C ,  9-C ) :   1.0868
B(  9-C , 20-H ) :   0.8592 B(  9-C , 21-H ) :   0.8909 B( 10-C , 11-C ) :   1.1159
B( 10-C , 12-C ) :   1.1285 B( 10-C , 22-H ) :   0.8811 B( 11-C , 23-H ) :   0.9388
B( 11-C , 24-H ) :   0.9487 B( 11-C , 25-H ) :   0.9487 B( 12-C , 26-H ) :   0.9400
B( 12-C , 27-H ) :   0.9345 B( 12-C , 28-H ) :   0.9445

Dispersion correction           -0.030692547
FINAL SINGLE POINT ENERGY      -466.028872363123

DIPOLE MOMENT
-------------

Method             : SCF
Type of density    : Electron Density
Multiplicity       :   1
Irrep              :   0
Energy             :  -466.1247243959901425 Eh
Relativity type    :
Basis              : AO
                                X                 Y                 Z
Electronic contribution:     -0.073839557      -8.250493438       1.219710320
Nuclear contribution   :     -0.244050368       9.029123125      -1.747375824
                        -----------------------------------------
Total Dipole Moment    :     -0.317889925       0.778629687      -0.527665504
                        -----------------------------------------
Magnitude (a.u.)       :      0.992848970
Magnitude (Debye)      :      2.523621527

Rotational constants in cm-1:             0.058112             0.026366             0.022373
Rotational constants in MHz :          1742.141993           790.435231           670.734054

                             ****ORCA TERMINATED NORMALLY****
TOTAL RUN TIME: 0 days 0 hours 0 minutes 18 seconds 284 msec
