                         Program Version 6.0.1  -  RELEASE   -
|  1> ! pbe def2-sv(p) def2/J RI DEFGRID1 loosescf d4 GCP(DFT/SV(P)) printgap
|  2> %output
|  3>     printlevel normal
|  4> end
|  5> * xyz 0 1
|  6> C -2.0809517296 -1.3763886561 -0.1517728164
|  7> C -1.0181087463 -0.516015817 0.5531160823
|  8> H -1.4645336509 -0.1565823438 1.4900688543
|  9> C -0.6478626433 0.7180616643 -0.2842194148
| 10> H -0.5387404544 0.458406565 -1.3534264203
| 11> C 0.7009786495 1.2451966821 0.2097059036
| 12> H 0.6396350422 1.4010734682 1.3004556079
| 13> C 1.7940430025 0.2030073783 -0.0859203967
| 14> H 2.1247788732 0.317164006 -1.1250672652
| 15> C 1.2399552384 -1.2391219148 0.0995574106
| 16> H 1.9939751645 -1.8422904698 0.6206751987
| 17> O 0.126315334 -1.2590611013 0.9516807549
| 18> O 1.0372038361 -1.8925356297 -1.1097720026
| 19> O 2.9373772762 0.4445796446 0.6937241135
| 20> O 0.9517190316 2.4708786289 -0.4367596244
| 21> O -1.6685364653 1.6725265724 -0.1505910816
| 22> O -3.3280172533 -0.7406210059 -0.1488948566
| 23> H -2.1960157406 -2.3181367077 0.3902899542
| 24> H -1.7685210273 -1.6081834279 -1.1834841118
| 25> H 0.3393414774 -1.4641425777 -1.6195959307
| 26> H 2.7471116187 0.2246784593 1.6137918795
| 27> H 1.8681200443 2.7185747132 -0.2675072653
| 28> H -1.2978546663 2.5273315096 -0.4087338636
| 29> H -3.1948592957 0.2003760207 -0.3302353432
| 30> *
| 31>
| 32>                          ****END OF INPUT****

CARTESIAN COORDINATES (ANGSTROEM)
---------------------------------
  C     -2.080952   -1.376389   -0.151773
  C     -1.018109   -0.516016    0.553116
  H     -1.464534   -0.156582    1.490069
  C     -0.647863    0.718062   -0.284219
  H     -0.538740    0.458407   -1.353426
  C      0.700979    1.245197    0.209706
  H      0.639635    1.401073    1.300456
  C      1.794043    0.203007   -0.085920
  H      2.124779    0.317164   -1.125067
  C      1.239955   -1.239122    0.099557
  H      1.993975   -1.842290    0.620675
  O      0.126315   -1.259061    0.951681
  O      1.037204   -1.892536   -1.109772
  O      2.937377    0.444580    0.693724
  O      0.951719    2.470879   -0.436760
  O     -1.668536    1.672527   -0.150591
  O     -3.328017   -0.740621   -0.148895
  H     -2.196016   -2.318137    0.390290
  H     -1.768521   -1.608183   -1.183484
  H      0.339341   -1.464143   -1.619596
  H      2.747112    0.224678    1.613792
  H      1.868120    2.718575   -0.267507
  H     -1.297855    2.527332   -0.408734
  H     -3.194859    0.200376   -0.330235

 Total Charge           Charge          ....    0
 Multiplicity           Mult            ....    1
 Number of Electrons    NEL             ....   96
 Basis Dimension        Dim             ....  192

ORBITAL ENERGIES
----------------

  NO   OCC          E(Eh)            E(eV)
   0   2.0000     -18.780664      -511.0478
   1   2.0000     -18.776691      -510.9397
   2   2.0000     -18.775364      -510.9036
   3   2.0000     -18.770781      -510.7789
   4   2.0000     -18.767325      -510.6849
   5   2.0000     -18.742767      -510.0166
   6   2.0000      -9.994674      -271.9689
   7   2.0000      -9.964875      -271.1580
   8   2.0000      -9.958929      -270.9962
   9   2.0000      -9.954058      -270.8637
  10   2.0000      -9.953928      -270.8601
  11   2.0000      -9.933618      -270.3075
  12   2.0000      -0.992443       -27.0057
  13   2.0000      -0.966818       -26.3085
  14   2.0000      -0.952014       -25.9056
  15   2.0000      -0.937386       -25.5076
  16   2.0000      -0.924993       -25.1703
  17   2.0000      -0.919005       -25.0074
  18   2.0000      -0.721359       -19.6292
  19   2.0000      -0.699813       -19.0429
  20   2.0000      -0.623547       -16.9676
  21   2.0000      -0.602538       -16.3959
  22   2.0000      -0.583012       -15.8646
  23   2.0000      -0.543673       -14.7941
  24   2.0000      -0.513987       -13.9863
  25   2.0000      -0.507683       -13.8147
  26   2.0000      -0.477418       -12.9912
  27   2.0000      -0.474184       -12.9032
  28   2.0000      -0.458457       -12.4753
  29   2.0000      -0.439336       -11.9549
  30   2.0000      -0.432896       -11.7797
  31   2.0000      -0.406622       -11.0647
  32   2.0000      -0.400813       -10.9067
  33   2.0000      -0.382064       -10.3965
  34   2.0000      -0.367460        -9.9991
  35   2.0000      -0.354099        -9.6355
  36   2.0000      -0.342070        -9.3082
  37   2.0000      -0.329783        -8.9739
  38   2.0000      -0.324694        -8.8354
  39   2.0000      -0.312054        -8.4914
  40   2.0000      -0.295539        -8.0420
  41   2.0000      -0.279934        -7.6174
  42   2.0000      -0.265280        -7.2186
  43   2.0000      -0.256493        -6.9795
  44   2.0000      -0.244304        -6.6479
  45   2.0000      -0.237388        -6.4597
  46   2.0000      -0.218684        -5.9507
  47   2.0000      -0.210678        -5.7328
  48   0.0000      -0.002284        -0.0622
  49   0.0000       0.010968         0.2985
  50   0.0000       0.021890         0.5957
  51   0.0000       0.045347         1.2339
  52   0.0000       0.051053         1.3892

MULLIKEN ATOMIC CHARGES
-----------------------
   0 C :    0.102019
   1 C :    0.003754
   2 H :    0.088649
   3 C :   -0.019217
   4 H :    0.046992
   5 C :    0.089013
   6 H :    0.050893
   7 C :    0.025440
   8 H :    0.077451
   9 C :    0.172397
  10 H :    0.073019
  11 O :   -0.298389
  12 O :   -0.393196
  13 O :   -0.418630
  14 O :   -0.426515
  15 O :   -0.419921
  16 O :   -0.439688
  17 H :    0.097338
  18 H :    0.044790
  19 H :    0.300500
  20 H :    0.303943
  21 H :    0.314728
  22 H :    0.319264
  23 H :    0.305368
Sum of atomic charges:    0.0000000

LOEWDIN ATOMIC CHARGES
----------------------
   0 C :   -0.124541
   1 C :   -0.075150
   2 H :    0.125455
   3 C :   -0.079680
   4 H :    0.094254
   5 C :   -0.079844
   6 H :    0.104846
   7 C :   -0.096928
   8 H :    0.120911
   9 C :   -0.010556
  10 H :    0.114193
  11 O :   -0.137864
  12 O :   -0.298264
  13 O :   -0.310981
  14 O :   -0.324622
  15 O :   -0.309498
  16 O :   -0.333843
  17 H :    0.118039
  18 H :    0.084457
  19 H :    0.269215
  20 H :    0.286741
  21 H :    0.294782
  22 H :    0.292953
  23 H :    0.275927

  Mayer bond orders larger than 0.100000
B(  0-C ,  1-C ) :   1.0665 B(  0-C , 16-O ) :   1.0820 B(  0-C , 17-H ) :   0.9172
B(  0-C , 18-H ) :   0.8960 B(  1-C ,  2-H ) :   0.8768 B(  1-C ,  3-C ) :   0.9682
B(  1-C , 11-O ) :   0.9806 B(  3-C ,  4-H ) :   0.8781 B(  3-C ,  5-C ) :   1.0268
B(  3-C , 15-O ) :   1.0541 B(  5-C ,  6-H ) :   0.8596 B(  5-C ,  7-C ) :   1.0106
B(  5-C , 14-O ) :   1.0759 B(  7-C ,  8-H ) :   0.8747 B(  7-C ,  9-C ) :   0.9836
B(  7-C , 13-O ) :   1.0322 B(  9-C , 10-H ) :   0.8973 B(  9-C , 11-O ) :   1.0724
B(  9-C , 12-O ) :   1.1040 B( 12-O , 19-H ) :   0.8248 B( 13-O , 20-H ) :   0.8478
B( 14-O , 21-H ) :   0.8361 B( 15-O , 22-H ) :   0.8224 B( 16-O , 23-H ) :   0.8232

Dispersion correction           -0.024693658
FINAL SINGLE POINT ENERGY      -685.688420874981

DIPOLE MOMENT
-------------

Method             : SCF
Type of density    : Electron Density
Multiplicity       :   1
Irrep              :   0
Energy             :  -685.8207160375388867 Eh
Relativity type    :
Basis              : AO
                                X                 Y                 Z
Electronic contribution:      1.430227302       0.554746756       0.911674938
Nuclear contribution   :     -0.700510380       0.440241919      -0.821777494
                        -----------------------------------------
Total Dipole Moment    :      0.729716922       0.994988675       0.089897444
                        -----------------------------------------
Magnitude (a.u.)       :      1.237162399
Magnitude (Debye)      :      3.144616911

Rotational constants in cm-1:             0.043500             0.026075             0.018627
Rotational constants in MHz :          1304.091435           781.696883           558.408493

                             ****ORCA TERMINATED NORMALLY****
TOTAL RUN TIME: 0 days 0 hours 0 minutes 8 seconds 163 msec
