                         Program Version 6.0.1  -  RELEASE   -
|  1> ! r2scan-3c def2/J RI DEFGRID2 scfconv6 printgap
|  2> %output
|  3>     printlevel normal
|  4> end
|  5> * xyz 0 1
|  6> C 2.7594473566 -0.0001021009 -0.7323597559
|  7> C 1.9893030643 0.0001357619 0.5900685495
|  8> C 0.5124011404 4.69094e-05 0.3289282564
|  9> C -0.1946953289 1.1879700654 0.1798404211
| 10> C -1.5495925612 1.1312642687 -0.1021654452
| 11> N -2.2192801484 -5.65172e-05 -0.2415649946
| 12> C -1.5495260983 -1.1313183053 -0.1020219965
| 13> C -0.1946075307 -1.1879322346 0.1799245164
| 14> H 2.5083421856 -0.8822801833 -1.3172266271
| 15> H 3.8309117649 0.0004983956 -0.5467645059
| 16> H 2.5074938661 0.8813532758 -1.3179730639
| 17> H 2.2627781133 0.8859893312 1.1668840726
| 18> H 2.2628532992 -0.8855226412 1.1671355082
| 19> H 0.3037502561 2.1401853059 0.2857986651
| 20> H -2.1322178532 2.0357149883 -0.2223569416
| 21> H -2.1320444217 -2.0358015729 -0.2224050758
| 22> H 0.3039088763 -2.1401185089 0.2857942667
| 23> *
| 24>
| 25>                          ****END OF INPUT****

CARTESIAN COORDINATES (ANGSTROEM)
---------------------------------
  C      2.759447   -0.000102   -0.732360
  C      1.989303    0.000136    0.590069
  C      0.512401    0.000047    0.328928
  C     -0.194695    1.187970    0.179840
  C     -1.549593    1.131264   -0.102165
  N     -2.219280   -0.000057   -0.241565
  C     -1.549526   -1.131318   -0.102022
  C     -0.194608   -1.187932    0.179925
  H      2.508342   -0.882280   -1.317227
  H      3.830912    0.000498   -0.546765
  H      2.507494    0.881353   -1.317973
  H      2.262778    0.885989    1.166884
  H      2.262853   -0.885523    1.167136
  H      0.303750    2.140185    0.285799
  H     -2.132218    2.035715   -0.222357
  H     -2.132044   -2.035802   -0.222405
  H      0.303909   -2.140119    0.285794

 Total Charge           Charge          ....    0
 Multiplicity           Mult            ....    1
 Number of Electrons    NEL             ....   58
 Basis Dimension        Dim             ....  202

ORBITAL ENERGIES
----------------

  NO   OCC          E(Eh)            E(eV)
   0   2.0000     -14.148309      -384.9950
   1   2.0000     -10.064052      -273.8568
   2   2.0000     -10.064044      -273.8566
   3   2.0000     -10.060125      -273.7499
   4   2.0000     -10.045539      -273.3530
   5   2.0000     -10.040491      -273.2157
   6   2.0000     -10.040481      -273.2154
   7   2.0000     -10.031318      -272.9660
   8   2.0000      -0.912674       -24.8351
   9   2.0000      -0.799996       -21.7690
  10   2.0000      -0.730489       -19.8776
  11   2.0000      -0.723936       -19.6993
  12   2.0000      -0.620280       -16.8787
  13   2.0000      -0.603253       -16.4153
  14   2.0000      -0.561591       -15.2817
  15   2.0000      -0.479333       -13.0433
  16   2.0000      -0.466650       -12.6982
  17   2.0000      -0.438740       -11.9387
  18   2.0000      -0.409504       -11.1432
  19   2.0000      -0.407041       -11.0762
  20   2.0000      -0.394547       -10.7362
  21   2.0000      -0.377328       -10.2676
  22   2.0000      -0.353257        -9.6126
  23   2.0000      -0.339182        -9.2296
  24   2.0000      -0.328365        -8.9353
  25   2.0000      -0.315960        -8.5977
  26   2.0000      -0.257670        -7.0116
  27   2.0000      -0.246635        -6.7113
  28   2.0000      -0.220162        -5.9909
  29   0.0000      -0.048962        -1.3323
  30   0.0000      -0.039575        -1.0769
  31   0.0000       0.071651         1.9497
  32   0.0000       0.095635         2.6023
  33   0.0000       0.101729         2.7682

MULLIKEN ATOMIC CHARGES
-----------------------
   0 C :   -0.458573
   1 C :   -0.320546
   2 C :    0.195259
   3 C :   -0.162809
   4 C :   -0.116107
   5 N :   -0.175424
   6 C :   -0.116108
   7 C :   -0.162802
   8 H :    0.151587
   9 H :    0.151262
  10 H :    0.151587
  11 H :    0.149336
  12 H :    0.149346
  13 H :    0.150622
  14 H :    0.131375
  15 H :    0.131373
  16 H :    0.150621
Sum of atomic charges:   -0.0000000

LOEWDIN ATOMIC CHARGES
----------------------
   0 C :   -0.401308
   1 C :   -0.287131
   2 C :   -0.059244
   3 C :   -0.147278
   4 C :    0.082063
   5 N :   -0.621024
   6 C :    0.082065
   7 C :   -0.147272
   8 H :    0.155065
   9 H :    0.151314
  10 H :    0.155072
  11 H :    0.163490
  12 H :    0.163492
  13 H :    0.171541
  14 H :    0.183807
  15 H :    0.183807
  16 H :    0.171541

  Mayer bond orders larger than 0.100000
B(  0-C ,  1-C ) :   0.9258 B(  0-C ,  8-H ) :   0.9771 B(  0-C ,  9-H ) :   0.9710
B(  0-C , 10-H ) :   0.9771 B(  1-C ,  2-C ) :   0.8069 B(  1-C , 11-H ) :   0.9874
B(  1-C , 12-H ) :   0.9874 B(  2-C ,  3-C ) :   1.3590 B(  2-C ,  5-N ) :   0.1006
B(  2-C ,  7-C ) :   1.3590 B(  3-C ,  4-C ) :   1.3760 B(  3-C , 13-H ) :   0.9366
B(  4-C ,  5-N ) :   1.4739 B(  4-C , 14-H ) :   0.9899 B(  5-N ,  6-C ) :   1.4739
B(  6-C ,  7-C ) :   1.3760 B(  6-C , 15-H ) :   0.9899 B(  7-C , 16-H ) :   0.9366

Dispersion correction           -0.005282380
FINAL SINGLE POINT ENERGY      -326.817103894781

DIPOLE MOMENT
-------------

Method             : SCF
Type of density    : Electron Density
Multiplicity       :   1
Irrep              :   0
Energy             :  -326.8195465104308255 Eh
Relativity type    :
Basis              : AO
                                X                 Y                 Z
Electronic contribution:     -8.035878186       0.000009996       0.835140806
Nuclear contribution   :      9.102867073       0.000016944      -0.677850683
                        -----------------------------------------
Total Dipole Moment    :      1.066988887       0.000026939       0.157290123
                        -----------------------------------------
Magnitude (a.u.)       :      1.078520036
Magnitude (Debye)      :      2.741380070

Rotational constants in cm-1:             0.159091             0.049956             0.041908
Rotational constants in MHz :          4769.427291          1497.653889          1256.381752

                             ****ORCA TERMINATED NORMALLY****
TOTAL RUN TIME: 0 days 0 hours 0 minutes 26 seconds 939 msec
