                         Program Version 6.0.1  -  RELEASE   -
|  1> ! r2scan-3c def2/J RI DEFGRID2 scfconv6 printgap
|  2> %output
|  3>     printlevel normal
|  4> end
|  5> * xyz 0 1
|  6> C -2.5574549184 -0.8842712532 0.2673503523
|  7> C -1.1353112715 -0.4347879259 0.6297354861
|  8> H -1.0366262437 -0.3693536132 1.722926001
|  9> C -0.8340164126 0.9478665599 0.0346146935
| 10> H -1.0681182944 0.9335112786 -1.0414494104
| 11> C 0.6514018121 1.2937870434 0.20400858
| 12> H 0.8688494245 1.418354047 1.2782356866
| 13> C 1.5172571866 0.1529094068 -0.330033823
| 14> H 1.3478185246 0.0479833618 -1.4158846905
| 15> C 1.0981770786 -1.1575510928 0.3626266224
| 16> H 1.2964828196 -1.0698747852 1.4445687907
| 17> O -0.2552224504 -1.4239092653 0.1186129876
| 18> O 1.8561266393 -2.2265176666 -0.0923793145
| 19> O 2.8684418277 0.4462552971 -0.0744163098
| 20> O 0.8954015615 2.5000127491 -0.4765299129
| 21> O -1.6378818722 1.8839270418 0.7010587883
| 22> O -2.6969516697 -1.1060860988 -1.1077547599
| 23> H -3.2552539683 -0.0910562955 0.5371507513
| 24> H -2.7946929792 -1.7946289621 0.8343741077
| 25> H 1.4657752327 -2.5428000556 -0.9167042887
| 26> H 3.3634907014 -0.3829135008 -0.1033543247
| 27> H 1.8512108255 2.6287510282 -0.5016801721
| 28> H -1.3664111699 2.7579831141 0.3932267385
| 29> H -2.0067732267 -1.7278387859 -1.3687211877
| 30> *
| 31>
| 32>                          ****END OF INPUT****

CARTESIAN COORDINATES (ANGSTROEM)
---------------------------------
  C     -2.557455   -0.884271    0.267350
  C     -1.135311   -0.434788    0.629735
  H     -1.036626   -0.369354    1.722926
  C     -0.834016    0.947867    0.034615
  H     -1.068118    0.933511   -1.041449
  C      0.651402    1.293787    0.204009
  H      0.868849    1.418354    1.278236
  C      1.517257    0.152909   -0.330034
  H      1.347819    0.047983   -1.415885
  C      1.098177   -1.157551    0.362627
  H      1.296483   -1.069875    1.444569
  O     -0.255222   -1.423909    0.118613
  O      1.856127   -2.226518   -0.092379
  O      2.868442    0.446255   -0.074416
  O      0.895402    2.500013   -0.476530
  O     -1.637882    1.883927    0.701059
  O     -2.696952   -1.106086   -1.107755
  H     -3.255254   -0.091056    0.537151
  H     -2.794693   -1.794629    0.834374
  H      1.465775   -2.542800   -0.916704
  H      3.363491   -0.382914   -0.103354
  H      1.851211    2.628751   -0.501680
  H     -1.366411    2.757983    0.393227
  H     -2.006773   -1.727839   -1.368721

 Total Charge           Charge          ....    0
 Multiplicity           Mult            ....    1
 Number of Electrons    NEL             ....   96
 Basis Dimension        Dim             ....  318

ORBITAL ENERGIES
----------------

  NO   OCC          E(Eh)            E(eV)
   0   2.0000     -18.988558      -516.7049
   1   2.0000     -18.984999      -516.6081
   2   2.0000     -18.970258      -516.2070
   3   2.0000     -18.964542      -516.0514
   4   2.0000     -18.959210      -515.9063
   5   2.0000     -18.952984      -515.7369
   6   2.0000     -10.152814      -276.2721
   7   2.0000     -10.100830      -274.8576
   8   2.0000     -10.096236      -274.7326
   9   2.0000     -10.094275      -274.6792
  10   2.0000     -10.091381      -274.6004
  11   2.0000     -10.081721      -274.3376
  12   2.0000      -1.069693       -29.1078
  13   2.0000      -1.020198       -27.7610
  14   2.0000      -1.014088       -27.5947
  15   2.0000      -1.000011       -27.2117
  16   2.0000      -0.991123       -26.9698
  17   2.0000      -0.988398       -26.8957
  18   2.0000      -0.757262       -20.6061
  19   2.0000      -0.744034       -20.2462
  20   2.0000      -0.661825       -18.0092
  21   2.0000      -0.627603       -17.0780
  22   2.0000      -0.598831       -16.2950
  23   2.0000      -0.572685       -15.5836
  24   2.0000      -0.534631       -14.5481
  25   2.0000      -0.520101       -14.1527
  26   2.0000      -0.498507       -13.5651
  27   2.0000      -0.478533       -13.0215
  28   2.0000      -0.469369       -12.7722
  29   2.0000      -0.464949       -12.6519
  30   2.0000      -0.451605       -12.2888
  31   2.0000      -0.440782       -11.9943
  32   2.0000      -0.402371       -10.9491
  33   2.0000      -0.399706       -10.8766
  34   2.0000      -0.388462       -10.5706
  35   2.0000      -0.380824       -10.3628
  36   2.0000      -0.363614        -9.8944
  37   2.0000      -0.356179        -9.6921
  38   2.0000      -0.339635        -9.2419
  39   2.0000      -0.324520        -8.8306
  40   2.0000      -0.316634        -8.6160
  41   2.0000      -0.303087        -8.2474
  42   2.0000      -0.288193        -7.8421
  43   2.0000      -0.273837        -7.4515
  44   2.0000      -0.256498        -6.9797
  45   2.0000      -0.246579        -6.7098
  46   2.0000      -0.241018        -6.5584
  47   2.0000      -0.235718        -6.4142
  48   0.0000       0.027206         0.7403
  49   0.0000       0.042211         1.1486
  50   0.0000       0.061812         1.6820
  51   0.0000       0.073217         1.9923
  52   0.0000       0.084540         2.3005

MULLIKEN ATOMIC CHARGES
-----------------------
   0 C :   -0.240310
   1 C :    0.025501
   2 H :    0.167583
   3 C :   -0.063755
   4 H :    0.194141
   5 C :   -0.020121
   6 H :    0.170810
   7 C :    0.108430
   8 H :    0.167346
   9 C :   -0.172321
  10 H :    0.159306
  11 O :   -0.230529
  12 O :   -0.385088
  13 O :   -0.441218
  14 O :   -0.445195
  15 O :   -0.442249
  16 O :   -0.418303
  17 H :    0.161279
  18 H :    0.139565
  19 H :    0.320655
  20 H :    0.312551
  21 H :    0.315827
  22 H :    0.314003
  23 H :    0.302092
Sum of atomic charges:    0.0000000

LOEWDIN ATOMIC CHARGES
----------------------
   0 C :    0.045340
   1 C :    0.120441
   2 H :    0.190070
   3 C :    0.112431
   4 H :    0.193135
   5 C :    0.105549
   6 H :    0.185441
   7 C :    0.106019
   8 H :    0.182403
   9 C :    0.294338
  10 H :    0.196361
  11 O :   -0.689755
  12 O :   -0.494110
  13 O :   -0.575918
  14 O :   -0.572641
  15 O :   -0.573256
  16 O :   -0.587137
  17 H :    0.197440
  18 H :    0.165056
  19 H :    0.280846
  20 H :    0.282325
  21 H :    0.281624
  22 H :    0.282239
  23 H :    0.271758

  Mayer bond orders larger than 0.100000
B(  0-C ,  1-C ) :   0.9461 B(  0-C , 16-O ) :   1.0260 B(  0-C , 17-H ) :   0.9603
B(  0-C , 18-H ) :   0.9786 B(  1-C ,  2-H ) :   0.9264 B(  1-C ,  3-C ) :   0.8764
B(  1-C , 11-O ) :   0.7629 B(  1-C , 16-O ) :  -0.1017 B(  3-C ,  4-H ) :   0.9942
B(  3-C ,  5-C ) :   0.8302 B(  3-C , 15-O ) :   0.8659 B(  5-C ,  6-H ) :   0.9883
B(  5-C ,  7-C ) :   0.8593 B(  5-C , 14-O ) :   0.8988 B(  7-C ,  8-H ) :   0.9503
B(  7-C ,  9-C ) :   0.7670 B(  7-C , 13-O ) :   0.8873 B(  9-C , 10-H ) :   1.0092
B(  9-C , 11-O ) :   0.9859 B(  9-C , 12-O ) :   1.0857 B( 12-O , 19-H ) :   0.8736
B( 13-O , 20-H ) :   0.8722 B( 14-O , 21-H ) :   0.8791 B( 15-O , 22-H ) :   0.8811
B( 16-O , 23-H ) :   0.8770

Dispersion correction           -0.008090028
FINAL SINGLE POINT ENERGY      -687.079356334234

DIPOLE MOMENT
-------------

Method             : SCF
Type of density    : Electron Density
Multiplicity       :   1
Irrep              :   0
Energy             :  -687.0909523703166997 Eh
Relativity type    :
Basis              : AO
                                X                 Y                 Z
Electronic contribution:      1.953549781      -0.206468954      -0.820846318
Nuclear contribution   :     -1.236494283      -0.178927493       0.795549761
                        -----------------------------------------
Total Dipole Moment    :      0.717055498      -0.385396447      -0.025296557
                        -----------------------------------------
Magnitude (a.u.)       :      0.814456214
Magnitude (Debye)      :      2.070183175

Rotational constants in cm-1:             0.038809             0.027471             0.017927
Rotational constants in MHz :          1163.470739           823.562198           537.449614

                             ****ORCA TERMINATED NORMALLY****
TOTAL RUN TIME: 0 days 0 hours 0 minutes 37 seconds 124 msec
