                         Program Version 6.0.0  -   RELEASE  -
|  1> ! r2SCAN-3c DEF2-TZVP FREQ
|  2> * xyzfile 0 1 censo.xyz
|  3>
|  4>                          ****END OF INPUT****

CARTESIAN COORDINATES (ANGSTROEM)
---------------------------------
  C      2.023273    0.760425   -0.000420
  C      0.781325   -0.077075    0.000169
  O      0.828553   -1.309142    0.002089
  C     -0.501086    0.652323   -0.001955
  C     -1.673562    0.018886   -0.740246
  C     -1.672986    0.023122    0.741081
  H      2.019806    1.418469    0.876365
  H      2.918672    0.137749    0.001088
  H      2.020963    1.415918   -0.879112
  H     -0.439412    1.734534   -0.004880
  H     -2.329965    0.706683   -1.261201
  H     -1.459742   -0.917624   -1.244634
  H     -2.328845    0.713978    1.258666
  H     -1.458694   -0.910414    1.250757

 Total Charge           Charge          ....    0
 Multiplicity           Mult            ....    1
 Number of Electrons    NEL             ....   46
 Basis Dimension        Dim             ....  234

ORBITAL ENERGIES
----------------

  NO   OCC          E(Eh)            E(eV)
   0   2.0000     -18.927622      -515.0468
   1   2.0000     -10.115943      -275.2688
   2   2.0000     -10.053103      -273.5588
   3   2.0000     -10.049680      -273.4657
   4   2.0000     -10.049479      -273.4602
   5   2.0000     -10.034418      -273.0504
   6   2.0000      -0.988059       -26.8865
   7   2.0000      -0.837444       -22.7880
   8   2.0000      -0.721871       -19.6431
   9   2.0000      -0.612651       -16.6711
  10   2.0000      -0.578523       -15.7424
  11   2.0000      -0.504078       -13.7167
  12   2.0000      -0.472801       -12.8656
  13   2.0000      -0.443262       -12.0618
  14   2.0000      -0.412605       -11.2276
  15   2.0000      -0.390817       -10.6347
  16   2.0000      -0.385333       -10.4854
  17   2.0000      -0.348996        -9.4967
  18   2.0000      -0.348945        -9.4953
  19   2.0000      -0.326530        -8.8853
  20   2.0000      -0.291134        -7.9222
  21   2.0000      -0.270831        -7.3697
  22   2.0000      -0.214509        -5.8371
  23   0.0000      -0.046879        -1.2756
  24   0.0000       0.043917         1.1950
  25   0.0000       0.065493         1.7821
  26   0.0000       0.078964         2.1487
  27   0.0000       0.085631         2.3301

MULLIKEN ATOMIC CHARGES
-----------------------
   0 C :   -0.320246
   1 C :    0.194129
   2 O :   -0.370658
   3 C :   -0.076871
   4 C :   -0.197671
   5 C :   -0.197773
   6 H :    0.121800
   7 H :    0.130315
   8 H :    0.121827
   9 H :    0.102612
  10 H :    0.112037
  11 H :    0.134251
  12 H :    0.112034
  13 H :    0.134213
Sum of atomic charges:   -0.0000000

LOEWDIN ATOMIC CHARGES
----------------------
   0 C :   -0.259224
   1 C :   -0.346169
   2 O :    0.093946
   3 C :   -0.193777
   4 C :   -0.195614
   5 C :   -0.195567
   6 H :    0.137972
   7 H :    0.131059
   8 H :    0.137959
   9 H :    0.146789
  10 H :    0.130785
  11 H :    0.140544
  12 H :    0.130771
  13 H :    0.140525

  Mayer bond orders larger than 0.100000
B(  0-C ,  1-C ) :   0.9752 B(  0-C ,  6-H ) :   0.9471 B(  0-C ,  7-H ) :   0.9748
B(  0-C ,  8-H ) :   0.9471 B(  1-C ,  2-O ) :   1.9956 B(  1-C ,  3-C ) :   0.9762
B(  3-C ,  4-C ) :   0.8914 B(  3-C ,  5-C ) :   0.8912 B(  3-C ,  9-H ) :   0.9533
B(  4-C ,  5-C ) :   1.0031 B(  4-C , 10-H ) :   0.9636 B(  4-C , 11-H ) :   0.9572
B(  5-C , 12-H ) :   0.9635 B(  5-C , 13-H ) :   0.9573

Dispersion correction           -0.003201820
FINAL SINGLE POINT ENERGY      -270.494207751957

DIPOLE MOMENT
-------------

Method             : SCF
Type of density    : Electron Density
Multiplicity       :   1
Irrep              :   0
Energy             :  -270.4963537827017035 Eh
Relativity type    :
Basis              : AO
                                X                 Y                 Z
Electronic contribution:      0.672341267      -2.855981171       0.002381665
Nuclear contribution   :     -0.949424942       4.019851424      -0.003987348
                        -----------------------------------------
Total Dipole Moment    :     -0.277083675       1.163870253      -0.001605683
                        -----------------------------------------
Magnitude (a.u.)       :      1.196399560
Magnitude (Debye)      :      3.041006008

VIBRATIONAL FREQUENCIES
-----------------------

Scaling factor for frequencies =  1.000000000  (already applied!)

     0:       0.00 cm**-1
     1:       0.00 cm**-1
     2:       0.00 cm**-1
     3:       0.00 cm**-1
     4:       0.00 cm**-1
     5:       0.00 cm**-1
     6:      75.97 cm**-1
     7:     158.14 cm**-1
     8:     249.70 cm**-1
     9:     266.08 cm**-1
    10:     382.84 cm**-1
    11:     600.43 cm**-1
    12:     607.07 cm**-1
    13:     759.30 cm**-1
    14:     818.11 cm**-1
    15:     835.07 cm**-1
    16:     869.31 cm**-1
    17:     937.04 cm**-1
    18:     974.04 cm**-1
    19:    1043.52 cm**-1
    20:    1052.72 cm**-1
    21:    1086.67 cm**-1
    22:    1112.54 cm**-1
    23:    1117.36 cm**-1
    24:    1201.46 cm**-1
    25:    1214.07 cm**-1
    26:    1218.63 cm**-1
    27:    1368.77 cm**-1
    28:    1419.58 cm**-1
    29:    1452.06 cm**-1
    30:    1454.99 cm**-1
    31:    1467.12 cm**-1
    32:    1480.38 cm**-1
    33:    1674.93 cm**-1
    34:    3007.02 cm**-1
    35:    3072.92 cm**-1
    36:    3119.37 cm**-1
    37:    3119.66 cm**-1
    38:    3134.02 cm**-1
    39:    3164.36 cm**-1
    40:    3208.71 cm**-1
    41:    3223.88 cm**-1

IR SPECTRUM
-----------

 Mode   freq       eps      Int      T**2         TX        TY        TZ
       cm**-1   L/(mol*cm) km/mol    a.u.
----------------------------------------------------------------------------
  6:     75.97   0.000389    1.97  0.001599  ( 0.000034 -0.000293 -0.039983)
  7:    158.14   0.000004    0.02  0.000007  ( 0.000003  0.000084 -0.002656)
  8:    249.70   0.000823    4.16  0.001029  (-0.029900  0.011613 -0.000019)
  9:    266.08   0.000090    0.46  0.000106  ( 0.000058 -0.000136  0.010280)
 10:    382.84   0.000904    4.57  0.000737  (-0.018647 -0.019727  0.000036)
 11:    600.43   0.001691    8.55  0.000879  ( 0.029178 -0.005249  0.000074)
 12:    607.07   0.000172    0.87  0.000088  (-0.000080 -0.000003  0.009393)
 13:    759.30   0.000073    0.37  0.000030  (-0.004095 -0.003658  0.000018)
 14:    818.11   0.000403    2.03  0.000154  (-0.011719  0.004023 -0.000033)
 15:    835.07   0.000879    4.44  0.000329  (-0.000035 -0.000022 -0.018126)
 16:    869.31   0.000067    0.34  0.000024  ( 0.000170 -0.000033 -0.004910)
 17:    937.04   0.003987   20.15  0.001328  (-0.036402 -0.001662  0.000061)
 18:    974.04   0.010756   54.36  0.003446  (-0.058678  0.001695  0.000012)
 19:   1043.52   0.000856    4.33  0.000256  (-0.000009  0.000031 -0.016000)
 20:   1052.72   0.002153   10.88  0.000638  (-0.001284  0.025228 -0.000053)
 21:   1086.67   0.000380    1.92  0.000109  (-0.000042  0.000049  0.010452)
 22:   1112.54   0.003062   15.48  0.000859  ( 0.028922 -0.004745 -0.000052)
 23:   1117.36   0.000353    1.79  0.000099  ( 0.000161 -0.000014  0.009932)
 24:   1201.46   0.012847   64.92  0.003337  (-0.056999 -0.009374  0.000003)
 25:   1214.07   0.000044    0.22  0.000011  ( 0.000100  0.000041  0.003367)
 26:   1218.63   0.004490   22.69  0.001150  ( 0.032521  0.009600 -0.000025)
 27:   1368.77   0.003887   19.65  0.000886  ( 0.013785  0.026387 -0.000015)
 28:   1419.58   0.024766  125.16  0.005444  (-0.073784 -0.000481 -0.000008)
 29:   1452.06   0.000938    4.74  0.000202  (-0.000012 -0.000075 -0.014196)
 30:   1454.99   0.004165   21.05  0.000893  ( 0.000718  0.029879 -0.000072)
 31:   1467.12   0.002158   10.90  0.000459  ( 0.000005 -0.000076 -0.021423)
 32:   1480.38   0.001903    9.62  0.000401  ( 0.013479 -0.014818  0.000034)
 33:   1674.93   0.025551  129.12  0.004760  ( 0.016903 -0.066894  0.000086)
 34:   3007.02   0.000692    3.50  0.000072  (-0.002433 -0.008116  0.000007)
 35:   3072.92   0.001437    7.26  0.000146  (-0.000013  0.000036  0.012082)
 36:   3119.37   0.003074   15.53  0.000307  (-0.000535  0.000091  0.017527)
 37:   3119.66   0.002212   11.18  0.000221  ( 0.014812 -0.001209  0.000637)
 38:   3134.02   0.002249   11.37  0.000224  ( 0.013687 -0.006053  0.000017)
 39:   3164.36   0.001971    9.96  0.000194  (-0.002679 -0.013682  0.000035)
 40:   3208.71   0.000112    0.57  0.000011  ( 0.000013 -0.000032 -0.003301)
 41:   3223.88   0.000838    4.24  0.000081  (-0.003666  0.008228 -0.000026)

--------------------------
THERMOCHEMISTRY AT 298.15K
--------------------------

Temperature         ...   298.15 K
Pressure            ...     1.00 atm
Total Mass          ...    84.12 AMU
Quasi RRHO          ...     True
Cut-Off Frequency   ...     1.00 cm^-1

Throughout the following assumptions are being made:
  (1) The electronic state is orbitally nondegenerate
  (2) There are no thermally accessible electronically excited states
  (3) Hindered rotations indicated by low frequency modes are not
      treated as such but are treated as vibrations and this may
      cause some error
  (4) All equations used are the standard statistical mechanics
      equations for an ideal gas
  (5) All vibrations are strictly harmonic

freq.      75.97  E(vib)   ...       0.49
freq.     158.14  E(vib)   ...       0.39
freq.     249.70  E(vib)   ...       0.31
freq.     266.08  E(vib)   ...       0.29
freq.     382.84  E(vib)   ...       0.20
freq.     600.43  E(vib)   ...       0.10
freq.     607.07  E(vib)   ...       0.10
freq.     759.30  E(vib)   ...       0.06
freq.     818.11  E(vib)   ...       0.05
freq.     835.07  E(vib)   ...       0.04
freq.     869.31  E(vib)   ...       0.04
freq.     937.04  E(vib)   ...       0.03
freq.     974.04  E(vib)   ...       0.03
freq.    1043.52  E(vib)   ...       0.02
freq.    1052.72  E(vib)   ...       0.02
freq.    1086.67  E(vib)   ...       0.02
freq.    1112.54  E(vib)   ...       0.01
freq.    1117.36  E(vib)   ...       0.01
freq.    1201.46  E(vib)   ...       0.01
freq.    1214.07  E(vib)   ...       0.01
freq.    1218.63  E(vib)   ...       0.01
freq.    1368.77  E(vib)   ...       0.01
freq.    1419.58  E(vib)   ...       0.00
freq.    1452.06  E(vib)   ...       0.00
freq.    1454.99  E(vib)   ...       0.00
freq.    1467.12  E(vib)   ...       0.00
freq.    1480.38  E(vib)   ...       0.00
freq.    1674.93  E(vib)   ...       0.00
freq.    3007.02  E(vib)   ...       0.00
freq.    3072.92  E(vib)   ...       0.00
freq.    3119.37  E(vib)   ...       0.00
freq.    3119.66  E(vib)   ...       0.00
freq.    3134.02  E(vib)   ...       0.00
freq.    3164.36  E(vib)   ...       0.00
freq.    3208.71  E(vib)   ...       0.00
freq.    3223.88  E(vib)   ...       0.00

------------
INNER ENERGY
------------

The inner energy is: U= E(el) + E(ZPE) + E(vib) + E(rot) + E(trans)
    E(el)   - is the total energy from the electronic structure calculation
              = E(kin-el) + E(nuc-el) + E(el-el) + E(nuc-nuc)
    E(ZPE)  - the the zero temperature vibrational energy from the frequency calculation
    E(vib)  - the the finite temperature correction to E(ZPE) due to population
              of excited vibrational states
    E(rot)  - is the rotational thermal energy
    E(trans)- is the translational thermal energy

Summary of contributions to the inner energy U:
Electronic energy                ...   -270.49420775 Eh
Zero point energy                ...      0.11834588 Eh      74.26 kcal/mol
Thermal vibrational correction   ...      0.00360911 Eh       2.26 kcal/mol
Thermal rotational correction    ...      0.00141627 Eh       0.89 kcal/mol
Thermal translational correction ...      0.00141627 Eh       0.89 kcal/mol
-----------------------------------------------------------------------
Total thermal energy                   -270.36942022 Eh

Summary of corrections to the electronic energy:
(perhaps to be used in another calculation)
Total thermal correction                  0.00644165 Eh       4.04 kcal/mol
Non-thermal (ZPE) correction              0.11834588 Eh      74.26 kcal/mol
-----------------------------------------------------------------------
Total correction                          0.12478753 Eh      78.31 kcal/mol

--------
ENTHALPY
--------

The enthalpy is H = U + kB*T
                kB is Boltzmann's constant
Total thermal energy              ...   -270.36942022 Eh
Thermal Enthalpy correction       ...      0.00094421 Eh       0.59 kcal/mol
-----------------------------------------------------------------------
Total Enthalpy                    ...   -270.36847601 Eh

Note: Only C1 symmetry has been detected, increase convergence thresholds
      if your molecule has a higher symmetry. Symmetry factor of 1.0 is
      used for the rotational entropy correction.

Note: Rotational entropy computed according to Herzberg
Infrared and Raman Spectra, Chapter V,1, Van Nostrand Reinhold, 1945
Point Group:  C1, Symmetry Number:   1
Rotational constants in cm-1:     0.239356     0.088227     0.076849

Vibrational entropy computed according to the QRRHO of S. Grimme
Chem.Eur.J. 2012 18 9955 using a reference frequency of 100.0 cm-1

-------
ENTROPY
-------

The entropy contributions are T*S = T*(S(el)+S(vib)+S(rot)+S(trans))
     S(el)   - electronic entropy
     S(vib)  - vibrational entropy
     S(rot)  - rotational entropy
     S(trans)- translational entropy
The entropies will be listed as multiplied by the temperature to get
units of energy

Electronic entropy                ...      0.00000000 Eh      0.00 kcal/mol
Vibrational entropy               ...      0.00604691 Eh      3.79 kcal/mol
Rotational entropy                ...      0.01254331 Eh      7.87 kcal/mol
Translational entropy             ...      0.01862630 Eh     11.69 kcal/mol
-----------------------------------------------------------------------
Final entropy term                ...      0.03721652 Eh     23.35 kcal/mol

In case the symmetry of your molecule has not been determined correctly
or in case you have a reason to use a different symmetry number we print
out the resulting rotational entropy values for sn=1,12:

 non-linear molecules -----------------------------------
|  sn= 1 | S(rot)=       0.01254331 Eh      7.87 kcal/mol|
|  sn= 2 | S(rot)=       0.01188885 Eh      7.46 kcal/mol|
|  sn= 3 | S(rot)=       0.01150602 Eh      7.22 kcal/mol|
|  sn= 4 | S(rot)=       0.01123439 Eh      7.05 kcal/mol|
|  sn= 5 | S(rot)=       0.01102371 Eh      6.92 kcal/mol|
|  sn= 6 | S(rot)=       0.01085156 Eh      6.81 kcal/mol|
|  sn= 7 | S(rot)=       0.01070602 Eh      6.72 kcal/mol|
|  sn= 8 | S(rot)=       0.01057994 Eh      6.64 kcal/mol|
|  sn= 9 | S(rot)=       0.01046873 Eh      6.57 kcal/mol|
|  sn=10 | S(rot)=       0.01036925 Eh      6.51 kcal/mol|
|  sn=11 | S(rot)=       0.01027926 Eh      6.45 kcal/mol|
|  sn=12 | S(rot)=       0.01019711 Eh      6.40 kcal/mol|
 linear molecules ---------------------------------------
|  Dinfh | S(rot)=       0.00774849 Eh      4.86 kcal/mol|
|  Cinfv | S(rot)=       0.00840294 Eh      5.27 kcal/mol|
 --------------------------------------------------------

-------------------
GIBBS FREE ENERGY
-------------------

The Gibbs free energy is G = H - T*S

                             ****ORCA TERMINATED NORMALLY****
TOTAL RUN TIME: 0 days 0 hours 6 minutes 30 seconds 117 msec
