                         Program Version 6.0.0  -   RELEASE  -
|  1> ! r2SCAN-3c DEF2-TZVP FREQ
|  2> * xyzfile 0 1 vacuum_censo.xyz
|  3>
|  4>                          ****END OF INPUT****

CARTESIAN COORDINATES (ANGSTROEM)
---------------------------------
  C      2.032224    0.762025   -0.000129
  C      0.777883   -0.078725   -0.000068
  O      0.814233   -1.296378    0.000540
  C     -0.510976    0.663913   -0.000511
  C     -1.674241    0.023114   -0.741848
  C     -1.674065    0.024248    0.742158
  H      2.042601    1.415235   -0.880343
  H      2.041815    1.416780    0.878942
  H      2.915675    0.123396    0.000795
  H     -0.455435    1.747826   -0.001297
  H     -2.345702    0.694437   -1.264988
  H     -1.442679   -0.913482   -1.237196
  H     -2.345385    0.696371    1.264454
  H     -1.442386   -0.911586    1.238890

 Total Charge           Charge          ....    0
 Multiplicity           Mult            ....    1
 Number of Electrons    NEL             ....   46
 Basis Dimension        Dim             ....  234

ORBITAL ENERGIES
----------------

  NO   OCC          E(Eh)            E(eV)
   0   2.0000     -18.929785      -515.1056
   1   2.0000     -10.116809      -275.2924
   2   2.0000     -10.052662      -273.5468
   3   2.0000     -10.048213      -273.4258
   4   2.0000     -10.048019      -273.4205
   5   2.0000     -10.034469      -273.0518
   6   2.0000      -0.997339       -27.1390
   7   2.0000      -0.836625       -22.7657
   8   2.0000      -0.718514       -19.5517
   9   2.0000      -0.610054       -16.6004
  10   2.0000      -0.577493       -15.7144
  11   2.0000      -0.503414       -13.6986
  12   2.0000      -0.472460       -12.8563
  13   2.0000      -0.443122       -12.0580
  14   2.0000      -0.412594       -11.2273
  15   2.0000      -0.392292       -10.6748
  16   2.0000      -0.384233       -10.4555
  17   2.0000      -0.350152        -9.5281
  18   2.0000      -0.350128        -9.5275
  19   2.0000      -0.328030        -8.9261
  20   2.0000      -0.289157        -7.8684
  21   2.0000      -0.272611        -7.4181
  22   2.0000      -0.216059        -5.8793
  23   0.0000      -0.044727        -1.2171
  24   0.0000       0.045443         1.2366
  25   0.0000       0.065669         1.7869
  26   0.0000       0.079004         2.1498
  27   0.0000       0.086684         2.3588

MULLIKEN ATOMIC CHARGES
-----------------------
   0 C :   -0.325514
   1 C :    0.192866
   2 O :   -0.353252
   3 C :   -0.080005
   4 C :   -0.200251
   5 C :   -0.200277
   6 H :    0.121961
   7 H :    0.121958
   8 H :    0.129323
   9 H :    0.102829
  10 H :    0.112285
  11 H :    0.132897
  12 H :    0.112291
  13 H :    0.132887
Sum of atomic charges:    0.0000000

LOEWDIN ATOMIC CHARGES
----------------------
   0 C :   -0.260749
   1 C :   -0.351121
   2 O :    0.113560
   3 C :   -0.194813
   4 C :   -0.198133
   5 C :   -0.198112
   6 H :    0.136368
   7 H :    0.136353
   8 H :    0.130054
   9 H :    0.145799
  10 H :    0.130176
  11 H :    0.140225
  12 H :    0.130174
  13 H :    0.140219

  Mayer bond orders larger than 0.100000
B(  0-C ,  1-C ) :   0.9719 B(  0-C ,  6-H ) :   0.9482 B(  0-C ,  7-H ) :   0.9483
B(  0-C ,  8-H ) :   0.9753 B(  1-C ,  2-O ) :   2.0085 B(  1-C ,  3-C ) :   0.9681
B(  3-C ,  4-C ) :   0.8955 B(  3-C ,  5-C ) :   0.8954 B(  3-C ,  9-H ) :   0.9530
B(  4-C ,  5-C ) :   0.9996 B(  4-C , 10-H ) :   0.9633 B(  4-C , 11-H ) :   0.9581
B(  5-C , 12-H ) :   0.9633 B(  5-C , 13-H ) :   0.9581

Dispersion correction           -0.003198754
FINAL SINGLE POINT ENERGY      -270.494737629901

DIPOLE MOMENT
-------------

Method             : SCF
Type of density    : Electron Density
Multiplicity       :   1
Irrep              :   0
Energy             :  -270.4968824726406638 Eh
Relativity type    :
Basis              : AO
                                X                 Y                 Z
Electronic contribution:      0.654206735      -2.833887080       0.000500304
Nuclear contribution   :     -0.900748883       3.957933800      -0.000966327
                        -----------------------------------------
Total Dipole Moment    :     -0.246542148       1.124046719      -0.000466023
                        -----------------------------------------
Magnitude (a.u.)       :      1.150766820
Magnitude (Debye)      :      2.925016802

VIBRATIONAL FREQUENCIES
-----------------------

Scaling factor for frequencies =  1.000000000  (already applied!)

     0:       0.00 cm**-1
     1:       0.00 cm**-1
     2:       0.00 cm**-1
     3:       0.00 cm**-1
     4:       0.00 cm**-1
     5:       0.00 cm**-1
     6:      78.87 cm**-1
     7:     149.94 cm**-1
     8:     249.68 cm**-1
     9:     263.84 cm**-1
    10:     379.54 cm**-1
    11:     592.96 cm**-1
    12:     599.74 cm**-1
    13:     752.36 cm**-1
    14:     816.46 cm**-1
    15:     839.73 cm**-1
    16:     873.76 cm**-1
    17:     926.48 cm**-1
    18:     962.63 cm**-1
    19:    1041.07 cm**-1
    20:    1049.45 cm**-1
    21:    1085.15 cm**-1
    22:    1109.50 cm**-1
    23:    1119.50 cm**-1
    24:    1186.72 cm**-1
    25:    1213.44 cm**-1
    26:    1218.53 cm**-1
    27:    1363.63 cm**-1
    28:    1402.15 cm**-1
    29:    1450.85 cm**-1
    30:    1456.24 cm**-1
    31:    1467.04 cm**-1
    32:    1479.30 cm**-1
    33:    1742.56 cm**-1
    34:    3008.76 cm**-1
    35:    3076.25 cm**-1
    36:    3120.92 cm**-1
    37:    3120.98 cm**-1
    38:    3137.15 cm**-1
    39:    3153.14 cm**-1
    40:    3211.41 cm**-1
    41:    3226.20 cm**-1

IR SPECTRUM
-----------

 Mode   freq       eps      Int      T**2         TX        TY        TZ
       cm**-1   L/(mol*cm) km/mol    a.u.
----------------------------------------------------------------------------
  6:     78.87   0.000372    1.88  0.001473  ( 0.000001 -0.000028 -0.038377)
  7:    149.94   0.000013    0.06  0.000026  (-0.000017  0.000010  0.005143)
  8:    249.68   0.000886    4.48  0.001108  ( 0.031236 -0.011494 -0.000002)
  9:    263.84   0.000085    0.43  0.000100  (-0.000029  0.000038 -0.010012)
 10:    379.54   0.000869    4.39  0.000715  ( 0.018223  0.019562 -0.000010)
 11:    592.96   0.001646    8.32  0.000866  (-0.028817  0.006004  0.000009)
 12:    599.74   0.000186    0.94  0.000097  (-0.000070  0.000066 -0.009833)
 13:    752.36   0.000082    0.42  0.000034  ( 0.000401 -0.005825  0.000005)
 14:    816.46   0.000699    3.53  0.000267  ( 0.015824 -0.004116  0.000002)
 15:    839.73   0.001031    5.21  0.000383  (-0.000008 -0.000020 -0.019573)
 16:    873.76   0.000013    0.06  0.000005  (-0.000039 -0.000008  0.002140)
 17:    926.48   0.001973    9.97  0.000665  ( 0.025770  0.000683 -0.000016)
 18:    962.63   0.013237   66.90  0.004291  ( 0.065500  0.000957 -0.000011)
 19:   1041.07   0.000808    4.08  0.000242  ( 0.000001 -0.000034  0.015561)
 20:   1049.45   0.002115   10.69  0.000629  ( 0.002048 -0.024993  0.000013)
 21:   1085.15   0.000374    1.89  0.000108  ( 0.000007 -0.000022 -0.010374)
 22:   1109.50   0.003320   16.78  0.000934  (-0.030505  0.001791 -0.000003)
 23:   1119.50   0.000414    2.09  0.000115  ( 0.000014 -0.000006 -0.010747)
 24:   1186.72   0.017136   86.60  0.004506  (-0.066375 -0.010027  0.000003)
 25:   1213.44   0.000063    0.32  0.000016  ( 0.000005 -0.000005 -0.004039)
 26:   1218.53   0.002067   10.45  0.000529  (-0.022032 -0.006626  0.000007)
 27:   1363.63   0.003537   17.88  0.000810  (-0.014790 -0.024306  0.000015)
 28:   1402.15   0.021465  108.48  0.004777  ( 0.069118  0.000229 -0.000005)
 29:   1450.85   0.000927    4.69  0.000199  ( 0.000005  0.000015  0.014123)
 30:   1456.24   0.003410   17.24  0.000731  (-0.000815 -0.027022  0.000006)
 31:   1467.04   0.002064   10.43  0.000439  ( 0.000012  0.000009  0.020954)
 32:   1479.30   0.001651    8.34  0.000348  (-0.010890  0.015154 -0.000005)
 33:   1742.56   0.027802  140.50  0.004979  (-0.016083  0.068704 -0.000022)
 34:   3008.76   0.000667    3.37  0.000069  ( 0.002951  0.007774 -0.000006)
 35:   3076.25   0.001454    7.35  0.000147  ( 0.000001 -0.000016 -0.012144)
 36:   3120.92   0.003166   16.00  0.000317  ( 0.000556 -0.000028 -0.017784)
 37:   3120.98   0.002334   11.80  0.000233  (-0.015257  0.000430 -0.000651)
 38:   3137.15   0.002344   11.85  0.000233  (-0.014099  0.005869 -0.000008)
 39:   3153.14   0.002032   10.27  0.000201  ( 0.001953  0.014046 -0.000010)
 40:   3211.41   0.000076    0.38  0.000007  (-0.000002  0.000008  0.002712)
 41:   3226.20   0.000782    3.95  0.000076  ( 0.003226 -0.008075  0.000008)

--------------------------
THERMOCHEMISTRY AT 298.15K
--------------------------

Temperature         ...   298.15 K
Pressure            ...     1.00 atm
Total Mass          ...    84.12 AMU
Quasi RRHO          ...     True
Cut-Off Frequency   ...     1.00 cm^-1

Throughout the following assumptions are being made:
  (1) The electronic state is orbitally nondegenerate
  (2) There are no thermally accessible electronically excited states
  (3) Hindered rotations indicated by low frequency modes are not
      treated as such but are treated as vibrations and this may
      cause some error
  (4) All equations used are the standard statistical mechanics
      equations for an ideal gas
  (5) All vibrations are strictly harmonic

freq.      78.87  E(vib)   ...       0.49
freq.     149.94  E(vib)   ...       0.40
freq.     249.68  E(vib)   ...       0.31
freq.     263.84  E(vib)   ...       0.29
freq.     379.54  E(vib)   ...       0.21
freq.     592.96  E(vib)   ...       0.10
freq.     599.74  E(vib)   ...       0.10
freq.     752.36  E(vib)   ...       0.06
freq.     816.46  E(vib)   ...       0.05
freq.     839.73  E(vib)   ...       0.04
freq.     873.76  E(vib)   ...       0.04
freq.     926.48  E(vib)   ...       0.03
freq.     962.63  E(vib)   ...       0.03
freq.    1041.07  E(vib)   ...       0.02
freq.    1049.45  E(vib)   ...       0.02
freq.    1085.15  E(vib)   ...       0.02
freq.    1109.50  E(vib)   ...       0.02
freq.    1119.50  E(vib)   ...       0.01
freq.    1186.72  E(vib)   ...       0.01
freq.    1213.44  E(vib)   ...       0.01
freq.    1218.53  E(vib)   ...       0.01
freq.    1363.63  E(vib)   ...       0.01
freq.    1402.15  E(vib)   ...       0.00
freq.    1450.85  E(vib)   ...       0.00
freq.    1456.24  E(vib)   ...       0.00
freq.    1467.04  E(vib)   ...       0.00
freq.    1479.30  E(vib)   ...       0.00
freq.    1742.56  E(vib)   ...       0.00
freq.    3008.76  E(vib)   ...       0.00
freq.    3076.25  E(vib)   ...       0.00
freq.    3120.92  E(vib)   ...       0.00
freq.    3120.98  E(vib)   ...       0.00
freq.    3137.15  E(vib)   ...       0.00
freq.    3153.14  E(vib)   ...       0.00
freq.    3211.41  E(vib)   ...       0.00
freq.    3226.20  E(vib)   ...       0.00

------------
INNER ENERGY
------------

The inner energy is: U= E(el) + E(ZPE) + E(vib) + E(rot) + E(trans)
    E(el)   - is the total energy from the electronic structure calculation
              = E(kin-el) + E(nuc-el) + E(el-el) + E(nuc-nuc)
    E(ZPE)  - the the zero temperature vibrational energy from the frequency calculation
    E(vib)  - the the finite temperature correction to E(ZPE) due to population
              of excited vibrational states
    E(rot)  - is the rotational thermal energy
    E(trans)- is the translational thermal energy

Summary of contributions to the inner energy U:
Electronic energy                ...   -270.49473763 Eh
Zero point energy                ...      0.11829600 Eh      74.23 kcal/mol
Thermal vibrational correction   ...      0.00363850 Eh       2.28 kcal/mol
Thermal rotational correction    ...      0.00141627 Eh       0.89 kcal/mol
Thermal translational correction ...      0.00141627 Eh       0.89 kcal/mol
-----------------------------------------------------------------------
Total thermal energy                   -270.36997059 Eh

Summary of corrections to the electronic energy:
(perhaps to be used in another calculation)
Total thermal correction                  0.00647104 Eh       4.06 kcal/mol
Non-thermal (ZPE) correction              0.11829600 Eh      74.23 kcal/mol
-----------------------------------------------------------------------
Total correction                          0.12476704 Eh      78.29 kcal/mol

--------
ENTHALPY
--------

The enthalpy is H = U + kB*T
                kB is Boltzmann's constant
Total thermal energy              ...   -270.36997059 Eh
Thermal Enthalpy correction       ...      0.00094421 Eh       0.59 kcal/mol
-----------------------------------------------------------------------
Total Enthalpy                    ...   -270.36902638 Eh

Note: Only C1 symmetry has been detected, increase convergence thresholds
      if your molecule has a higher symmetry. Symmetry factor of 1.0 is
      used for the rotational entropy correction.

Note: Rotational entropy computed according to Herzberg
Infrared and Raman Spectra, Chapter V,1, Van Nostrand Reinhold, 1945
Point Group:  C1, Symmetry Number:   1
Rotational constants in cm-1:     0.240376     0.088022     0.076819

Vibrational entropy computed according to the QRRHO of S. Grimme
Chem.Eur.J. 2012 18 9955 using a reference frequency of 100.0 cm-1

-------
ENTROPY
-------

The entropy contributions are T*S = T*(S(el)+S(vib)+S(rot)+S(trans))
     S(el)   - electronic entropy
     S(vib)  - vibrational entropy
     S(rot)  - rotational entropy
     S(trans)- translational entropy
The entropies will be listed as multiplied by the temperature to get
units of energy

Electronic entropy                ...      0.00000000 Eh      0.00 kcal/mol
Vibrational entropy               ...      0.00611212 Eh      3.84 kcal/mol
Rotational entropy                ...      0.01254259 Eh      7.87 kcal/mol
Translational entropy             ...      0.01862630 Eh     11.69 kcal/mol
-----------------------------------------------------------------------
Final entropy term                ...      0.03728100 Eh     23.39 kcal/mol

In case the symmetry of your molecule has not been determined correctly
or in case you have a reason to use a different symmetry number we print
out the resulting rotational entropy values for sn=1,12:

 non-linear molecules -----------------------------------
|  sn= 1 | S(rot)=       0.01254259 Eh      7.87 kcal/mol|
|  sn= 2 | S(rot)=       0.01188813 Eh      7.46 kcal/mol|
|  sn= 3 | S(rot)=       0.01150530 Eh      7.22 kcal/mol|
|  sn= 4 | S(rot)=       0.01123367 Eh      7.05 kcal/mol|
|  sn= 5 | S(rot)=       0.01102299 Eh      6.92 kcal/mol|
|  sn= 6 | S(rot)=       0.01085084 Eh      6.81 kcal/mol|
|  sn= 7 | S(rot)=       0.01070529 Eh      6.72 kcal/mol|
|  sn= 8 | S(rot)=       0.01057922 Eh      6.64 kcal/mol|
|  sn= 9 | S(rot)=       0.01046801 Eh      6.57 kcal/mol|
|  sn=10 | S(rot)=       0.01036853 Eh      6.51 kcal/mol|
|  sn=11 | S(rot)=       0.01027854 Eh      6.45 kcal/mol|
|  sn=12 | S(rot)=       0.01019638 Eh      6.40 kcal/mol|
 linear molecules ---------------------------------------
|  Dinfh | S(rot)=       0.00774886 Eh      4.86 kcal/mol|
|  Cinfv | S(rot)=       0.00840332 Eh      5.27 kcal/mol|
 --------------------------------------------------------

-------------------
GIBBS FREE ENERGY
-------------------

The Gibbs free energy is G = H - T*S

                             ****ORCA TERMINATED NORMALLY****
TOTAL RUN TIME: 0 days 0 hours 6 minutes 25 seconds 636 msec
