                         Program Version 6.0.1  -  RELEASE   -
|  1> ! pbe def2-sv(p) def2/J RI DEFGRID1 loosescf d4 GCP(DFT/SV(P)) printgap
|  2> %output
|  3>     printlevel normal
|  4> end
|  5> * xyz 0 1
|  6> C -2.2782140961 -0.3349997777 -0.0223136535
|  7> C -1.8710593955 0.9893895017 -0.0219159391
|  8> C -0.5244608011 1.3006707493 -0.0081553248
|  9> C 0.4299077704 0.2901166897 0.0055168461
| 10> C 0.0179382992 -1.0332001565 0.0051893628
| 11> C -1.3314068012 -1.3434460788 -0.0087968135
| 12> C 1.8923734733 0.6559733466 0.0212672744
| 13> O 2.7005252014 -0.4985218686 0.0208139847
| 14> H -3.3308418821 -0.577197187 -0.0332145568
| 15> H -2.6057321768 1.7814487671 -0.0325061669
| 16> H -0.2076020626 2.3345216948 -0.0079691867
| 17> H 0.7633687526 -1.8121358332 0.0156285556
| 18> H -1.6429237026 -2.3778518298 -0.0090767116
| 19> H 2.1109546654 1.2787069553 -0.8615733792
| 20> H 2.094580262 1.2662621493 0.9167517811
| 21> H 3.624416841 -0.2306631921 0.0296290704
| 22> *
| 23>
| 24>                          ****END OF INPUT****

CARTESIAN COORDINATES (ANGSTROEM)
---------------------------------
  C     -2.278214   -0.335000   -0.022314
  C     -1.871059    0.989390   -0.021916
  C     -0.524461    1.300671   -0.008155
  C      0.429908    0.290117    0.005517
  C      0.017938   -1.033200    0.005189
  C     -1.331407   -1.343446   -0.008797
  C      1.892373    0.655973    0.021267
  O      2.700525   -0.498522    0.020814
  H     -3.330842   -0.577197   -0.033215
  H     -2.605732    1.781449   -0.032506
  H     -0.207602    2.334522   -0.007969
  H      0.763369   -1.812136    0.015629
  H     -1.642924   -2.377852   -0.009077
  H      2.110955    1.278707   -0.861573
  H      2.094580    1.266262    0.916752
  H      3.624417   -0.230663    0.029629

 Total Charge           Charge          ....    0
 Multiplicity           Mult            ....    1
 Number of Electrons    NEL             ....   58
 Basis Dimension        Dim             ....  128

ORBITAL ENERGIES
----------------

  NO   OCC          E(Eh)            E(eV)
   0   2.0000     -18.749762      -510.2070
   1   2.0000      -9.939726      -270.4737
   2   2.0000      -9.897292      -269.3190
   3   2.0000      -9.887233      -269.0453
   4   2.0000      -9.886976      -269.0383
   5   2.0000      -9.885981      -269.0112
   6   2.0000      -9.884931      -268.9826
   7   2.0000      -9.881962      -268.9019
   8   2.0000      -0.928246       -25.2589
   9   2.0000      -0.772057       -21.0087
  10   2.0000      -0.687123       -18.6976
  11   2.0000      -0.663978       -18.0678
  12   2.0000      -0.603966       -16.4348
  13   2.0000      -0.540909       -14.7189
  14   2.0000      -0.516536       -14.0557
  15   2.0000      -0.466265       -12.6877
  16   2.0000      -0.459262       -12.4971
  17   2.0000      -0.408927       -11.1275
  18   2.0000      -0.396785       -10.7971
  19   2.0000      -0.389087       -10.5876
  20   2.0000      -0.371858       -10.1188
  21   2.0000      -0.367558       -10.0017
  22   2.0000      -0.321444        -8.7469
  23   2.0000      -0.308282        -8.3888
  24   2.0000      -0.294552        -8.0152
  25   2.0000      -0.281200        -7.6519
  26   2.0000      -0.232593        -6.3292
  27   2.0000      -0.222893        -6.0652
  28   2.0000      -0.208256        -5.6669
  29   0.0000      -0.031193        -0.8488
  30   0.0000      -0.025023        -0.6809
  31   0.0000       0.023989         0.6528
  32   0.0000       0.051036         1.3888
  33   0.0000       0.069849         1.9007

MULLIKEN ATOMIC CHARGES
-----------------------
   0 C :   -0.049940
   1 C :   -0.048753
   2 C :   -0.108258
   3 C :    0.009586
   4 C :   -0.103662
   5 C :   -0.042783
   6 C :    0.056275
   7 O :   -0.422894
   8 H :    0.049987
   9 H :    0.049613
  10 H :    0.034487
  11 H :    0.055883
  12 H :    0.050678
  13 H :    0.083190
  14 H :    0.083528
  15 H :    0.303064
Sum of atomic charges:    0.0000000

LOEWDIN ATOMIC CHARGES
----------------------
   0 C :   -0.129688
   1 C :   -0.122870
   2 C :   -0.124321
   3 C :   -0.056531
   4 C :   -0.120583
   5 C :   -0.120538
   6 C :   -0.106239
   7 O :   -0.336962
   8 H :    0.121527
   9 H :    0.121954
  10 H :    0.119011
  11 H :    0.129729
  12 H :    0.122408
  13 H :    0.106551
  14 H :    0.106696
  15 H :    0.289854

  Mayer bond orders larger than 0.100000
B(  0-C ,  1-C ) :   1.3737 B(  0-C ,  5-C ) :   1.3880 B(  0-C ,  8-H ) :   0.9652
B(  1-C ,  2-C ) :   1.3910 B(  1-C ,  9-H ) :   0.9636 B(  2-C ,  3-C ) :   1.3742
B(  2-C , 10-H ) :   0.9646 B(  3-C ,  4-C ) :   1.4337 B(  3-C ,  6-C ) :   1.0334
B(  4-C ,  5-C ) :   1.3389 B(  4-C , 11-H ) :   0.9568 B(  5-C , 12-H ) :   0.9657
B(  6-C ,  7-O ) :   1.1152 B(  6-C , 13-H ) :   0.9093 B(  6-C , 14-H ) :   0.9090
B(  7-O , 15-H ) :   0.8486

Dispersion correction           -0.015322477
FINAL SINGLE POINT ENERGY      -346.003696231711

DIPOLE MOMENT
-------------

Method             : SCF
Type of density    : Electron Density
Multiplicity       :   1
Irrep              :   0
Energy             :  -346.0557617893772431 Eh
Relativity type    :
Basis              : AO
                                X                 Y                 Z
Electronic contribution:     -0.291337498      -1.050904941      -0.009263868
Nuclear contribution   :      0.796385629       1.552875025       0.016885300
                        -----------------------------------------
Total Dipole Moment    :      0.505048131       0.501970084       0.007621432
                        -----------------------------------------
Magnitude (a.u.)       :      0.712113521
Magnitude (Debye)      :      1.810048723

Rotational constants in cm-1:             0.166866             0.050162             0.038852
Rotational constants in MHz :          5002.521489          1503.816027          1164.739734

                             ****ORCA TERMINATED NORMALLY****
TOTAL RUN TIME: 0 days 0 hours 1 minutes 12 seconds 661 msec
