                         Program Version 6.0.1  -  RELEASE   -
|  1> ! pbe def2-sv(p) def2/J RI DEFGRID1 loosescf d4 GCP(DFT/SV(P)) printgap
|  2> %output
|  3>     printlevel normal
|  4> end
|  5> * xyz 0 1
|  6> C -3.5475864164 -0.25678606 -0.4115345628
|  7> O -2.1860467216 -0.0907029714 -0.7837474123
|  8> C -1.3140550691 0.0808862592 0.2198355674
|  9> O -1.6370336436 0.11164729 1.3778923119
| 10> C 0.1015182435 0.1857138154 -0.3021482162
| 11> C 0.7558471852 -1.1977479097 -0.1745615518
| 12> C 2.2049085139 -1.1464154235 -0.6472628892
| 13> C 2.9926025153 -0.1169529549 0.1565178472
| 14> C 2.3473838797 1.2593627245 0.030043216
| 15> C 0.8966008269 1.2181566696 0.4980406628
| 16> H -3.9123249393 0.6380895533 0.0964683442
| 17> H -3.6542676055 -1.1097743193 0.2614640448
| 18> H -4.097960353 -0.4242657922 -1.3336074757
| 19> H 0.0596470552 0.4677452973 -1.3579619563
| 20> H 0.7209705076 -1.5072417389 0.8723148056
| 21> H 0.1937094215 -1.9252906325 -0.7641846197
| 22> H 2.6591444797 -2.1332437197 -0.538454187
| 23> H 2.2319759001 -0.8794037017 -1.7062485112
| 24> H 3.0086792906 -0.413828115 1.2073182221
| 25> H 4.0247214584 -0.0787513583 -0.1977169672
| 26> H 2.9030464274 1.9876132376 0.6237102475
| 27> H 2.3828418646 1.581440303 -1.0135388015
| 28> H 0.8511899925 0.9490522519 1.5547985408
| 29> H 0.4384751256 2.2029630435 0.3845548529
| 30> *
| 31>
| 32>                          ****END OF INPUT****

CARTESIAN COORDINATES (ANGSTROEM)
---------------------------------
  C     -3.547586   -0.256786   -0.411535
  O     -2.186047   -0.090703   -0.783747
  C     -1.314055    0.080886    0.219836
  O     -1.637034    0.111647    1.377892
  C      0.101518    0.185714   -0.302148
  C      0.755847   -1.197748   -0.174562
  C      2.204909   -1.146415   -0.647263
  C      2.992603   -0.116953    0.156518
  C      2.347384    1.259363    0.030043
  C      0.896601    1.218157    0.498041
  H     -3.912325    0.638090    0.096468
  H     -3.654268   -1.109774    0.261464
  H     -4.097960   -0.424266   -1.333607
  H      0.059647    0.467745   -1.357962
  H      0.720971   -1.507242    0.872315
  H      0.193709   -1.925291   -0.764185
  H      2.659144   -2.133244   -0.538454
  H      2.231976   -0.879404   -1.706249
  H      3.008679   -0.413828    1.207318
  H      4.024721   -0.078751   -0.197717
  H      2.903046    1.987613    0.623710
  H      2.382842    1.581440   -1.013539
  H      0.851190    0.949052    1.554799
  H      0.438475    2.202963    0.384555

 Total Charge           Charge          ....    0
 Multiplicity           Mult            ....    1
 Number of Electrons    NEL             ....   78
 Basis Dimension        Dim             ....  168

ORBITAL ENERGIES
----------------

  NO   OCC          E(Eh)            E(eV)
   0   2.0000     -18.795072      -511.4399
   1   2.0000     -18.735539      -509.8199
   2   2.0000     -10.000364      -272.1237
   3   2.0000      -9.937711      -270.4189
   4   2.0000      -9.901400      -269.4308
   5   2.0000      -9.890508      -269.1344
   6   2.0000      -9.885753      -269.0050
   7   2.0000      -9.884081      -268.9595
   8   2.0000      -9.883731      -268.9500
   9   2.0000      -9.883264      -268.9373
  10   2.0000      -1.003329       -27.3020
  11   2.0000      -0.913487       -24.8572
  12   2.0000      -0.762615       -20.7518
  13   2.0000      -0.693030       -18.8583
  14   2.0000      -0.669392       -18.2151
  15   2.0000      -0.649222       -17.6662
  16   2.0000      -0.558611       -15.2006
  17   2.0000      -0.546008       -14.8576
  18   2.0000      -0.508695       -13.8423
  19   2.0000      -0.491704       -13.3799
  20   2.0000      -0.456242       -12.4150
  21   2.0000      -0.431910       -11.7529
  22   2.0000      -0.421419       -11.4674
  23   2.0000      -0.413753       -11.2588
  24   2.0000      -0.396051       -10.7771
  25   2.0000      -0.391596       -10.6559
  26   2.0000      -0.377928       -10.2839
  27   2.0000      -0.361677        -9.8417
  28   2.0000      -0.345332        -9.3970
  29   2.0000      -0.338199        -9.2029
  30   2.0000      -0.320910        -8.7324
  31   2.0000      -0.308890        -8.4053
  32   2.0000      -0.304677        -8.2907
  33   2.0000      -0.303949        -8.2709
  34   2.0000      -0.284157        -7.7323
  35   2.0000      -0.269160        -7.3242
  36   2.0000      -0.262214        -7.1352
  37   2.0000      -0.256373        -6.9763
  38   2.0000      -0.218044        -5.9333
  39   0.0000      -0.016751        -0.4558
  40   0.0000       0.034411         0.9364
  41   0.0000       0.050874         1.3844
  42   0.0000       0.056849         1.5469
  43   0.0000       0.070777         1.9260

MULLIKEN ATOMIC CHARGES
-----------------------
   0 C :   -0.109245
   1 O :   -0.243255
   2 C :    0.163306
   3 O :   -0.198679
   4 C :   -0.181882
   5 C :   -0.152489
   6 C :   -0.117448
   7 C :   -0.165848
   8 C :   -0.130594
   9 C :   -0.128074
  10 H :    0.116194
  11 H :    0.116058
  12 H :    0.119269
  13 H :    0.072658
  14 H :    0.089244
  15 H :    0.089657
  16 H :    0.087323
  17 H :    0.073355
  18 H :    0.077991
  19 H :    0.085880
  20 H :    0.086812
  21 H :    0.071738
  22 H :    0.091594
  23 H :    0.086437
Sum of atomic charges:    0.0000000

LOEWDIN ATOMIC CHARGES
----------------------
   0 C :   -0.208125
   1 O :   -0.078455
   2 C :    0.047217
   3 O :   -0.154649
   4 C :   -0.165576
   5 C :   -0.208739
   6 C :   -0.224630
   7 C :   -0.227338
   8 C :   -0.225097
   9 C :   -0.212908
  10 H :    0.117949
  11 H :    0.117619
  12 H :    0.119010
  13 H :    0.125413
  14 H :    0.121431
  15 H :    0.118563
  16 H :    0.118164
  17 H :    0.114734
  18 H :    0.115762
  19 H :    0.116463
  20 H :    0.118019
  21 H :    0.113532
  22 H :    0.122881
  23 H :    0.118759

  Mayer bond orders larger than 0.100000
B(  0-C ,  1-O ) :   0.9479 B(  0-C , 10-H ) :   0.9524 B(  0-C , 11-H ) :   0.9504
B(  0-C , 12-H ) :   0.9591 B(  1-O ,  2-C ) :   1.2096 B(  2-C ,  3-O ) :   2.0672
B(  2-C ,  4-C ) :   0.9441 B(  4-C ,  5-C ) :   1.0831 B(  4-C ,  9-C ) :   1.0784
B(  4-C , 13-H ) :   0.8788 B(  5-C ,  6-C ) :   1.1372 B(  5-C , 14-H ) :   0.9073
B(  5-C , 15-H ) :   0.9154 B(  6-C ,  7-C ) :   1.1356 B(  6-C , 16-H ) :   0.9178
B(  6-C , 17-H ) :   0.9110 B(  7-C ,  8-C ) :   1.1359 B(  7-C , 18-H ) :   0.9153
B(  7-C , 19-H ) :   0.9196 B(  8-C ,  9-C ) :   1.1390 B(  8-C , 20-H ) :   0.9194
B(  8-C , 21-H ) :   0.9106 B(  9-C , 22-H ) :   0.9004 B(  9-C , 23-H ) :   0.9212

Dispersion correction           -0.022536905
FINAL SINGLE POINT ENERGY      -462.708401453676

DIPOLE MOMENT
-------------

Method             : SCF
Type of density    : Electron Density
Multiplicity       :   1
Irrep              :   0
Energy             :  -462.7962577419489207 Eh
Relativity type    :
Basis              : AO
                                X                 Y                 Z
Electronic contribution:     -7.291739804       0.497397227       1.173278861
Nuclear contribution   :      7.270261252      -0.604709431      -1.784106753
                        -----------------------------------------
Total Dipole Moment    :     -0.021478552      -0.107312204      -0.610827892
                        -----------------------------------------
Magnitude (a.u.)       :      0.620554551
Magnitude (Debye)      :      1.577324317

Rotational constants in cm-1:             0.103126             0.024427             0.022395
Rotational constants in MHz :          3091.626854           732.300260           671.373833

                             ****ORCA TERMINATED NORMALLY****
TOTAL RUN TIME: 0 days 0 hours 0 minutes 8 seconds 486 msec
