                         Program Version 6.0.1  -  RELEASE   -
|  1> ! pbe def2-sv(p) def2/J RI DEFGRID1 loosescf d4 GCP(DFT/SV(P)) printgap
|  2> %output
|  3>     printlevel normal
|  4> end
|  5> * xyz 0 1
|  6> C -3.6485734608 -0.0327493074 -0.0522355932
|  7> C -2.1527080591 -0.0189716766 -0.0034095101
|  8> C -1.4352250299 -1.18688202 0.2280374072
|  9> C -0.0534757753 -1.1865457046 0.2377620867
| 10> C 0.6507485912 -0.0038325881 0.0268368549
| 11> C -0.0690919644 1.1744620473 -0.1754484004
| 12> C -1.447820838 1.1638509105 -0.2024042591
| 13> C 2.1325414895 0.0871858028 0.0386492997
| 14> O 2.6933590798 1.1023916663 0.3882694679
| 15> C 2.9150094612 -1.1055889836 -0.4589698533
| 16> H -4.0502369756 -0.8762587462 0.5039940037
| 17> H -4.0577067866 0.8890794982 0.3549825679
| 18> H -3.9832940151 -0.1188688288 -1.0867001087
| 19> H -1.9679005715 -2.1105736811 0.4050442937
| 20> H 0.4689054195 -2.107898303 0.4478585815
| 21> H 0.4792422197 2.0937543323 -0.3181561512
| 22> H -1.9889558977 2.0834523674 -0.3730695838
| 23> H 3.7582135559 -1.2887371379 0.2034175758
| 24> H 3.3193894958 -0.8458756472 -1.4370191768
| 25> H 2.3126623534 -2.0007876163 -0.5595859657
| 26> *
| 27>
| 28>                          ****END OF INPUT****

CARTESIAN COORDINATES (ANGSTROEM)
---------------------------------
  C     -3.648573   -0.032749   -0.052236
  C     -2.152708   -0.018972   -0.003410
  C     -1.435225   -1.186882    0.228037
  C     -0.053476   -1.186546    0.237762
  C      0.650749   -0.003833    0.026837
  C     -0.069092    1.174462   -0.175448
  C     -1.447821    1.163851   -0.202404
  C      2.132541    0.087186    0.038649
  O      2.693359    1.102392    0.388269
  C      2.915009   -1.105589   -0.458970
  H     -4.050237   -0.876259    0.503994
  H     -4.057707    0.889079    0.354983
  H     -3.983294   -0.118869   -1.086700
  H     -1.967901   -2.110574    0.405044
  H      0.468905   -2.107898    0.447859
  H      0.479242    2.093754   -0.318156
  H     -1.988956    2.083452   -0.373070
  H      3.758214   -1.288737    0.203418
  H      3.319389   -0.845876   -1.437019
  H      2.312662   -2.000788   -0.559586

 Total Charge           Charge          ....    0
 Multiplicity           Mult            ....    1
 Number of Electrons    NEL             ....   72
 Basis Dimension        Dim             ....  160

ORBITAL ENERGIES
----------------

  NO   OCC          E(Eh)            E(eV)
   0   2.0000     -18.732702      -509.7427
   1   2.0000      -9.969152      -271.2744
   2   2.0000      -9.916116      -269.8312
   3   2.0000      -9.903292      -269.4823
   4   2.0000      -9.900148      -269.3967
   5   2.0000      -9.898701      -269.3574
   6   2.0000      -9.898447      -269.3504
   7   2.0000      -9.898165      -269.3428
   8   2.0000      -9.893085      -269.2045
   9   2.0000      -9.884758      -268.9779
  10   2.0000      -0.934113       -25.4185
  11   2.0000      -0.788401       -21.4535
  12   2.0000      -0.714375       -19.4391
  13   2.0000      -0.679973       -18.5030
  14   2.0000      -0.665932       -18.1209
  15   2.0000      -0.625810       -17.0292
  16   2.0000      -0.553172       -15.0526
  17   2.0000      -0.543981       -14.8025
  18   2.0000      -0.498288       -13.5591
  19   2.0000      -0.441350       -12.0097
  20   2.0000      -0.430524       -11.7152
  21   2.0000      -0.404376       -11.0036
  22   2.0000      -0.396182       -10.7806
  23   2.0000      -0.395045       -10.7497
  24   2.0000      -0.387392       -10.5415
  25   2.0000      -0.381042       -10.3687
  26   2.0000      -0.368936       -10.0393
  27   2.0000      -0.347630        -9.4595
  28   2.0000      -0.343881        -9.3575
  29   2.0000      -0.331937        -9.0325
  30   2.0000      -0.316134        -8.6025
  31   2.0000      -0.306885        -8.3508
  32   2.0000      -0.301128        -8.1941
  33   2.0000      -0.238522        -6.4905
  34   2.0000      -0.228568        -6.2196
  35   2.0000      -0.195021        -5.3068
  36   0.0000      -0.078778        -2.1437
  37   0.0000      -0.043180        -1.1750
  38   0.0000      -0.003102        -0.0844
  39   0.0000       0.039284         1.0690
  40   0.0000       0.051672         1.4061

MULLIKEN ATOMIC CHARGES
-----------------------
   0 C :   -0.226885
   1 C :    0.055819
   2 C :   -0.111206
   3 C :   -0.105993
   4 C :    0.089865
   5 C :   -0.089510
   6 C :   -0.102686
   7 C :    0.006478
   8 O :   -0.165365
   9 C :   -0.261238
  10 H :    0.109368
  11 H :    0.113595
  12 H :    0.125928
  13 H :    0.039626
  14 H :    0.051930
  15 H :    0.058284
  16 H :    0.042343
  17 H :    0.123262
  18 H :    0.133748
  19 H :    0.112639
Sum of atomic charges:    0.0000000

LOEWDIN ATOMIC CHARGES
----------------------
   0 C :   -0.322503
   1 C :   -0.034466
   2 C :   -0.123840
   3 C :   -0.106020
   4 C :   -0.079197
   5 C :   -0.085509
   6 C :   -0.120675
   7 C :    0.044736
   8 O :   -0.129853
   9 C :   -0.362683
  10 H :    0.127873
  11 H :    0.130709
  12 H :    0.138458
  13 H :    0.123052
  14 H :    0.125443
  15 H :    0.132323
  16 H :    0.124134
  17 H :    0.141786
  18 H :    0.151229
  19 H :    0.125002

  Mayer bond orders larger than 0.100000
B(  0-C ,  1-C ) :   1.1014 B(  0-C , 10-H ) :   0.9425 B(  0-C , 11-H ) :   0.9396
B(  0-C , 12-H ) :   0.9293 B(  1-C ,  2-C ) :   1.3880 B(  1-C ,  6-C ) :   1.3599
B(  2-C ,  3-C ) :   1.3776 B(  2-C , 13-H ) :   0.9607 B(  3-C ,  4-C ) :   1.3420
B(  3-C , 14-H ) :   0.9523 B(  4-C ,  5-C ) :   1.3640 B(  4-C ,  7-C ) :   0.9338
B(  5-C ,  6-C ) :   1.3608 B(  5-C , 15-H ) :   0.9612 B(  6-C , 16-H ) :   0.9683
B(  7-C ,  8-O ) :   2.1584 B(  7-C ,  9-C ) :   1.0751 B(  9-C , 17-H ) :   0.9274
B(  9-C , 18-H ) :   0.9226 B(  9-C , 19-H ) :   0.9302

Dispersion correction           -0.020699115
FINAL SINGLE POINT ENERGY      -423.280203815224

DIPOLE MOMENT
-------------

Method             : SCF
Type of density    : Electron Density
Multiplicity       :   1
Irrep              :   0
Energy             :  -423.3355462970578742 Eh
Relativity type    :
Basis              : AO
                                X                 Y                 Z
Electronic contribution:      4.420129439       3.245125957       1.387762383
Nuclear contribution   :     -5.316739927      -4.001576579      -1.738523328
                        -----------------------------------------
Total Dipole Moment    :     -0.896610488      -0.756450622      -0.350760944
                        -----------------------------------------
Magnitude (a.u.)       :      1.224402364
Magnitude (Debye)      :      3.112183481

Rotational constants in cm-1:             0.121746             0.026201             0.022232
Rotational constants in MHz :          3649.862725           785.497029           666.484085

                             ****ORCA TERMINATED NORMALLY****
TOTAL RUN TIME: 0 days 0 hours 0 minutes 15 seconds 238 msec
