                         Program Version 6.0.0  -   RELEASE  -
|  1> ! M062X DEF2-TZVP FREQ
|  2> * xyzfile 0 1 censo.xyz
|  3>
|  4>                          ****END OF INPUT****

CARTESIAN COORDINATES (ANGSTROEM)
---------------------------------
  C      0.723280    0.554120   -0.241834
  C     -0.723084    0.554046    0.242070
  Cl    -1.820752    0.677206   -1.183854
  Cl    -1.132210   -0.885484    1.229257
  Cl     1.820955    0.676582    1.184138
  Cl     1.132321   -0.884982   -1.229674
  H      0.896496    1.440992   -0.855360
  H     -0.896254    1.440651    0.855998

 Total Charge           Charge          ....    0
 Multiplicity           Mult            ....    1
 Number of Electrons    NEL             ....   82
 Basis Dimension        Dim             ....  222

ORBITAL ENERGIES
----------------

  NO   OCC          E(Eh)            E(eV)
   0   2.0000    -102.667956     -2793.7371
   1   2.0000    -102.667952     -2793.7370
   2   2.0000    -102.665277     -2793.6642
   3   2.0000    -102.665274     -2793.6641
   4   2.0000     -10.696480      -291.0660
   5   2.0000     -10.696110      -291.0559
   6   2.0000      -9.829941      -267.4863
   7   2.0000      -9.829938      -267.4862
   8   2.0000      -9.827129      -267.4098
   9   2.0000      -9.827128      -267.4098
  10   2.0000      -7.552013      -205.5007
  11   2.0000      -7.552011      -205.5007
  12   2.0000      -7.549275      -205.4262
  13   2.0000      -7.549271      -205.4261
  14   2.0000      -7.546682      -205.3557
  15   2.0000      -7.546681      -205.3556
  16   2.0000      -7.546552      -205.3521
  17   2.0000      -7.546551      -205.3521
  18   2.0000      -7.543842      -205.2784
  19   2.0000      -7.543841      -205.2784
  20   2.0000      -7.543736      -205.2755
  21   2.0000      -7.543735      -205.2755
  22   2.0000      -1.050593       -28.5881
  23   2.0000      -0.986945       -26.8561
  24   2.0000      -0.938088       -25.5267
  25   2.0000      -0.929975       -25.3059
  26   2.0000      -0.820835       -22.3361
  27   2.0000      -0.704181       -19.1617
  28   2.0000      -0.604863       -16.4592
  29   2.0000      -0.566593       -15.4178
  30   2.0000      -0.550730       -14.9861
  31   2.0000      -0.504911       -13.7393
  32   2.0000      -0.493773       -13.4363
  33   2.0000      -0.423443       -11.5225
  34   2.0000      -0.412121       -11.2144
  35   2.0000      -0.406326       -11.0567
  36   2.0000      -0.401079       -10.9139
  37   2.0000      -0.388511       -10.5719
  38   2.0000      -0.387852       -10.5540
  39   2.0000      -0.382304       -10.4030
  40   2.0000      -0.378529       -10.3003
  41   0.0000       0.006963         0.1895
  42   0.0000       0.012990         0.3535
  43   0.0000       0.052235         1.4214
  44   0.0000       0.052874         1.4388
  45   0.0000       0.080011         2.1772

MULLIKEN ATOMIC CHARGES
-----------------------
   0 C :   -0.081246
   1 C :   -0.081253
   2 Cl:   -0.066153
   3 Cl:   -0.048324
   4 Cl:   -0.066154
   5 Cl:   -0.048322
   6 H :    0.195724
   7 H :    0.195728
Sum of atomic charges:    0.0000000

LOEWDIN ATOMIC CHARGES
----------------------
   0 C :   -0.783559
   1 C :   -0.783554
   2 Cl:    0.317597
   3 Cl:    0.329144
   4 Cl:    0.317602
   5 Cl:    0.329147
   6 H :    0.136811
   7 H :    0.136812

  Mayer bond orders larger than 0.100000
B(  0-C ,  1-C ) :   0.9466 B(  0-C ,  4-Cl) :   1.1086 B(  0-C ,  5-Cl) :   1.1345
B(  0-C ,  6-H ) :   0.9415 B(  1-C ,  2-Cl) :   1.1086 B(  1-C ,  3-Cl) :   1.1345
B(  1-C ,  7-H ) :   0.9415

FINAL SINGLE POINT ENERGY     -1918.198865800070

DIPOLE MOMENT
-------------

Method             : SCF
Type of density    : Electron Density
Multiplicity       :   1
Irrep              :   0
Energy             : -1918.1988658000695978 Eh
Relativity type    :
Basis              : AO
                                X                 Y                 Z
Electronic contribution:     -0.000066304      -2.570657755      -0.000583174
Nuclear contribution   :      0.000090946       3.292769773       0.000751685
                        -----------------------------------------
Total Dipole Moment    :      0.000024642       0.722112019       0.000168510
                        -----------------------------------------
Magnitude (a.u.)       :      0.722112039
Magnitude (Debye)      :      1.835462936

VIBRATIONAL FREQUENCIES
-----------------------

Scaling factor for frequencies =  1.000000000  (already applied!)

     0:       0.00 cm**-1
     1:       0.00 cm**-1
     2:       0.00 cm**-1
     3:       0.00 cm**-1
     4:       0.00 cm**-1
     5:       0.00 cm**-1
     6:      93.88 cm**-1
     7:     175.02 cm**-1
     8:     177.27 cm**-1
     9:     238.00 cm**-1
    10:     286.04 cm**-1
    11:     343.20 cm**-1
    12:     543.79 cm**-1
    13:     634.70 cm**-1
    14:     713.63 cm**-1
    15:     774.35 cm**-1
    16:     775.93 cm**-1
    17:    1044.38 cm**-1
    18:    1218.60 cm**-1
    19:    1240.67 cm**-1
    20:    1276.26 cm**-1
    21:    1317.59 cm**-1
    22:    3105.70 cm**-1
    23:    3112.06 cm**-1

IR SPECTRUM
-----------

 Mode   freq       eps      Int      T**2         TX        TY        TZ
       cm**-1   L/(mol*cm) km/mol    a.u.
----------------------------------------------------------------------------
  6:     93.88   0.000057    0.29  0.000189  (-0.000000  0.013751  0.000006)
  7:    175.02   0.000162    0.82  0.000289  (-0.011446  0.000004  0.012584)
  8:    177.27   0.000018    0.09  0.000031  ( 0.000012  0.005571 -0.000012)
  9:    238.00   0.000028    0.14  0.000036  (-0.000001 -0.006027 -0.000001)
 10:    286.04   0.000272    1.37  0.000296  ( 0.014374  0.000002 -0.009477)
 11:    343.20   0.000078    0.39  0.000071  (-0.000001 -0.008397 -0.000001)
 12:    543.79   0.004886   24.69  0.002804  (-0.037239 -0.000009  0.037642)
 13:    634.70   0.005908   29.85  0.002905  (-0.000001  0.053894  0.000004)
 14:    713.63   0.024411  123.36  0.010675  ( 0.067107 -0.000018  0.078559)
 15:    774.35   0.007326   37.02  0.002952  (-0.000003 -0.054334 -0.000109)
 16:    775.93   0.012913   65.26  0.005193  (-0.000483 -0.000086  0.072062)
 17:   1044.38   0.001767    8.93  0.000528  ( 0.000000  0.022978  0.000003)
 18:   1218.60   0.003698   18.69  0.000947  (-0.012994  0.000011 -0.027896)
 19:   1240.67   0.002249   11.36  0.000566  ( 0.000001  0.023784  0.000011)
 20:   1276.26   0.000043    0.22  0.000010  (-0.000000 -0.003240 -0.000006)
 21:   1317.59   0.003078   15.55  0.000729  (-0.014819 -0.000007  0.022570)
 22:   3105.70   0.001512    7.64  0.000152  ( 0.010653  0.000010 -0.006198)
 23:   3112.06   0.000100    0.51  0.000010  (-0.000027  0.003167  0.000016)

--------------------------
THERMOCHEMISTRY AT 298.15K
--------------------------

Temperature         ...   298.15 K
Pressure            ...     1.00 atm
Total Mass          ...   167.85 AMU
Quasi RRHO          ...     True
Cut-Off Frequency   ...     1.00 cm^-1

Throughout the following assumptions are being made:
  (1) The electronic state is orbitally nondegenerate
  (2) There are no thermally accessible electronically excited states
  (3) Hindered rotations indicated by low frequency modes are not
      treated as such but are treated as vibrations and this may
      cause some error
  (4) All equations used are the standard statistical mechanics
      equations for an ideal gas
  (5) All vibrations are strictly harmonic

freq.      93.88  E(vib)   ...       0.47
freq.     175.02  E(vib)   ...       0.38
freq.     177.27  E(vib)   ...       0.37
freq.     238.00  E(vib)   ...       0.32
freq.     286.04  E(vib)   ...       0.27
freq.     343.20  E(vib)   ...       0.23
freq.     543.79  E(vib)   ...       0.12
freq.     634.70  E(vib)   ...       0.09
freq.     713.63  E(vib)   ...       0.07
freq.     774.35  E(vib)   ...       0.05
freq.     775.93  E(vib)   ...       0.05
freq.    1044.38  E(vib)   ...       0.02
freq.    1218.60  E(vib)   ...       0.01
freq.    1240.67  E(vib)   ...       0.01
freq.    1276.26  E(vib)   ...       0.01
freq.    1317.59  E(vib)   ...       0.01
freq.    3105.70  E(vib)   ...       0.00
freq.    3112.06  E(vib)   ...       0.00

------------
INNER ENERGY
------------

The inner energy is: U= E(el) + E(ZPE) + E(vib) + E(rot) + E(trans)
    E(el)   - is the total energy from the electronic structure calculation
              = E(kin-el) + E(nuc-el) + E(el-el) + E(nuc-nuc)
    E(ZPE)  - the the zero temperature vibrational energy from the frequency calculation
    E(vib)  - the the finite temperature correction to E(ZPE) due to population
              of excited vibrational states
    E(rot)  - is the rotational thermal energy
    E(trans)- is the translational thermal energy

Summary of contributions to the inner energy U:
Electronic energy                ...  -1918.19886580 Eh
Zero point energy                ...      0.03889078 Eh      24.40 kcal/mol
Thermal vibrational correction   ...      0.00395320 Eh       2.48 kcal/mol
Thermal rotational correction    ...      0.00141627 Eh       0.89 kcal/mol
Thermal translational correction ...      0.00141627 Eh       0.89 kcal/mol
-----------------------------------------------------------------------
Total thermal energy                  -1918.15318928 Eh

Summary of corrections to the electronic energy:
(perhaps to be used in another calculation)
Total thermal correction                  0.00678574 Eh       4.26 kcal/mol
Non-thermal (ZPE) correction              0.03889078 Eh      24.40 kcal/mol
-----------------------------------------------------------------------
Total correction                          0.04567652 Eh      28.66 kcal/mol

--------
ENTHALPY
--------

The enthalpy is H = U + kB*T
                kB is Boltzmann's constant
Total thermal energy              ...  -1918.15318928 Eh
Thermal Enthalpy correction       ...      0.00094421 Eh       0.59 kcal/mol
-----------------------------------------------------------------------
Total Enthalpy                    ...  -1918.15224507 Eh

Note: Rotational entropy computed according to Herzberg
Infrared and Raman Spectra, Chapter V,1, Van Nostrand Reinhold, 1945
Point Group:  C2, Symmetry Number:   2
Rotational constants in cm-1:     0.057517     0.036989     0.030670

Vibrational entropy computed according to the QRRHO of S. Grimme
Chem.Eur.J. 2012 18 9955 using a reference frequency of 100.0 cm-1

-------
ENTROPY
-------

The entropy contributions are T*S = T*(S(el)+S(vib)+S(rot)+S(trans))
     S(el)   - electronic entropy
     S(vib)  - vibrational entropy
     S(rot)  - rotational entropy
     S(trans)- translational entropy
The entropies will be listed as multiplied by the temperature to get
units of energy

Electronic entropy                ...      0.00000000 Eh      0.00 kcal/mol
Vibrational entropy               ...      0.00682386 Eh      4.28 kcal/mol
Rotational entropy                ...      0.01340602 Eh      8.41 kcal/mol
Translational entropy             ...      0.01960473 Eh     12.30 kcal/mol
-----------------------------------------------------------------------
Final entropy term                ...      0.03983460 Eh     25.00 kcal/mol

In case the symmetry of your molecule has not been determined correctly
or in case you have a reason to use a different symmetry number we print
out the resulting rotational entropy values for sn=1,12:

 non-linear molecules -----------------------------------
|  sn= 1 | S(rot)=       0.01406047 Eh      8.82 kcal/mol|
|  sn= 2 | S(rot)=       0.01340602 Eh      8.41 kcal/mol|
|  sn= 3 | S(rot)=       0.01302318 Eh      8.17 kcal/mol|
|  sn= 4 | S(rot)=       0.01275156 Eh      8.00 kcal/mol|
|  sn= 5 | S(rot)=       0.01254087 Eh      7.87 kcal/mol|
|  sn= 6 | S(rot)=       0.01236873 Eh      7.76 kcal/mol|
|  sn= 7 | S(rot)=       0.01222318 Eh      7.67 kcal/mol|
|  sn= 8 | S(rot)=       0.01209710 Eh      7.59 kcal/mol|
|  sn= 9 | S(rot)=       0.01198589 Eh      7.52 kcal/mol|
|  sn=10 | S(rot)=       0.01188641 Eh      7.46 kcal/mol|
|  sn=11 | S(rot)=       0.01179642 Eh      7.40 kcal/mol|
|  sn=12 | S(rot)=       0.01171427 Eh      7.35 kcal/mol|
 linear molecules ---------------------------------------
|  Dinfh | S(rot)=       0.00861576 Eh      5.41 kcal/mol|
|  Cinfv | S(rot)=       0.00927022 Eh      5.82 kcal/mol|
 --------------------------------------------------------

-------------------
GIBBS FREE ENERGY
-------------------

The Gibbs free energy is G = H - T*S

Total enthalpy                    ...  -1918.15224507 Eh
Total entropy correction          ...     -0.03983460 Eh    -25.00 kcal/mol
-----------------------------------------------------------------------
Final Gibbs free energy         ...  -1918.19207967 Eh

For completeness - the Gibbs free energy minus the electronic energy
G-E(el)                           ...      0.00678613 Eh      4.26 kcal/mol

                             ****ORCA TERMINATED NORMALLY****
TOTAL RUN TIME: 0 days 0 hours 8 minutes 15 seconds 918 msec
