                         Program Version 6.0.0  -   RELEASE  -
|  1> ! M062X DEF2-TZVP FREQ
|  2> * xyzfile 0 1 vacuum_censo.xyz
|  3>
|  4>                          ****END OF INPUT****

CARTESIAN COORDINATES (ANGSTROEM)
---------------------------------
  C      0.724263   -0.537261   -0.245319
  C     -0.724443   -0.536985    0.245435
  Cl    -1.134812    0.904035    1.211826
  Cl    -1.821099   -0.711686   -1.173566
  Cl     1.135102    0.903460   -1.211958
  Cl     1.820864   -0.712076    1.173713
  H      0.881996   -1.414036   -0.877398
  H     -0.882458   -1.413600    0.877664

 Total Charge           Charge          ....    0
 Multiplicity           Mult            ....    1
 Number of Electrons    NEL             ....   82
 Basis Dimension        Dim             ....  222

ORBITAL ENERGIES
----------------

  NO   OCC          E(Eh)            E(eV)
   0   2.0000    -102.667695     -2793.7300
   1   2.0000    -102.667691     -2793.7299
   2   2.0000    -102.665646     -2793.6743
   3   2.0000    -102.665644     -2793.6742
   4   2.0000     -10.695772      -291.0468
   5   2.0000     -10.695409      -291.0369
   6   2.0000      -9.829772      -267.4817
   7   2.0000      -9.829769      -267.4816
   8   2.0000      -9.827682      -267.4248
   9   2.0000      -9.827681      -267.4248
  10   2.0000      -7.551828      -205.4957
  11   2.0000      -7.551826      -205.4956
  12   2.0000      -7.549813      -205.4409
  13   2.0000      -7.549809      -205.4408
  14   2.0000      -7.546517      -205.3512
  15   2.0000      -7.546517      -205.3512
  16   2.0000      -7.546390      -205.3477
  17   2.0000      -7.546390      -205.3477
  18   2.0000      -7.544411      -205.2939
  19   2.0000      -7.544410      -205.2938
  20   2.0000      -7.544283      -205.2904
  21   2.0000      -7.544281      -205.2903
  22   2.0000      -1.051757       -28.6198
  23   2.0000      -0.988420       -26.8963
  24   2.0000      -0.939126       -25.5549
  25   2.0000      -0.931872       -25.3575
  26   2.0000      -0.819023       -22.2867
  27   2.0000      -0.704256       -19.1638
  28   2.0000      -0.603890       -16.4327
  29   2.0000      -0.567757       -15.4495
  30   2.0000      -0.551440       -15.0055
  31   2.0000      -0.505701       -13.7608
  32   2.0000      -0.495833       -13.4923
  33   2.0000      -0.424375       -11.5478
  34   2.0000      -0.412552       -11.2261
  35   2.0000      -0.405444       -11.0327
  36   2.0000      -0.400723       -10.9042
  37   2.0000      -0.387933       -10.5562
  38   2.0000      -0.387585       -10.5467
  39   2.0000      -0.383568       -10.4374
  40   2.0000      -0.379685       -10.3318
  41   0.0000       0.009578         0.2606
  42   0.0000       0.013623         0.3707
  43   0.0000       0.053161         1.4466
  44   0.0000       0.056180         1.5287
  45   0.0000       0.080784         2.1983

MULLIKEN ATOMIC CHARGES
-----------------------
   0 C :   -0.082202
   1 C :   -0.082197
   2 Cl:   -0.045197
   3 Cl:   -0.067345
   4 Cl:   -0.045197
   5 Cl:   -0.067345
   6 H :    0.194743
   7 H :    0.194739
Sum of atomic charges:   -0.0000000

LOEWDIN ATOMIC CHARGES
----------------------
   0 C :   -0.793662
   1 C :   -0.793664
   2 Cl:    0.338877
   3 Cl:    0.318551
   4 Cl:    0.338876
   5 Cl:    0.318550
   6 H :    0.136236
   7 H :    0.136236

  Mayer bond orders larger than 0.100000
B(  0-C ,  1-C ) :   0.9434 B(  0-C ,  4-Cl) :   1.1394 B(  0-C ,  5-Cl) :   1.1070
B(  0-C ,  6-H ) :   0.9433 B(  1-C ,  2-Cl) :   1.1394 B(  1-C ,  3-Cl) :   1.1070
B(  1-C ,  7-H ) :   0.9433

FINAL SINGLE POINT ENERGY     -1918.199458302929

DIPOLE MOMENT
-------------

Method             : SCF
Type of density    : Electron Density
Multiplicity       :   1
Irrep              :   0
Energy             : -1918.1994583029290879 Eh
Relativity type    :
Basis              : AO
                                X                 Y                 Z
Electronic contribution:      0.000410740       2.525973570      -0.000217584
Nuclear contribution   :     -0.000521203      -3.212574837       0.000275292
                        -----------------------------------------
Total Dipole Moment    :     -0.000110463      -0.686601268       0.000057708
                        -----------------------------------------
Magnitude (a.u.)       :      0.686601279
Magnitude (Debye)      :      1.745201757

VIBRATIONAL FREQUENCIES
-----------------------

Scaling factor for frequencies =  1.000000000  (already applied!)

     0:       0.00 cm**-1
     1:       0.00 cm**-1
     2:       0.00 cm**-1
     3:       0.00 cm**-1
     4:       0.00 cm**-1
     5:       0.00 cm**-1
     6:      91.21 cm**-1
     7:     172.89 cm**-1
     8:     175.22 cm**-1
     9:     236.64 cm**-1
    10:     285.21 cm**-1
    11:     345.11 cm**-1
    12:     548.46 cm**-1
    13:     646.71 cm**-1
    14:     716.36 cm**-1
    15:     781.70 cm**-1
    16:     790.74 cm**-1
    17:    1039.88 cm**-1
    18:    1226.25 cm**-1
    19:    1248.75 cm**-1
    20:    1277.72 cm**-1
    21:    1322.28 cm**-1
    22:    3105.68 cm**-1
    23:    3111.37 cm**-1

IR SPECTRUM
-----------

 Mode   freq       eps      Int      T**2         TX        TY        TZ
       cm**-1   L/(mol*cm) km/mol    a.u.
----------------------------------------------------------------------------
  6:     91.21   0.000067    0.34  0.000229  ( 0.000002  0.015127 -0.000001)
  7:    172.89   0.000171    0.87  0.000309  (-0.011467 -0.000007  0.013334)
  8:    175.22   0.000017    0.09  0.000030  ( 0.000020 -0.005491 -0.000026)
  9:    236.64   0.000038    0.19  0.000050  ( 0.000001  0.007064  0.000001)
 10:    285.21   0.000289    1.46  0.000317  (-0.014547  0.000003  0.010244)
 11:    345.11   0.000079    0.40  0.000072  ( 0.000002  0.008465  0.000001)
 12:    548.46   0.004413   22.30  0.002511  ( 0.036070 -0.000003 -0.034786)
 13:    646.71   0.005419   27.39  0.002615  ( 0.000006  0.051137  0.000002)
 14:    716.36   0.022894  115.70  0.009973  (-0.067125  0.000004 -0.073941)
 15:    781.70   0.008502   42.97  0.003394  (-0.000008 -0.058259  0.000051)
 16:    790.74   0.014617   73.87  0.005769  ( 0.001933  0.000039  0.075926)
 17:   1039.88   0.002037   10.29  0.000611  (-0.000004 -0.024723  0.000001)
 18:   1226.25   0.003658   18.49  0.000931  (-0.013416 -0.000005 -0.027404)
 19:   1248.75   0.002314   11.69  0.000578  ( 0.000001  0.024048 -0.000006)
 20:   1277.72   0.000121    0.61  0.000030  (-0.000002  0.005440 -0.000000)
 21:   1322.28   0.003021   15.27  0.000713  (-0.013545  0.000004  0.023011)
 22:   3105.68   0.001491    7.53  0.000150  (-0.010569  0.000008  0.006173)
 23:   3111.37   0.000077    0.39  0.000008  (-0.000024 -0.002772  0.000014)

--------------------------
THERMOCHEMISTRY AT 298.15K
--------------------------

Temperature         ...   298.15 K
Pressure            ...     1.00 atm
Total Mass          ...   167.85 AMU
Quasi RRHO          ...     True
Cut-Off Frequency   ...     1.00 cm^-1

Throughout the following assumptions are being made:
  (1) The electronic state is orbitally nondegenerate
  (2) There are no thermally accessible electronically excited states
  (3) Hindered rotations indicated by low frequency modes are not
      treated as such but are treated as vibrations and this may
      cause some error
  (4) All equations used are the standard statistical mechanics
      equations for an ideal gas
  (5) All vibrations are strictly harmonic

freq.      91.21  E(vib)   ...       0.47
freq.     172.89  E(vib)   ...       0.38
freq.     175.22  E(vib)   ...       0.38
freq.     236.64  E(vib)   ...       0.32
freq.     285.21  E(vib)   ...       0.28
freq.     345.11  E(vib)   ...       0.23
freq.     548.46  E(vib)   ...       0.12
freq.     646.71  E(vib)   ...       0.09
freq.     716.36  E(vib)   ...       0.07
freq.     781.70  E(vib)   ...       0.05
freq.     790.74  E(vib)   ...       0.05
freq.    1039.88  E(vib)   ...       0.02
freq.    1226.25  E(vib)   ...       0.01
freq.    1248.75  E(vib)   ...       0.01
freq.    1277.72  E(vib)   ...       0.01
freq.    1322.28  E(vib)   ...       0.01
freq.    3105.68  E(vib)   ...       0.00
freq.    3111.37  E(vib)   ...       0.00

------------
INNER ENERGY
------------

The inner energy is: U= E(el) + E(ZPE) + E(vib) + E(rot) + E(trans)
    E(el)   - is the total energy from the electronic structure calculation
              = E(kin-el) + E(nuc-el) + E(el-el) + E(nuc-nuc)
    E(ZPE)  - the the zero temperature vibrational energy from the frequency calculation
    E(vib)  - the the finite temperature correction to E(ZPE) due to population
              of excited vibrational states
    E(rot)  - is the rotational thermal energy
    E(trans)- is the translational thermal energy

Summary of contributions to the inner energy U:
Electronic energy                ...  -1918.19945830 Eh
Zero point energy                ...      0.03900717 Eh      24.48 kcal/mol
Thermal vibrational correction   ...      0.00394884 Eh       2.48 kcal/mol
Thermal rotational correction    ...      0.00141627 Eh       0.89 kcal/mol
Thermal translational correction ...      0.00141627 Eh       0.89 kcal/mol
-----------------------------------------------------------------------
Total thermal energy                  -1918.15366975 Eh

Summary of corrections to the electronic energy:
(perhaps to be used in another calculation)
Total thermal correction                  0.00678138 Eh       4.26 kcal/mol
Non-thermal (ZPE) correction              0.03900717 Eh      24.48 kcal/mol
-----------------------------------------------------------------------
Total correction                          0.04578855 Eh      28.73 kcal/mol

--------
ENTHALPY
--------

The enthalpy is H = U + kB*T
                kB is Boltzmann's constant
Total thermal energy              ...  -1918.15366975 Eh
Thermal Enthalpy correction       ...      0.00094421 Eh       0.59 kcal/mol
-----------------------------------------------------------------------
Total Enthalpy                    ...  -1918.15272554 Eh

Note: Rotational entropy computed according to Herzberg
Infrared and Raman Spectra, Chapter V,1, Van Nostrand Reinhold, 1945
Point Group:  C2, Symmetry Number:   2
Rotational constants in cm-1:     0.057294     0.036586     0.030907

Vibrational entropy computed according to the QRRHO of S. Grimme
Chem.Eur.J. 2012 18 9955 using a reference frequency of 100.0 cm-1

-------
ENTROPY
-------

The entropy contributions are T*S = T*(S(el)+S(vib)+S(rot)+S(trans))
     S(el)   - electronic entropy
     S(vib)  - vibrational entropy
     S(rot)  - rotational entropy
     S(trans)- translational entropy
The entropies will be listed as multiplied by the temperature to get
units of energy

Electronic entropy                ...      0.00000000 Eh      0.00 kcal/mol
Vibrational entropy               ...      0.00683249 Eh      4.29 kcal/mol
Rotational entropy                ...      0.01340939 Eh      8.41 kcal/mol
Translational entropy             ...      0.01960473 Eh     12.30 kcal/mol
-----------------------------------------------------------------------
Final entropy term                ...      0.03984662 Eh     25.00 kcal/mol

In case the symmetry of your molecule has not been determined correctly
or in case you have a reason to use a different symmetry number we print
out the resulting rotational entropy values for sn=1,12:

 non-linear molecules -----------------------------------
|  sn= 1 | S(rot)=       0.01406385 Eh      8.83 kcal/mol|
|  sn= 2 | S(rot)=       0.01340939 Eh      8.41 kcal/mol|
|  sn= 3 | S(rot)=       0.01302656 Eh      8.17 kcal/mol|
|  sn= 4 | S(rot)=       0.01275494 Eh      8.00 kcal/mol|
|  sn= 5 | S(rot)=       0.01254425 Eh      7.87 kcal/mol|
|  sn= 6 | S(rot)=       0.01237211 Eh      7.76 kcal/mol|
|  sn= 7 | S(rot)=       0.01222656 Eh      7.67 kcal/mol|
|  sn= 8 | S(rot)=       0.01210048 Eh      7.59 kcal/mol|
|  sn= 9 | S(rot)=       0.01198927 Eh      7.52 kcal/mol|
|  sn=10 | S(rot)=       0.01188979 Eh      7.46 kcal/mol|
|  sn=11 | S(rot)=       0.01179980 Eh      7.40 kcal/mol|
|  sn=12 | S(rot)=       0.01171765 Eh      7.35 kcal/mol|
 linear molecules ---------------------------------------
|  Dinfh | S(rot)=       0.00860852 Eh      5.40 kcal/mol|
|  Cinfv | S(rot)=       0.00926297 Eh      5.81 kcal/mol|
 --------------------------------------------------------

-------------------
GIBBS FREE ENERGY
-------------------

The Gibbs free energy is G = H - T*S

Total enthalpy                    ...  -1918.15272554 Eh
Total entropy correction          ...     -0.03984662 Eh    -25.00 kcal/mol
-----------------------------------------------------------------------
Final Gibbs free energy         ...  -1918.19257216 Eh

For completeness - the Gibbs free energy minus the electronic energy
G-E(el)                           ...      0.00688614 Eh      4.32 kcal/mol

                             ****ORCA TERMINATED NORMALLY****
TOTAL RUN TIME: 0 days 0 hours 8 minutes 19 seconds 143 msec
