                         Program Version 6.0.1  -  RELEASE   -
|  1> ! r2scan-3c def2/J RI DEFGRID2 scfconv6 printgap
|  2> %output
|  3>     printlevel normal
|  4> end
|  5> * xyz 0 1
|  6> C -2.002627424 0.688454702 0.4219868101
|  7> O -1.1115730864 -0.4103337202 0.4326847105
|  8> S 0.364405092 -0.0071242663 -0.1066926035
|  9> O 0.9417542655 0.9414334864 0.7930263418
| 10> O 0.2675035517 0.3628163343 -1.4837852307
| 11> C 1.1399500502 -1.6193805909 0.0732341886
| 12> H -1.6149421083 1.4823665141 1.0641912799
| 13> H -2.9592123348 0.3280753338 0.7961412681
| 14> H -2.1081782958 1.0661960925 -0.5974297725
| 15> H 0.3763470245 -2.2846797645 0.4501383866
| 16> H 1.4881654401 -1.9370511834 -0.8998336036
| 17> H 1.9563197342 -1.5246028268 0.77573724
| 18> *
| 19>
| 20>                          ****END OF INPUT****

CARTESIAN COORDINATES (ANGSTROEM)
---------------------------------
  C     -2.002627    0.688455    0.421987
  O     -1.111573   -0.410334    0.432685
  S      0.364405   -0.007124   -0.106693
  O      0.941754    0.941433    0.793026
  O      0.267504    0.362816   -1.483785
  C      1.139950   -1.619381    0.073234
  H     -1.614942    1.482367    1.064191
  H     -2.959212    0.328075    0.796141
  H     -2.108178    1.066196   -0.597430
  H      0.376347   -2.284680    0.450138
  H      1.488165   -1.937051   -0.899834
  H      1.956320   -1.524603    0.775737

 Total Charge           Charge          ....    0
 Multiplicity           Mult            ....    1
 Number of Electrons    NEL             ....   58
 Basis Dimension        Dim             ....  167

ORBITAL ENERGIES
----------------

  NO   OCC          E(Eh)            E(eV)
   0   2.0000     -88.788779     -2416.0655
   1   2.0000     -19.006963      -517.2058
   2   2.0000     -18.950675      -515.6741
   3   2.0000     -18.950648      -515.6733
   4   2.0000     -10.095471      -274.7117
   5   2.0000     -10.079865      -274.2871
   6   2.0000      -8.056962      -219.2411
   7   2.0000      -6.004249      -163.3839
   8   2.0000      -6.000800      -163.2901
   9   2.0000      -6.000557      -163.2835
  10   2.0000      -1.121759       -30.5246
  11   2.0000      -1.019807       -27.7504
  12   2.0000      -0.986771       -26.8514
  13   2.0000      -0.763071       -20.7642
  14   2.0000      -0.687901       -18.7187
  15   2.0000      -0.578313       -15.7367
  16   2.0000      -0.512866       -13.9558
  17   2.0000      -0.480865       -13.0850
  18   2.0000      -0.460959       -12.5433
  19   2.0000      -0.436766       -11.8850
  20   2.0000      -0.433427       -11.7941
  21   2.0000      -0.407095       -11.0776
  22   2.0000      -0.405581       -11.0364
  23   2.0000      -0.374011       -10.1773
  24   2.0000      -0.314801        -8.5662
  25   2.0000      -0.313790        -8.5387
  26   2.0000      -0.298047        -8.1103
  27   2.0000      -0.292381        -7.9561
  28   2.0000      -0.261391        -7.1128
  29   0.0000       0.018530         0.5042
  30   0.0000       0.040109         1.0914
  31   0.0000       0.055556         1.5118
  32   0.0000       0.069975         1.9041
  33   0.0000       0.090853         2.4722

MULLIKEN ATOMIC CHARGES
-----------------------
   0 C :   -0.296281
   1 O :   -0.275939
   2 S :    1.117336
   3 O :   -0.549335
   4 O :   -0.548964
   5 C :   -0.533060
   6 H :    0.170579
   7 H :    0.156510
   8 H :    0.170477
   9 H :    0.197925
  10 H :    0.195280
  11 H :    0.195472
Sum of atomic charges:   -0.0000000

LOEWDIN ATOMIC CHARGES
----------------------
   0 C :   -0.058357
   1 O :   -0.638884
   2 S :    0.831899
   3 O :   -0.444960
   4 O :   -0.444780
   5 C :   -0.344059
   6 H :    0.176629
   7 H :    0.180911
   8 H :    0.176563
   9 H :    0.193231
  10 H :    0.185912
  11 H :    0.185895

  Mayer bond orders larger than 0.100000
B(  0-C ,  1-O ) :   0.8394 B(  0-C ,  6-H ) :   0.9585 B(  0-C ,  7-H ) :   0.9615
B(  0-C ,  8-H ) :   0.9585 B(  1-O ,  2-S ) :   0.9149 B(  2-S ,  3-O ) :   1.6951
B(  2-S ,  4-O ) :   1.6958 B(  2-S ,  5-C ) :   0.8692 B(  5-C ,  9-H ) :   0.9346
B(  5-C , 10-H ) :   0.9351 B(  5-C , 11-H ) :   0.9352

Dispersion correction           -0.003057554
FINAL SINGLE POINT ENERGY      -703.550510461921

DIPOLE MOMENT
-------------

Method             : SCF
Type of density    : Electron Density
Multiplicity       :   1
Irrep              :   0
Energy             :  -703.5670837958151651 Eh
Relativity type    :
Basis              : AO
                                X                 Y                 Z
Electronic contribution:      2.270021333       1.676677956      -1.107651191
Nuclear contribution   :     -2.693680224      -2.678821285       1.489969038
                        -----------------------------------------
Total Dipole Moment    :     -0.423658891      -1.002143329       0.382317847
                        -----------------------------------------
Magnitude (a.u.)       :      1.153232433
Magnitude (Debye)      :      2.931283891

Rotational constants in cm-1:             0.151917             0.088269             0.084307
Rotational constants in MHz :          4554.370305          2646.226813          2527.464309

                             ****ORCA TERMINATED NORMALLY****
TOTAL RUN TIME: 0 days 0 hours 0 minutes 16 seconds 686 msec
