                         Program Version 6.0.1  -  RELEASE   -
|  1> ! pbe def2-sv(p) def2/J RI DEFGRID1 loosescf d4 GCP(DFT/SV(P)) printgap
|  2> %output
|  3>     printlevel normal
|  4> end
|  5> * xyz 0 1
|  6> C -2.4181487671 -0.8659547861 0.342208357
|  7> C -0.9697284064 -0.4359274816 0.6059796427
|  8> H -0.7426407111 -0.5750869634 1.6741667072
|  9> C -0.7434025158 1.0458252215 0.2485455224
| 10> H -1.5411098906 1.3785708515 -0.4298241054
| 11> C 0.6136314239 1.2277867912 -0.4820115067
| 12> H 0.9078121909 2.2827127416 -0.4088459038
| 13> C 1.6699570047 0.3620481844 0.2219419256
| 14> H 2.6305553406 0.4428968301 -0.2984954231
| 15> C 1.239657963 -1.1247672173 0.1204144265
| 16> H 1.4578434169 -1.6153298515 1.0902849356
| 17> O -0.1393712783 -1.2780414831 -0.1703059248
| 18> O 1.9394722931 -1.7086767002 -0.9216497074
| 19> O 1.8847557024 0.7636373572 1.5447474675
| 20> O 0.5155887066 0.9447526387 -1.8472373757
| 21> O -0.7716490749 1.7681799535 1.4657534735
| 22> O -2.8050457862 -0.6309524596 -0.9818486252
| 23> H -3.0876586484 -0.2796367399 0.9738971089
| 24> H -2.5173017731 -1.9296302601 0.5984050006
| 25> H 1.6480629183 -2.6226741883 -1.0258356877
| 26> H 1.0385595534 1.0377264237 1.9335656052
| 27> H 0.5207030239 -0.0145347581 -1.9638984414
| 28> H -0.8022752557 2.7121456644 1.2733555252
| 29> H -2.1681179922 -1.0680787181 -1.5599080983
| 30> *
| 31>
| 32>                          ****END OF INPUT****

CARTESIAN COORDINATES (ANGSTROEM)
---------------------------------
  C     -2.418149   -0.865955    0.342208
  C     -0.969728   -0.435927    0.605980
  H     -0.742641   -0.575087    1.674167
  C     -0.743403    1.045825    0.248546
  H     -1.541110    1.378571   -0.429824
  C      0.613631    1.227787   -0.482012
  H      0.907812    2.282713   -0.408846
  C      1.669957    0.362048    0.221942
  H      2.630555    0.442897   -0.298495
  C      1.239658   -1.124767    0.120414
  H      1.457843   -1.615330    1.090285
  O     -0.139371   -1.278041   -0.170306
  O      1.939472   -1.708677   -0.921650
  O      1.884756    0.763637    1.544747
  O      0.515589    0.944753   -1.847237
  O     -0.771649    1.768180    1.465753
  O     -2.805046   -0.630952   -0.981849
  H     -3.087659   -0.279637    0.973897
  H     -2.517302   -1.929630    0.598405
  H      1.648063   -2.622674   -1.025836
  H      1.038560    1.037726    1.933566
  H      0.520703   -0.014535   -1.963898
  H     -0.802275    2.712146    1.273356
  H     -2.168118   -1.068079   -1.559908

 Total Charge           Charge          ....    0
 Multiplicity           Mult            ....    1
 Number of Electrons    NEL             ....   96
 Basis Dimension        Dim             ....  192

ORBITAL ENERGIES
----------------

  NO   OCC          E(Eh)            E(eV)
   0   2.0000     -18.787255      -511.2272
   1   2.0000     -18.781048      -511.0583
   2   2.0000     -18.776979      -510.9476
   3   2.0000     -18.756250      -510.3835
   4   2.0000     -18.748744      -510.1793
   5   2.0000     -18.744606      -510.0667
   6   2.0000      -9.993499      -271.9369
   7   2.0000      -9.955454      -270.9017
   8   2.0000      -9.947716      -270.6911
   9   2.0000      -9.944656      -270.6079
  10   2.0000      -9.941375      -270.5186
  11   2.0000      -9.940135      -270.4848
  12   2.0000      -0.999921       -27.2092
  13   2.0000      -0.957605       -26.0577
  14   2.0000      -0.941213       -25.6117
  15   2.0000      -0.931886       -25.3579
  16   2.0000      -0.924324       -25.1521
  17   2.0000      -0.921687       -25.0804
  18   2.0000      -0.707969       -19.2648
  19   2.0000      -0.686905       -18.6916
  20   2.0000      -0.630787       -17.1646
  21   2.0000      -0.593757       -16.1569
  22   2.0000      -0.574411       -15.6305
  23   2.0000      -0.524441       -14.2708
  24   2.0000      -0.513278       -13.9670
  25   2.0000      -0.502322       -13.6689
  26   2.0000      -0.489414       -13.3176
  27   2.0000      -0.465005       -12.6534
  28   2.0000      -0.462296       -12.5797
  29   2.0000      -0.434037       -11.8107
  30   2.0000      -0.420108       -11.4317
  31   2.0000      -0.406189       -11.0530
  32   2.0000      -0.382677       -10.4132
  33   2.0000      -0.378098       -10.2886
  34   2.0000      -0.361062        -9.8250
  35   2.0000      -0.356228        -9.6935
  36   2.0000      -0.336984        -9.1698
  37   2.0000      -0.328706        -8.9446
  38   2.0000      -0.319396        -8.6912
  39   2.0000      -0.312161        -8.4943
  40   2.0000      -0.288256        -7.8438
  41   2.0000      -0.274887        -7.4801
  42   2.0000      -0.267535        -7.2800
  43   2.0000      -0.255987        -6.9658
  44   2.0000      -0.242776        -6.6063
  45   2.0000      -0.230228        -6.2648
  46   2.0000      -0.214023        -5.8239
  47   2.0000      -0.204585        -5.5670
  48   0.0000       0.005928         0.1613
  49   0.0000       0.018981         0.5165
  50   0.0000       0.031589         0.8596
  51   0.0000       0.047671         1.2972
  52   0.0000       0.056519         1.5380

MULLIKEN ATOMIC CHARGES
-----------------------
   0 C :    0.079034
   1 C :   -0.016281
   2 H :    0.065405
   3 C :    0.024135
   4 H :    0.082751
   5 C :    0.027131
   6 H :    0.065752
   7 C :    0.034946
   8 H :    0.093370
   9 C :    0.171674
  10 H :    0.064093
  11 O :   -0.329558
  12 O :   -0.378057
  13 O :   -0.423881
  14 O :   -0.405163
  15 O :   -0.416849
  16 O :   -0.426521
  17 H :    0.097542
  18 H :    0.081551
  19 H :    0.305917
  20 H :    0.298856
  21 H :    0.293224
  22 H :    0.313143
  23 H :    0.297786
Sum of atomic charges:   -0.0000000

LOEWDIN ATOMIC CHARGES
----------------------
   0 C :   -0.121720
   1 C :   -0.076357
   2 H :    0.109396
   3 C :   -0.086656
   4 H :    0.114188
   5 C :   -0.081054
   6 H :    0.111676
   7 C :   -0.085167
   8 H :    0.125400
   9 C :   -0.007024
  10 H :    0.090831
  11 O :   -0.169849
  12 O :   -0.290033
  13 O :   -0.317316
  14 O :   -0.308389
  15 O :   -0.309954
  16 O :   -0.324546
  17 H :    0.121969
  18 H :    0.102693
  19 H :    0.289672
  20 H :    0.268601
  21 H :    0.269516
  22 H :    0.293700
  23 H :    0.280425

  Mayer bond orders larger than 0.100000
B(  0-C ,  1-C ) :   1.0546 B(  0-C , 16-O ) :   1.0705 B(  0-C , 17-H ) :   0.9214
B(  0-C , 18-H ) :   0.9117 B(  1-C ,  2-H ) :   0.8666 B(  1-C ,  3-C ) :   0.9930
B(  1-C , 11-O ) :   1.0230 B(  3-C ,  4-H ) :   0.8738 B(  3-C ,  5-C ) :   0.9632
B(  3-C , 15-O ) :   1.0174 B(  5-C ,  6-H ) :   0.8964 B(  5-C ,  7-C ) :   1.0103
B(  5-C , 14-O ) :   1.0743 B(  7-C ,  8-H ) :   0.8917 B(  7-C ,  9-C ) :   0.9389
B(  7-C , 13-O ) :   1.0814 B(  9-C , 10-H ) :   0.8968 B(  9-C , 11-O ) :   0.9890
B(  9-C , 12-O ) :   1.1422 B( 12-O , 19-H ) :   0.8411 B( 13-O , 20-H ) :   0.8067
B( 14-O , 21-H ) :   0.8318 B( 15-O , 20-H ) :   0.1140 B( 15-O , 22-H ) :   0.8407
B( 16-O , 23-H ) :   0.8408

Dispersion correction           -0.025369123
FINAL SINGLE POINT ENERGY      -685.695727917927

DIPOLE MOMENT
-------------

Method             : SCF
Type of density    : Electron Density
Multiplicity       :   1
Irrep              :   0
Energy             :  -685.8294224954405536 Eh
Relativity type    :
Basis              : AO
                                X                 Y                 Z
Electronic contribution:      2.090195275      -0.238602104      -1.443153087
Nuclear contribution   :     -2.482133834      -0.237495013       1.728568145
                        -----------------------------------------
Total Dipole Moment    :     -0.391938560      -0.476097117       0.285415058
                        -----------------------------------------
Magnitude (a.u.)       :      0.679518988
Magnitude (Debye)      :      1.727200004

Rotational constants in cm-1:             0.039470             0.028801             0.023283
Rotational constants in MHz :          1183.283024           863.435344           697.995170

                             ****ORCA TERMINATED NORMALLY****
TOTAL RUN TIME: 0 days 0 hours 0 minutes 12 seconds 497 msec
