                         Program Version 6.0.1  -  RELEASE   -
|  1> ! pbe def2-sv(p) def2/J RI DEFGRID1 loosescf d4 GCP(DFT/SV(P)) printgap
|  2> %output
|  3>     printlevel normal
|  4> end
|  5> * xyz 0 1
|  6> C 2.4123756722 0.0403291492 0.0886696239
|  7> C 0.9878499091 0.4247603923 -0.2884549389
|  8> C -0.0304485047 -0.4973501639 0.3946677134
|  9> C -1.3776269057 -0.1351939518 0.0385634331
| 10> N -2.4405393443 0.1661818624 -0.2549086062
| 11> H 2.5597619565 0.1171151393 1.1640719917
| 12> H 2.6283786752 -0.9818196429 -0.2157412391
| 13> H 3.1231903511 0.700564938 -0.401819599
| 14> H 0.7929200259 1.457755987 0.0079323559
| 15> H 0.8617877159 0.359763807 -1.3714162145
| 16> H 0.0700263801 -0.4313750334 1.4821877881
| 17> H 0.1397328224 -1.5358881214 0.0952874376
| 18> *
| 19>
| 20>                          ****END OF INPUT****

CARTESIAN COORDINATES (ANGSTROEM)
---------------------------------
  C      2.412376    0.040329    0.088670
  C      0.987850    0.424760   -0.288455
  C     -0.030449   -0.497350    0.394668
  C     -1.377627   -0.135194    0.038563
  N     -2.440539    0.166182   -0.254909
  H      2.559762    0.117115    1.164072
  H      2.628379   -0.981820   -0.215741
  H      3.123190    0.700565   -0.401820
  H      0.792920    1.457756    0.007932
  H      0.861788    0.359764   -1.371416
  H      0.070026   -0.431375    1.482188
  H      0.139733   -1.535888    0.095287

 Total Charge           Charge          ....    0
 Multiplicity           Mult            ....    1
 Number of Electrons    NEL             ....   38
 Basis Dimension        Dim             ....   84

ORBITAL ENERGIES
----------------

  NO   OCC          E(Eh)            E(eV)
   0   2.0000     -13.974075      -380.2539
   1   2.0000      -9.937835      -270.4222
   2   2.0000      -9.923730      -270.0384
   3   2.0000      -9.914650      -269.7913
   4   2.0000      -9.894611      -269.2461
   5   2.0000      -0.813393       -22.1336
   6   2.0000      -0.745328       -20.2814
   7   2.0000      -0.661434       -17.9985
   8   2.0000      -0.556438       -15.1415
   9   2.0000      -0.469218       -12.7681
  10   2.0000      -0.452531       -12.3140
  11   2.0000      -0.401874       -10.9356
  12   2.0000      -0.383417       -10.4333
  13   2.0000      -0.348598        -9.4858
  14   2.0000      -0.330957        -9.0058
  15   2.0000      -0.318393        -8.6639
  16   2.0000      -0.292618        -7.9625
  17   2.0000      -0.286854        -7.8057
  18   2.0000      -0.284581        -7.7438
  19   0.0000       0.002117         0.0576
  20   0.0000       0.009553         0.2600
  21   0.0000       0.029831         0.8117
  22   0.0000       0.063770         1.7353
  23   0.0000       0.064465         1.7542

MULLIKEN ATOMIC CHARGES
-----------------------
   0 C :   -0.245923
   1 C :   -0.242226
   2 C :   -0.150121
   3 C :   -0.236088
   4 N :    0.071555
   5 H :    0.103003
   6 H :    0.103094
   7 H :    0.117127
   8 H :    0.115135
   9 H :    0.115128
  10 H :    0.124644
  11 H :    0.124672
Sum of atomic charges:    0.0000000

LOEWDIN ATOMIC CHARGES
----------------------
   0 C :   -0.340044
   1 C :   -0.220632
   2 C :   -0.241571
   3 C :   -0.057034
   4 N :   -0.068101
   5 H :    0.120702
   6 H :    0.120721
   7 H :    0.127112
   8 H :    0.127544
   9 H :    0.127538
  10 H :    0.151882
  11 H :    0.151882

  Mayer bond orders larger than 0.100000
B(  0-C ,  1-C ) :   1.1655 B(  0-C ,  5-H ) :   0.9509 B(  0-C ,  6-H ) :   0.9510
B(  0-C ,  7-H ) :   0.9513 B(  1-C ,  2-C ) :   1.1380 B(  1-C ,  8-H ) :   0.9262
B(  1-C ,  9-H ) :   0.9262 B(  2-C ,  3-C ) :   1.2131 B(  2-C , 10-H ) :   0.8759
B(  2-C , 11-H ) :   0.8759 B(  3-C ,  4-N ) :   3.0626

Dispersion correction           -0.007302693
FINAL SINGLE POINT ENERGY      -210.882916513113

DIPOLE MOMENT
-------------

Method             : SCF
Type of density    : Electron Density
Multiplicity       :   1
Irrep              :   0
Energy             :  -210.9204604478124736 Eh
Relativity type    :
Basis              : AO
                                X                 Y                 Z
Electronic contribution:     -8.081523926       0.002704391      -0.407558150
Nuclear contribution   :      9.533227282      -0.293564209       0.712081876
                        -----------------------------------------
Total Dipole Moment    :      1.451703357      -0.290859818       0.304523726
                        -----------------------------------------
Magnitude (a.u.)       :      1.511547806
Magnitude (Debye)      :      3.842049190

Rotational constants in cm-1:             0.789904             0.077429             0.073420
Rotational constants in MHz :         23680.738710          2321.264198          2201.070579

                             ****ORCA TERMINATED NORMALLY****
TOTAL RUN TIME: 0 days 0 hours 0 minutes 5 seconds 205 msec
