                         Program Version 6.0.1  -  RELEASE   -
|  1> ! r2scan-3c def2/J RI DEFGRID2 scfconv6 printgap
|  2> %output
|  3>     printlevel normal
|  4> end
|  5> * xyz 0 1
|  6> C -3.4268322434 -0.121836445 -0.0007454134
|  7> C -2.9890641667 1.1940635337 -0.0001615303
|  8> C -1.6363523564 1.49173586 0.0004601761
|  9> C -0.7268393465 0.4464536301 0.0005043171
| 10> C -1.17140058 -0.8848360678 0.0001861972
| 11> C -2.5197427996 -1.1728170211 -0.000504489
| 12> C 5.2816e-06 -1.8240906734 0.0006924385
| 13> C 1.1714047575 -0.8848301247 0.0002888026
| 14> C 0.7268501194 0.4464539975 0.000449702
| 15> C 1.6363537349 1.4917657646 0.000154422
| 16> C 2.9890473064 1.1940768381 -0.0003915231
| 17> C 3.4268165561 -0.1218506411 -0.0006161276
| 18> C 2.5197549722 -1.1728286261 -0.0002367501
| 19> H -4.48657783 -0.3315077549 -0.0013371332
| 20> H -3.7134336068 1.9956892614 -0.0002565118
| 21> H -1.2991039628 2.5176808759 0.0007618793
| 22> H -2.8676121911 -2.1960694083 -0.0008569002
| 23> H -3.97931e-05 -2.4703754948 0.8821365373
| 24> H 5.95816e-05 -2.4720146726 -0.879487016
| 25> H 1.2990079462 2.5176813043 0.0003491766
| 26> H 3.7135054994 1.9956288543 -0.0006570036
| 27> H 4.4865965086 -0.3313669935 -0.0011460762
| 28> H 2.8675831258 -2.1960934248 -0.0004629443
| 29> *
| 30>
| 31>                          ****END OF INPUT****

CARTESIAN COORDINATES (ANGSTROEM)
---------------------------------
  C     -3.426832   -0.121836   -0.000745
  C     -2.989064    1.194064   -0.000162
  C     -1.636352    1.491736    0.000460
  C     -0.726839    0.446454    0.000504
  C     -1.171401   -0.884836    0.000186
  C     -2.519743   -1.172817   -0.000504
  C      0.000005   -1.824091    0.000692
  C      1.171405   -0.884830    0.000289
  C      0.726850    0.446454    0.000450
  C      1.636354    1.491766    0.000154
  C      2.989047    1.194077   -0.000392
  C      3.426817   -0.121851   -0.000616
  C      2.519755   -1.172829   -0.000237
  H     -4.486578   -0.331508   -0.001337
  H     -3.713434    1.995689   -0.000257
  H     -1.299104    2.517681    0.000762
  H     -2.867612   -2.196069   -0.000857
  H     -0.000040   -2.470375    0.882137
  H      0.000060   -2.472015   -0.879487
  H      1.299008    2.517681    0.000349
  H      3.713505    1.995629   -0.000657
  H      4.486597   -0.331367   -0.001146
  H      2.867583   -2.196093   -0.000463

 Total Charge           Charge          ....    0
 Multiplicity           Mult            ....    1
 Number of Electrons    NEL             ....   88
 Basis Dimension        Dim             ....  297

ORBITAL ENERGIES
----------------

  NO   OCC          E(Eh)            E(eV)
   0   2.0000     -10.045100      -273.3411
   1   2.0000     -10.042232      -273.2630
   2   2.0000     -10.042225      -273.2628
   3   2.0000     -10.040515      -273.2163
   4   2.0000     -10.040273      -273.2097
   5   2.0000     -10.035487      -273.0795
   6   2.0000     -10.035481      -273.0793
   7   2.0000     -10.035223      -273.0723
   8   2.0000     -10.035220      -273.0722
   9   2.0000     -10.034116      -273.0422
  10   2.0000     -10.034114      -273.0421
  11   2.0000     -10.033655      -273.0296
  12   2.0000     -10.033654      -273.0296
  13   2.0000      -0.861160       -23.4334
  14   2.0000      -0.817109       -22.2347
  15   2.0000      -0.771997       -21.0071
  16   2.0000      -0.738454       -20.0943
  17   2.0000      -0.714650       -19.4466
  18   2.0000      -0.685072       -18.6417
  19   2.0000      -0.660674       -17.9779
  20   2.0000      -0.605658       -16.4808
  21   2.0000      -0.556155       -15.1337
  22   2.0000      -0.554597       -15.0914
  23   2.0000      -0.545798       -14.8519
  24   2.0000      -0.489459       -13.3188
  25   2.0000      -0.462744       -12.5919
  26   2.0000      -0.449578       -12.2336
  27   2.0000      -0.424044       -11.5388
  28   2.0000      -0.422874       -11.5070
  29   2.0000      -0.409472       -11.1423
  30   2.0000      -0.398464       -10.8428
  31   2.0000      -0.391293       -10.6476
  32   2.0000      -0.377953       -10.2846
  33   2.0000      -0.370906       -10.0929
  34   2.0000      -0.345960        -9.4141
  35   2.0000      -0.335857        -9.1391
  36   2.0000      -0.322859        -8.7854
  37   2.0000      -0.322451        -8.7743
  38   2.0000      -0.302506        -8.2316
  39   2.0000      -0.302238        -8.2243
  40   2.0000      -0.267706        -7.2846
  41   2.0000      -0.237512        -6.4630
  42   2.0000      -0.228893        -6.2285
  43   2.0000      -0.203369        -5.5340
  44   0.0000      -0.057864        -1.5746
  45   0.0000      -0.040937        -1.1139
  46   0.0000      -0.020135        -0.5479
  47   0.0000       0.009912         0.2697
  48   0.0000       0.079152         2.1538

MULLIKEN ATOMIC CHARGES
-----------------------
   0 C :   -0.149793
   1 C :   -0.128948
   2 C :   -0.269909
   3 C :    0.171216
   4 C :    0.053918
   5 C :   -0.229599
   6 C :   -0.398935
   7 C :    0.053931
   8 C :    0.171198
   9 C :   -0.269916
  10 C :   -0.128945
  11 C :   -0.149795
  12 C :   -0.229599
  13 H :    0.143786
  14 H :    0.143903
  15 H :    0.138424
  16 H :    0.146933
  17 H :    0.179577
  18 H :    0.179501
  19 H :    0.138427
  20 H :    0.143904
  21 H :    0.143786
  22 H :    0.146935
Sum of atomic charges:    0.0000000

LOEWDIN ATOMIC CHARGES
----------------------
   0 C :   -0.165615
   1 C :   -0.163468
   2 C :   -0.146365
   3 C :   -0.049827
   4 C :   -0.060094
   5 C :   -0.153359
   6 C :   -0.237013
   7 C :   -0.060095
   8 C :   -0.049827
   9 C :   -0.146361
  10 C :   -0.163469
  11 C :   -0.165615
  12 C :   -0.153356
  13 H :    0.166627
  14 H :    0.166976
  15 H :    0.169529
  16 H :    0.169457
  17 H :    0.184670
  18 H :    0.184611
  19 H :    0.169532
  20 H :    0.166976
  21 H :    0.166627
  22 H :    0.169459

  Mayer bond orders larger than 0.100000
B(  0-C ,  1-C ) :   1.4139 B(  0-C ,  5-C ) :   1.4048 B(  0-C , 13-H ) :   0.9499
B(  1-C ,  2-C ) :   1.3995 B(  1-C , 14-H ) :   0.9481 B(  2-C ,  3-C ) :   1.3507
B(  2-C , 15-H ) :   0.9467 B(  3-C ,  4-C ) :   1.4711 B(  3-C ,  8-C ) :   0.9572
B(  4-C ,  5-C ) :   1.3604 B(  4-C ,  6-C ) :   0.8912 B(  5-C , 16-H ) :   0.9324
B(  6-C ,  7-C ) :   0.8912 B(  6-C , 17-H ) :   0.9834 B(  6-C , 18-H ) :   0.9837
B(  7-C ,  8-C ) :   1.4712 B(  7-C , 12-C ) :   1.3603 B(  8-C ,  9-C ) :   1.3507
B(  9-C , 10-C ) :   1.3996 B(  9-C , 19-H ) :   0.9467 B( 10-C , 11-C ) :   1.4139
B( 10-C , 20-H ) :   0.9481 B( 11-C , 12-C ) :   1.4048 B( 11-C , 21-H ) :   0.9499
B( 12-C , 22-H ) :   0.9324

Dispersion correction           -0.009875814
FINAL SINGLE POINT ENERGY      -501.283980851982

DIPOLE MOMENT
-------------

Method             : SCF
Type of density    : Electron Density
Multiplicity       :   1
Irrep              :   0
Energy             :  -501.2788689780736604 Eh
Relativity type    :
Basis              : AO
                                X                 Y                 Z
Electronic contribution:      0.000030544       0.669810595       0.000895116
Nuclear contribution   :     -0.000013812      -0.910726888      -0.000896884
                        -----------------------------------------
Total Dipole Moment    :      0.000016732      -0.240916293      -0.000001768
                        -----------------------------------------
Magnitude (a.u.)       :      0.240916293
Magnitude (Debye)      :      0.612360553

Rotational constants in cm-1:             0.073520             0.019853             0.015677
Rotational constants in MHz :          2204.068467           595.168270           469.988054

                             ****ORCA TERMINATED NORMALLY****
TOTAL RUN TIME: 0 days 0 hours 0 minutes 35 seconds 391 msec
