                         Program Version 6.0.1  -  RELEASE   -
|  1> ! pbe def2-sv(p) def2/J RI DEFGRID1 loosescf d4 GCP(DFT/SV(P)) printgap
|  2> %output
|  3>     printlevel normal
|  4> end
|  5> * xyz 0 1
|  6> C 2.3961298844 -0.6569425769 -0.1037649546
|  7> C 1.0808691764 -0.1222098347 0.4477314799
|  8> H 1.1053577251 -0.1717654162 1.5492669204
|  9> C 0.7629222847 1.3094720486 -0.0002401986
| 10> C -0.7612914811 1.3113453962 -0.0019362774
| 11> C -1.0839961035 -0.1197856596 -0.4491091992
| 12> H -1.1190466704 -0.1684551858 -1.550253798
| 13> O 0.0003132206 -0.9275398698 -0.0070627487
| 14> C -2.3949560435 -0.6534588752 0.1139558461
| 15> H 3.2230349283 -0.0481773662 0.2528859697
| 16> H 2.5415155858 -1.6831578984 0.2214283389
| 17> H 2.3789374528 -0.638610153 -1.1907266659
| 18> H 1.1936724355 2.0541932895 0.6653302853
| 19> H 1.1437279839 1.4727991648 -1.0099059627
| 20> H -1.1414059874 1.4767703396 1.0076482071
| 21> H -1.1901767894 2.0568116858 -0.6678834706
| 22> H -2.543284182 -1.6799873359 -0.2091815586
| 23> H -3.2246587095 -0.0446916036 -0.236388789
| 24> H -2.3688052394 -0.6341799748 1.2008060057
| 25> *
| 26>
| 27>                          ****END OF INPUT****

CARTESIAN COORDINATES (ANGSTROEM)
---------------------------------
  C      2.396130   -0.656943   -0.103765
  C      1.080869   -0.122210    0.447731
  H      1.105358   -0.171765    1.549267
  C      0.762922    1.309472   -0.000240
  C     -0.761291    1.311345   -0.001936
  C     -1.083996   -0.119786   -0.449109
  H     -1.119047   -0.168455   -1.550254
  O      0.000313   -0.927540   -0.007063
  C     -2.394956   -0.653459    0.113956
  H      3.223035   -0.048177    0.252886
  H      2.541516   -1.683158    0.221428
  H      2.378937   -0.638610   -1.190727
  H      1.193672    2.054193    0.665330
  H      1.143728    1.472799   -1.009906
  H     -1.141406    1.476770    1.007648
  H     -1.190177    2.056812   -0.667883
  H     -2.543284   -1.679987   -0.209182
  H     -3.224659   -0.044692   -0.236389
  H     -2.368805   -0.634180    1.200806

 Total Charge           Charge          ....    0
 Multiplicity           Mult            ....    1
 Number of Electrons    NEL             ....   56
 Basis Dimension        Dim             ....  122

ORBITAL ENERGIES
----------------

  NO   OCC          E(Eh)            E(eV)
   0   2.0000     -18.738790      -509.9084
   1   2.0000      -9.932987      -270.2903
   2   2.0000      -9.932971      -270.2899
   3   2.0000      -9.886873      -269.0355
   4   2.0000      -9.886823      -269.0341
   5   2.0000      -9.871060      -268.6052
   6   2.0000      -9.871046      -268.6048
   7   2.0000      -0.931607       -25.3503
   8   2.0000      -0.706711       -19.2306
   9   2.0000      -0.702093       -19.1049
  10   2.0000      -0.636688       -17.3252
  11   2.0000      -0.570781       -15.5317
  12   2.0000      -0.532137       -14.4802
  13   2.0000      -0.489611       -13.3230
  14   2.0000      -0.454973       -12.3804
  15   2.0000      -0.431155       -11.7323
  16   2.0000      -0.384619       -10.4660
  17   2.0000      -0.381106       -10.3704
  18   2.0000      -0.373430       -10.1615
  19   2.0000      -0.356640        -9.7047
  20   2.0000      -0.340060        -9.2535
  21   2.0000      -0.326690        -8.8897
  22   2.0000      -0.320210        -8.7134
  23   2.0000      -0.298349        -8.1185
  24   2.0000      -0.289584        -7.8800
  25   2.0000      -0.285508        -7.7691
  26   2.0000      -0.260516        -7.0890
  27   2.0000      -0.192322        -5.2333
  28   0.0000       0.034193         0.9305
  29   0.0000       0.053557         1.4574
  30   0.0000       0.057847         1.5741
  31   0.0000       0.081773         2.2252
  32   0.0000       0.095517         2.5992

MULLIKEN ATOMIC CHARGES
-----------------------
   0 C :   -0.217536
   1 C :    0.008400
   2 H :    0.059767
   3 C :   -0.149931
   4 C :   -0.150261
   5 C :    0.009135
   6 H :    0.060040
   7 O :   -0.336416
   8 C :   -0.218100
   9 H :    0.094655
  10 H :    0.108949
  11 H :    0.092274
  12 H :    0.093288
  13 H :    0.078274
  14 H :    0.078234
  15 H :    0.093452
  16 H :    0.108952
  17 H :    0.094642
  18 H :    0.092182
Sum of atomic charges:   -0.0000000

LOEWDIN ATOMIC CHARGES
----------------------
   0 C :   -0.342402
   1 C :   -0.043760
   2 H :    0.097802
   3 C :   -0.233678
   4 C :   -0.233700
   5 C :   -0.043721
   6 H :    0.098086
   7 O :   -0.170043
   8 C :   -0.342559
   9 H :    0.121482
  10 H :    0.124285
  11 H :    0.118761
  12 H :    0.123328
  13 H :    0.119222
  14 H :    0.119179
  15 H :    0.123402
  16 H :    0.124247
  17 H :    0.121418
  18 H :    0.118651

  Mayer bond orders larger than 0.100000
B(  0-C ,  1-C ) :   1.1310 B(  0-C ,  9-H ) :   0.9413 B(  0-C , 10-H ) :   0.9459
B(  0-C , 11-H ) :   0.9389 B(  1-C ,  2-H ) :   0.9058 B(  1-C ,  3-C ) :   1.0938
B(  1-C ,  7-O ) :   1.0130 B(  3-C ,  4-C ) :   1.1519 B(  3-C , 12-H ) :   0.9180
B(  3-C , 13-H ) :   0.9071 B(  4-C ,  5-C ) :   1.0934 B(  4-C , 14-H ) :   0.9074
B(  4-C , 15-H ) :   0.9181 B(  5-C ,  6-H ) :   0.9060 B(  5-C ,  7-O ) :   1.0129
B(  5-C ,  8-C ) :   1.1310 B(  8-C , 16-H ) :   0.9459 B(  8-C , 17-H ) :   0.9412
B(  8-C , 18-H ) :   0.9390

Dispersion correction           -0.015227436
FINAL SINGLE POINT ENERGY      -310.347233654886

DIPOLE MOMENT
-------------

Method             : SCF
Type of density    : Electron Density
Multiplicity       :   1
Irrep              :   0
Energy             :  -310.4176841076443907 Eh
Relativity type    :
Basis              : AO
                                X                 Y                 Z
Electronic contribution:      0.000715363      -1.300537321      -0.027655108
Nuclear contribution   :     -0.001056856       1.854642981       0.030878586
                        -----------------------------------------
Total Dipole Moment    :     -0.000341494       0.554105660       0.003223478
                        -----------------------------------------
Magnitude (a.u.)       :      0.554115141
Magnitude (Debye)      :      1.408448758

Rotational constants in cm-1:             0.166838             0.067623             0.052917
Rotational constants in MHz :          5001.667307          2027.289088          1586.412387

                             ****ORCA TERMINATED NORMALLY****
TOTAL RUN TIME: 0 days 0 hours 0 minutes 15 seconds 511 msec
