                         Program Version 6.0.1  -  RELEASE   -
|  1> ! pbe def2-sv(p) def2/J RI DEFGRID1 loosescf d4 GCP(DFT/SV(P)) printgap
|  2> %output
|  3>     printlevel normal
|  4> end
|  5> * xyz 0 1
|  6> C -4.2206847908 -0.3099191959 -0.0719050252
|  7> C -2.7365691058 -0.1117523878 -0.020171586
|  8> C -2.127346082 0.8853441822 -0.772515331
|  9> C -0.7617995544 1.089461248 -0.706691225
| 10> C 0.0289847921 0.2816753677 0.1008723399
| 11> C -0.5748658177 -0.7107742267 0.8650486631
| 12> C -1.9427581683 -0.9008186001 0.8035975916
| 13> C 1.4932438745 0.5649025933 0.2210668446
| 14> O 1.893434177 1.6228265014 0.6739391105
| 15> N 2.3378722024 -0.416326697 -0.1801679998
| 16> C 3.7614819773 -0.2336270173 -0.0230095629
| 17> C 1.9413877342 -1.6359994015 -0.8341121091
| 18> H -4.6128156497 -0.0528469417 -1.0532574214
| 19> H -4.4842574554 -1.3399454891 0.1568922101
| 20> H -4.705824988 0.3335109021 0.6628429166
| 21> H -2.7312682449 1.5130868947 -1.4120761757
| 22> H -0.2978487701 1.8756571835 -1.2834201151
| 23> H 0.0275725973 -1.3276112691 1.5164822324
| 24> H -2.4018742134 -1.6730232637 1.4045710178
| 25> H 3.9253610119 0.7174344396 0.4798238123
| 26> H 4.2574982877 -0.2193459424 -0.9967624844
| 27> H 4.1815247759 -1.0437761247 0.5775211491
| 28> H 2.1470466642 -2.5009527573 -0.1956743922
| 29> H 2.5082731777 -1.7537390234 -1.7619365124
| 30> H 0.8808726704 -1.6153633219 -1.0719022291
| 31> *
| 32>
| 33>                          ****END OF INPUT****

CARTESIAN COORDINATES (ANGSTROEM)
---------------------------------
  C     -4.220685   -0.309919   -0.071905
  C     -2.736569   -0.111752   -0.020172
  C     -2.127346    0.885344   -0.772515
  C     -0.761800    1.089461   -0.706691
  C      0.028985    0.281675    0.100872
  C     -0.574866   -0.710774    0.865049
  C     -1.942758   -0.900819    0.803598
  C      1.493244    0.564903    0.221067
  O      1.893434    1.622827    0.673939
  N      2.337872   -0.416327   -0.180168
  C      3.761482   -0.233627   -0.023010
  C      1.941388   -1.635999   -0.834112
  H     -4.612816   -0.052847   -1.053257
  H     -4.484257   -1.339945    0.156892
  H     -4.705825    0.333511    0.662843
  H     -2.731268    1.513087   -1.412076
  H     -0.297849    1.875657   -1.283420
  H      0.027573   -1.327611    1.516482
  H     -2.401874   -1.673023    1.404571
  H      3.925361    0.717434    0.479824
  H      4.257498   -0.219346   -0.996762
  H      4.181525   -1.043776    0.577521
  H      2.147047   -2.500953   -0.195674
  H      2.508273   -1.753739   -1.761937
  H      0.880873   -1.615363   -1.071902

 Total Charge           Charge          ....    0
 Multiplicity           Mult            ....    1
 Number of Electrons    NEL             ....   88
 Basis Dimension        Dim             ....  194

ORBITAL ENERGIES
----------------

  NO   OCC          E(Eh)            E(eV)
   0   2.0000     -18.707510      -509.0572
   1   2.0000     -14.023551      -381.6002
   2   2.0000      -9.975061      -271.4352
   3   2.0000      -9.921808      -269.9861
   4   2.0000      -9.911477      -269.7050
   5   2.0000      -9.904532      -269.5160
   6   2.0000      -9.901541      -269.4346
   7   2.0000      -9.897824      -269.3335
   8   2.0000      -9.894612      -269.2461
   9   2.0000      -9.893543      -269.2170
  10   2.0000      -9.891935      -269.1732
  11   2.0000      -9.887033      -269.0398
  12   2.0000      -0.932272       -25.3684
  13   2.0000      -0.847552       -23.0631
  14   2.0000      -0.782720       -21.2989
  15   2.0000      -0.707821       -19.2608
  16   2.0000      -0.673446       -18.3254
  17   2.0000      -0.656118       -17.8539
  18   2.0000      -0.640684       -17.4339
  19   2.0000      -0.609736       -16.5917
  20   2.0000      -0.549713       -14.9585
  21   2.0000      -0.533535       -14.5182
  22   2.0000      -0.495802       -13.4914
  23   2.0000      -0.474328       -12.9071
  24   2.0000      -0.435796       -11.8586
  25   2.0000      -0.427404       -11.6302
  26   2.0000      -0.417296       -11.3552
  27   2.0000      -0.411290       -11.1918
  28   2.0000      -0.391691       -10.6584
  29   2.0000      -0.381140       -10.3713
  30   2.0000      -0.377231       -10.2650
  31   2.0000      -0.361137        -9.8270
  32   2.0000      -0.358771        -9.7627
  33   2.0000      -0.350859        -9.5474
  34   2.0000      -0.347444        -9.4544
  35   2.0000      -0.337811        -9.1923
  36   2.0000      -0.325098        -8.8464
  37   2.0000      -0.315587        -8.5876
  38   2.0000      -0.308723        -8.4008
  39   2.0000      -0.297781        -8.1030
  40   2.0000      -0.233128        -6.3437
  41   2.0000      -0.226071        -6.1517
  42   2.0000      -0.202272        -5.5041
  43   2.0000      -0.191062        -5.1991
  44   0.0000      -0.043835        -1.1928
  45   0.0000      -0.038226        -1.0402
  46   0.0000       0.008956         0.2437
  47   0.0000       0.032393         0.8815
  48   0.0000       0.046992         1.2787

MULLIKEN ATOMIC CHARGES
-----------------------
   0 C :   -0.224460
   1 C :    0.055556
   2 C :   -0.108657
   3 C :   -0.070190
   4 C :   -0.010514
   5 C :   -0.083830
   6 C :   -0.110107
   7 C :    0.138003
   8 O :   -0.217149
   9 N :   -0.240203
  10 C :   -0.181625
  11 C :   -0.182094
  12 H :    0.107999
  13 H :    0.105952
  14 H :    0.123949
  15 H :    0.038436
  16 H :    0.050225
  17 H :    0.044985
  18 H :    0.036823
  19 H :    0.142765
  20 H :    0.107392
  21 H :    0.105430
  22 H :    0.104798
  23 H :    0.106808
  24 H :    0.159709
Sum of atomic charges:   -0.0000000

LOEWDIN ATOMIC CHARGES
----------------------
   0 C :   -0.322433
   1 C :   -0.045480
   2 C :   -0.120867
   3 C :   -0.099539
   4 C :   -0.069080
   5 C :   -0.114063
   6 C :   -0.123135
   7 C :    0.027478
   8 O :   -0.188492
   9 N :   -0.053195
  10 C :   -0.255889
  11 C :   -0.251878
  12 H :    0.127366
  13 H :    0.126282
  14 H :    0.136568
  15 H :    0.122468
  16 H :    0.129243
  17 H :    0.123914
  18 H :    0.121693
  19 H :    0.136314
  20 H :    0.114737
  21 H :    0.114796
  22 H :    0.112366
  23 H :    0.115046
  24 H :    0.135784

  Mayer bond orders larger than 0.100000
B(  0-C ,  1-C ) :   1.0996 B(  0-C , 12-H ) :   0.9420 B(  0-C , 13-H ) :   0.9427
B(  0-C , 14-H ) :   0.9309 B(  1-C ,  2-C ) :   1.3771 B(  1-C ,  6-C ) :   1.3855
B(  2-C ,  3-C ) :   1.3533 B(  2-C , 15-H ) :   0.9653 B(  3-C ,  4-C ) :   1.3887
B(  3-C , 16-H ) :   0.9679 B(  4-C ,  5-C ) :   1.3717 B(  4-C ,  7-C ) :   0.8968
B(  5-C ,  6-C ) :   1.3602 B(  5-C , 17-H ) :   0.9630 B(  6-C , 18-H ) :   0.9633
B(  7-C ,  8-O ) :   2.0557 B(  7-C ,  9-N ) :   1.1762 B(  8-O ,  9-N ) :   0.1017
B(  9-N , 10-C ) :   1.0071 B(  9-N , 11-C ) :   1.0199 B( 10-C , 19-H ) :   0.9271
B( 10-C , 20-H ) :   0.9518 B( 10-C , 21-H ) :   0.9511 B( 11-C , 22-H ) :   0.9479
B( 11-C , 23-H ) :   0.9442 B( 11-C , 24-H ) :   0.9299

Dispersion correction           -0.027385101
FINAL SINGLE POINT ENERGY      -517.740532213697

DIPOLE MOMENT
-------------

Method             : SCF
Type of density    : Electron Density
Multiplicity       :   1
Irrep              :   0
Energy             :  -517.8156334891847337 Eh
Relativity type    :
Basis              : AO
                                X                 Y                 Z
Electronic contribution:      0.908139985       5.394618533       2.217343237
Nuclear contribution   :     -1.184124222      -6.626957373      -2.783832146
                        -----------------------------------------
Total Dipole Moment    :     -0.275984237      -1.232338841      -0.566488909
                        -----------------------------------------
Magnitude (a.u.)       :      1.384101153
Magnitude (Debye)      :      3.518105542

Rotational constants in cm-1:             0.079800             0.016970             0.015607
Rotational constants in MHz :          2392.358625           508.760631           467.882428

                             ****ORCA TERMINATED NORMALLY****
TOTAL RUN TIME: 0 days 0 hours 0 minutes 23 seconds 131 msec
