                         Program Version 6.0.1  -  RELEASE   -
|  1> ! r2scan-3c def2/J RI DEFGRID2 scfconv6 printgap
|  2> %output
|  3>     printlevel normal
|  4> end
|  5> * xyz 0 1
|  6> C 3.3561991278 0.0295898963 0.1886776191
|  7> N 1.9387249274 0.2770188292 0.3075107933
|  8> C 1.5720601275 1.3883396738 1.14552132
|  9> C 1.0656112098 -0.4978194241 -0.377980426
| 10> O 1.4252135741 -1.4003616147 -1.1112770065
| 11> C -0.3892047894 -0.1907490712 -0.1789290192
| 12> C -1.0624286014 -0.6773048936 0.9356869328
| 13> C -2.4208852892 -0.4548560955 1.0766099559
| 14> C -3.1132624629 0.2531610223 0.1083662789
| 15> C -2.4471480747 0.7309505499 -1.0076312162
| 16> C -1.0897876217 0.5051226749 -1.1559474858
| 17> H 3.7868848341 -0.1855625302 1.1692887637
| 18> H 3.8615577393 0.899301366 -0.2381438397
| 19> H 3.4942931821 -0.8281594571 -0.4666903604
| 20> H 1.8849524996 1.2043254846 2.1777199758
| 21> H 0.4962455608 1.5428407569 1.1245158905
| 22> H 2.0672902202 2.2982595459 0.7940676668
| 23> H -0.5202076443 -1.2334669621 1.6867895379
| 24> H -2.9404873907 -0.8360568612 1.9434464986
| 25> H -4.1731858108 0.4273334686 0.2210688524
| 26> H -2.9866236127 1.2774217664 -1.7671341572
| 27> H -0.5672338129 0.8665079521 -2.0294032005
| 28> *
| 29>
| 30>                          ****END OF INPUT****

CARTESIAN COORDINATES (ANGSTROEM)
---------------------------------
  C      3.356199    0.029590    0.188678
  N      1.938725    0.277019    0.307511
  C      1.572060    1.388340    1.145521
  C      1.065611   -0.497819   -0.377980
  O      1.425214   -1.400362   -1.111277
  C     -0.389205   -0.190749   -0.178929
  C     -1.062429   -0.677305    0.935687
  C     -2.420885   -0.454856    1.076610
  C     -3.113262    0.253161    0.108366
  C     -2.447148    0.730951   -1.007631
  C     -1.089788    0.505123   -1.155947
  H      3.786885   -0.185563    1.169289
  H      3.861558    0.899301   -0.238144
  H      3.494293   -0.828159   -0.466690
  H      1.884952    1.204325    2.177720
  H      0.496246    1.542841    1.124516
  H      2.067290    2.298260    0.794068
  H     -0.520208   -1.233467    1.686790
  H     -2.940487   -0.836057    1.943446
  H     -4.173186    0.427333    0.221069
  H     -2.986624    1.277422   -1.767134
  H     -0.567234    0.866508   -2.029403

 Total Charge           Charge          ....    0
 Multiplicity           Mult            ....    1
 Number of Electrons    NEL             ....   80
 Basis Dimension        Dim             ....  274

ORBITAL ENERGIES
----------------

  NO   OCC          E(Eh)            E(eV)
   0   2.0000     -18.909666      -514.5582
   1   2.0000     -14.196053      -386.2942
   2   2.0000     -10.124742      -275.5082
   3   2.0000     -10.068819      -273.9865
   4   2.0000     -10.059425      -273.7309
   5   2.0000     -10.049877      -273.4711
   6   2.0000     -10.043264      -273.2911
   7   2.0000     -10.042434      -273.2685
   8   2.0000     -10.042310      -273.2652
   9   2.0000     -10.041806      -273.2514
  10   2.0000     -10.040708      -273.2216
  11   2.0000      -1.002973       -27.2923
  12   2.0000      -0.908911       -24.7327
  13   2.0000      -0.834835       -22.7170
  14   2.0000      -0.738813       -20.1041
  15   2.0000      -0.724220       -19.7070
  16   2.0000      -0.694960       -18.9108
  17   2.0000      -0.669704       -18.2236
  18   2.0000      -0.590021       -16.0553
  19   2.0000      -0.583765       -15.8851
  20   2.0000      -0.525471       -14.2988
  21   2.0000      -0.501274       -13.6404
  22   2.0000      -0.462434       -12.5835
  23   2.0000      -0.454199       -12.3594
  24   2.0000      -0.442226       -12.0336
  25   2.0000      -0.428136       -11.6502
  26   2.0000      -0.417408       -11.3582
  27   2.0000      -0.397650       -10.8206
  28   2.0000      -0.379738       -10.3332
  29   2.0000      -0.377208       -10.2644
  30   2.0000      -0.372680       -10.1411
  31   2.0000      -0.359837        -9.7917
  32   2.0000      -0.345926        -9.4131
  33   2.0000      -0.343069        -9.3354
  34   2.0000      -0.328247        -8.9321
  35   2.0000      -0.316204        -8.6044
  36   2.0000      -0.248301        -6.7566
  37   2.0000      -0.245262        -6.6739
  38   2.0000      -0.218065        -5.9338
  39   2.0000      -0.212605        -5.7853
  40   0.0000      -0.040993        -1.1155
  41   0.0000      -0.039191        -1.0665
  42   0.0000       0.001724         0.0469
  43   0.0000       0.060896         1.6571
  44   0.0000       0.088555         2.4097

MULLIKEN ATOMIC CHARGES
-----------------------
   0 C :   -0.412791
   1 N :    0.085175
   2 C :   -0.384754
   3 C :    0.227915
   4 O :   -0.439811
   5 C :    0.031832
   6 C :   -0.188517
   7 C :   -0.155178
   8 C :   -0.128310
   9 C :   -0.155971
  10 C :   -0.177450
  11 H :    0.141068
  12 H :    0.143080
  13 H :    0.201843
  14 H :    0.150738
  15 H :    0.174641
  16 H :    0.145024
  17 H :    0.149619
  18 H :    0.145877
  19 H :    0.148042
  20 H :    0.146246
  21 H :    0.151684
Sum of atomic charges:    0.0000000

LOEWDIN ATOMIC CHARGES
----------------------
   0 C :   -0.111288
   1 N :   -0.837031
   2 C :   -0.103672
   3 C :    0.344538
   4 O :   -0.455235
   5 C :   -0.036044
   6 C :   -0.142305
   7 C :   -0.158653
   8 C :   -0.164447
   9 C :   -0.157485
  10 C :   -0.134186
  11 H :    0.172790
  12 H :    0.172641
  13 H :    0.211064
  14 H :    0.171442
  15 H :    0.197349
  16 H :    0.172769
  17 H :    0.175461
  18 H :    0.168513
  19 H :    0.167920
  20 H :    0.168703
  21 H :    0.177157

  Mayer bond orders larger than 0.100000
B(  0-C ,  1-N ) :   0.9295 B(  0-C , 11-H ) :   0.9531 B(  0-C , 12-H ) :   0.9549
B(  0-C , 13-H ) :   0.9546 B(  1-N ,  2-C ) :   0.9254 B(  1-N ,  3-C ) :   1.2094
B(  2-C , 14-H ) :   0.9569 B(  2-C , 15-H ) :   0.9532 B(  2-C , 16-H ) :   0.9547
B(  3-C ,  4-O ) :   1.8873 B(  3-C ,  5-C ) :   0.8783 B(  5-C ,  6-C ) :   1.4326
B(  5-C , 10-C ) :   1.4309 B(  6-C ,  7-C ) :   1.4169 B(  6-C , 17-H ) :   0.9439
B(  7-C ,  8-C ) :   1.4189 B(  7-C , 18-H ) :   0.9494 B(  8-C ,  9-C ) :   1.4165
B(  8-C , 19-H ) :   0.9454 B(  9-C , 10-C ) :   1.4098 B(  9-C , 20-H ) :   0.9500
B( 10-C , 21-H ) :   0.9499

Dispersion correction           -0.008024443
FINAL SINGLE POINT ENERGY      -479.436966981151

DIPOLE MOMENT
-------------

Method             : SCF
Type of density    : Electron Density
Multiplicity       :   1
Irrep              :   0
Energy             :  -479.4430538753944120 Eh
Relativity type    :
Basis              : AO
                                X                 Y                 Z
Electronic contribution:     -4.189617558      -3.913364907      -3.380015292
Nuclear contribution   :      4.162968970       5.077605640       4.315366451
                        -----------------------------------------
Total Dipole Moment    :     -0.026648588       1.164240734       0.935351159
                        -----------------------------------------
Magnitude (a.u.)       :      1.493669449
Magnitude (Debye)      :      3.796606019

Rotational constants in cm-1:             0.081533             0.023376             0.022102
Rotational constants in MHz :          2444.297407           700.803419           662.595567

                             ****ORCA TERMINATED NORMALLY****
TOTAL RUN TIME: 0 days 0 hours 0 minutes 37 seconds 149 msec
