                         Program Version 6.0.1  -  RELEASE   -
|  1> ! pbe def2-sv(p) def2/J RI DEFGRID1 loosescf d4 GCP(DFT/SV(P)) printgap
|  2> %output
|  3>     printlevel normal
|  4> end
|  5> * xyz 0 1
|  6> C 0.390337794 -1.8724752292 -0.2013653656
|  7> C 0.5678823646 -0.4815932062 -0.7810046728
|  8> H 1.1010953092 -0.5250636645 -1.7357561723
|  9> C -0.7453063343 0.2514250154 -1.0024312714
| 10> Cl -1.6861111494 0.3946469372 0.5045552494
| 11> Cl 1.608258784 0.4940688953 0.3099462266
| 12> H 1.3573166721 -2.3458396172 -0.0540986518
| 13> H -0.1234751394 -1.8196930838 0.7550789974
| 14> H -0.1991159414 -2.4801713203 -0.8848900238
| 15> H -0.5709135939 1.2646505843 -1.3642483044
| 16> H -1.3637048362 -0.2976653101 -1.713677171
| 17> *
| 18>
| 19>                          ****END OF INPUT****

CARTESIAN COORDINATES (ANGSTROEM)
---------------------------------
  C      0.390338   -1.872475   -0.201365
  C      0.567882   -0.481593   -0.781005
  H      1.101095   -0.525064   -1.735756
  C     -0.745306    0.251425   -1.002431
  Cl    -1.686111    0.394647    0.504555
  Cl     1.608259    0.494069    0.309946
  H      1.357317   -2.345840   -0.054099
  H     -0.123475   -1.819693    0.755079
  H     -0.199116   -2.480171   -0.884890
  H     -0.570914    1.264651   -1.364248
  H     -1.363705   -0.297665   -1.713677

 Total Charge           Charge          ....    0
 Multiplicity           Mult            ....    1
 Number of Electrons    NEL             ....   58
 Basis Dimension        Dim             ....   90

ORBITAL ENERGIES
----------------

  NO   OCC          E(Eh)            E(eV)
   0   2.0000    -100.626528     -2738.1870
   1   2.0000    -100.621675     -2738.0550
   2   2.0000      -9.964238      -271.1407
   3   2.0000      -9.953528      -270.8493
   4   2.0000      -9.892869      -269.1986
   5   2.0000      -9.162322      -249.3195
   6   2.0000      -9.157673      -249.1929
   7   2.0000      -6.994047      -190.3177
   8   2.0000      -6.989240      -190.1869
   9   2.0000      -6.982025      -189.9906
  10   2.0000      -6.981669      -189.9809
  11   2.0000      -6.977344      -189.8632
  12   2.0000      -6.977234      -189.8602
  13   2.0000      -0.810164       -22.0457
  14   2.0000      -0.758569       -20.6417
  15   2.0000      -0.676628       -18.4120
  16   2.0000      -0.622323       -16.9343
  17   2.0000      -0.523827       -14.2541
  18   2.0000      -0.447124       -12.1669
  19   2.0000      -0.435062       -11.8386
  20   2.0000      -0.405677       -11.0390
  21   2.0000      -0.373943       -10.1755
  22   2.0000      -0.349614        -9.5135
  23   2.0000      -0.339420        -9.2361
  24   2.0000      -0.330130        -8.9833
  25   2.0000      -0.259853        -7.0710
  26   2.0000      -0.256725        -6.9858
  27   2.0000      -0.249558        -6.7908
  28   2.0000      -0.245258        -6.6738
  29   0.0000      -0.006365        -0.1732
  30   0.0000       0.020592         0.5603
  31   0.0000       0.029114         0.7922
  32   0.0000       0.075672         2.0591
  33   0.0000       0.088053         2.3960

MULLIKEN ATOMIC CHARGES
-----------------------
   0 C :   -0.223877
   1 C :   -0.182806
   2 H :    0.133130
   3 C :   -0.118137
   4 Cl:   -0.128425
   5 Cl:   -0.120393
   6 H :    0.121120
   7 H :    0.125651
   8 H :    0.106531
   9 H :    0.147727
  10 H :    0.139479
Sum of atomic charges:    0.0000000

LOEWDIN ATOMIC CHARGES
----------------------
   0 C :   -0.355452
   1 C :   -0.217435
   2 H :    0.131292
   3 C :   -0.290685
   4 Cl:    0.049621
   5 Cl:    0.043721
   6 H :    0.128139
   7 H :    0.125355
   8 H :    0.126349
   9 H :    0.129353
  10 H :    0.129742

  Mayer bond orders larger than 0.100000
B(  0-C ,  1-C ) :   1.0945 B(  0-C ,  6-H ) :   0.9452 B(  0-C ,  7-H ) :   0.9339
B(  0-C ,  8-H ) :   0.9361 B(  1-C ,  2-H ) :   0.8990 B(  1-C ,  3-C ) :   1.0354
B(  1-C ,  5-Cl) :   1.0401 B(  3-C ,  4-Cl) :   1.0570 B(  3-C ,  9-H ) :   0.9224
B(  3-C , 10-H ) :   0.9141

Dispersion correction           -0.009954808
FINAL SINGLE POINT ENERGY     -1037.364392917853

DIPOLE MOMENT
-------------

Method             : SCF
Type of density    : Electron Density
Multiplicity       :   1
Irrep              :   0
Energy             : -1037.3992365985104698 Eh
Relativity type    :
Basis              : AO
                                X                 Y                 Z
Electronic contribution:     -0.340902999       6.562968787       4.906928128
Nuclear contribution   :      0.293256913      -7.013067191      -5.781839243
                        -----------------------------------------
Total Dipole Moment    :     -0.047646087      -0.450098405      -0.874911115
                        -----------------------------------------
Magnitude (a.u.)       :      0.985052375
Magnitude (Debye)      :      2.503804158

Rotational constants in cm-1:             0.144661             0.068737             0.057042
Rotational constants in MHz :          4336.827431          2060.680170          1710.070347

                             ****ORCA TERMINATED NORMALLY****
TOTAL RUN TIME: 0 days 0 hours 0 minutes 4 seconds 235 msec
