                         Program Version 6.0.1  -  RELEASE   -
|  1> ! pbe def2-sv(p) def2/J RI DEFGRID1 loosescf d4 GCP(DFT/SV(P)) printgap
|  2> %output
|  3>     printlevel normal
|  4> end
|  5> * xyz 0 1
|  6> C -3.0180539074 -0.8308348006 0.4018998708
|  7> C -1.9243305161 -0.3504712936 -0.5524288216
|  8> H -2.3966626559 -0.1431864903 -1.5219897958
|  9> C -0.8128669697 -1.3855730348 -0.7512001727
| 10> C 0.1959082906 -1.3316537502 0.3933851738
| 11> C 0.8680278374 0.0533851286 0.5315153736
| 12> H 0.7997886932 0.3639414596 1.5785673464
| 13> C 0.1267575899 1.1150266623 -0.3035813128
| 14> C -1.3570093286 0.9796181742 -0.0837676362
| 15> O -2.035801143 1.8442664901 0.4106785476
| 16> C 2.3342337951 0.0019598538 0.1710264899
| 17> C 3.2669334389 0.21421253 1.0860340779
| 18> C 2.689143447 -0.3078484519 -1.2527724109
| 19> H -3.5473200683 -1.682318742 -0.0192801563
| 20> H -2.5909530837 -1.1235220424 1.3579962319
| 21> H -3.7269754684 -0.0260947077 0.5786522148
| 22> H -1.2549150621 -2.3830050167 -0.7995417436
| 23> H -0.3053607943 -1.2106409861 -1.7016507092
| 24> H -0.3221149351 -1.5702529236 1.3234092308
| 25> H 0.9590184778 -2.0987357459 0.2486731251
| 26> H 0.4579407241 2.1129106025 -0.0133823703
| 27> H 0.3307484526 0.9688738138 -1.3644489474
| 28> H 4.3168029934 0.164490948 0.8506588893
| 29> H 3.0223454092 0.4482113253 2.1082533404
| 30> H 2.0973872377 -1.1372744437 -1.6340707792
| 31> H 2.5066577411 0.5589595109 -1.8878700641
| 32> H 3.7419311219 -0.5652512216 -1.3343351281
| 33> *
| 34>
| 35>                          ****END OF INPUT****

CARTESIAN COORDINATES (ANGSTROEM)
---------------------------------
  C     -3.018054   -0.830835    0.401900
  C     -1.924331   -0.350471   -0.552429
  H     -2.396663   -0.143186   -1.521990
  C     -0.812867   -1.385573   -0.751200
  C      0.195908   -1.331654    0.393385
  C      0.868028    0.053385    0.531515
  H      0.799789    0.363941    1.578567
  C      0.126758    1.115027   -0.303581
  C     -1.357009    0.979618   -0.083768
  O     -2.035801    1.844266    0.410679
  C      2.334234    0.001960    0.171026
  C      3.266933    0.214213    1.086034
  C      2.689143   -0.307848   -1.252772
  H     -3.547320   -1.682319   -0.019280
  H     -2.590953   -1.123522    1.357996
  H     -3.726975   -0.026095    0.578652
  H     -1.254915   -2.383005   -0.799542
  H     -0.305361   -1.210641   -1.701651
  H     -0.322115   -1.570253    1.323409
  H      0.959018   -2.098736    0.248673
  H      0.457941    2.112911   -0.013382
  H      0.330748    0.968874   -1.364449
  H      4.316803    0.164491    0.850659
  H      3.022345    0.448211    2.108253
  H      2.097387   -1.137274   -1.634071
  H      2.506658    0.558960   -1.887870
  H      3.741931   -0.565251   -1.334335

 Total Charge           Charge          ....    0
 Multiplicity           Mult            ....    1
 Number of Electrons    NEL             ....   84
 Basis Dimension        Dim             ....  186

ORBITAL ENERGIES
----------------

  NO   OCC          E(Eh)            E(eV)
   0   2.0000     -18.740039      -509.9424
   1   2.0000      -9.969453      -271.2826
   2   2.0000      -9.909148      -269.6416
   3   2.0000      -9.904553      -269.5166
   4   2.0000      -9.903114      -269.4774
   5   2.0000      -9.895303      -269.2649
   6   2.0000      -9.894222      -269.2355
   7   2.0000      -9.893610      -269.2188
   8   2.0000      -9.888966      -269.0924
   9   2.0000      -9.879267      -268.8285
  10   2.0000      -9.876723      -268.7593
  11   2.0000      -0.940234       -25.5851
  12   2.0000      -0.774014       -21.0620
  13   2.0000      -0.730443       -19.8764
  14   2.0000      -0.683822       -18.6077
  15   2.0000      -0.659226       -17.9385
  16   2.0000      -0.624441       -16.9919
  17   2.0000      -0.607685       -16.5359
  18   2.0000      -0.550305       -14.9746
  19   2.0000      -0.537111       -14.6155
  20   2.0000      -0.474883       -12.9222
  21   2.0000      -0.455876       -12.4050
  22   2.0000      -0.446884       -12.1603
  23   2.0000      -0.429893       -11.6980
  24   2.0000      -0.416989       -11.3469
  25   2.0000      -0.401584       -10.9276
  26   2.0000      -0.393646       -10.7117
  27   2.0000      -0.379708       -10.3324
  28   2.0000      -0.365336        -9.9413
  29   2.0000      -0.356991        -9.7142
  30   2.0000      -0.354034        -9.6337
  31   2.0000      -0.348290        -9.4774
  32   2.0000      -0.338867        -9.2210
  33   2.0000      -0.331879        -9.0309
  34   2.0000      -0.325675        -8.8621
  35   2.0000      -0.315598        -8.5879
  36   2.0000      -0.304391        -8.2829
  37   2.0000      -0.291561        -7.9338
  38   2.0000      -0.279482        -7.6051
  39   2.0000      -0.277547        -7.5524
  40   2.0000      -0.223514        -6.0821
  41   2.0000      -0.192224        -5.2307
  42   0.0000      -0.051273        -1.3952
  43   0.0000      -0.014616        -0.3977
  44   0.0000       0.026004         0.7076
  45   0.0000       0.037692         1.0257
  46   0.0000       0.055627         1.5137

MULLIKEN ATOMIC CHARGES
-----------------------
   0 C :   -0.246666
   1 C :   -0.186187
   2 H :    0.100881
   3 C :   -0.104112
   4 C :   -0.125644
   5 C :   -0.166354
   6 H :    0.067562
   7 C :   -0.051403
   8 C :    0.003318
   9 O :   -0.150088
  10 C :   -0.039716
  11 C :   -0.227527
  12 C :   -0.236206
  13 H :    0.099034
  14 H :    0.101164
  15 H :    0.121508
  16 H :    0.088285
  17 H :    0.075823
  18 H :    0.090068
  19 H :    0.098524
  20 H :    0.089473
  21 H :    0.090423
  22 H :    0.081233
  23 H :    0.087086
  24 H :    0.113298
  25 H :    0.123625
  26 H :    0.102599
Sum of atomic charges:   -0.0000000

LOEWDIN ATOMIC CHARGES
----------------------
   0 C :   -0.325609
   1 C :   -0.176511
   2 H :    0.142713
   3 C :   -0.220149
   4 C :   -0.217230
   5 C :   -0.121783
   6 H :    0.125549
   7 C :   -0.233345
   8 C :    0.049156
   9 O :   -0.119253
  10 C :   -0.050554
  11 C :   -0.262908
  12 C :   -0.326209
  13 H :    0.119132
  14 H :    0.118171
  15 H :    0.128396
  16 H :    0.122201
  17 H :    0.114242
  18 H :    0.122940
  19 H :    0.124486
  20 H :    0.132316
  21 H :    0.133845
  22 H :    0.116800
  23 H :    0.118112
  24 H :    0.124946
  25 H :    0.131868
  26 H :    0.128680

  Mayer bond orders larger than 0.100000
B(  0-C ,  1-C ) :   1.1194 B(  0-C , 13-H ) :   0.9467 B(  0-C , 14-H ) :   0.9503
B(  0-C , 15-H ) :   0.9361 B(  1-C ,  2-H ) :   0.8591 B(  1-C ,  3-C ) :   1.0801
B(  1-C ,  8-C ) :   0.9155 B(  3-C ,  4-C ) :   1.1691 B(  3-C , 16-H ) :   0.9119
B(  3-C , 17-H ) :   0.8857 B(  4-C ,  5-C ) :   1.0460 B(  4-C , 18-H ) :   0.9024
B(  4-C , 19-H ) :   0.9131 B(  5-C ,  6-H ) :   0.8792 B(  5-C ,  7-C ) :   1.0950
B(  5-C , 10-C ) :   1.0177 B(  7-C ,  8-C ) :   1.0856 B(  7-C , 20-H ) :   0.8941
B(  7-C , 21-H ) :   0.8525 B(  8-C ,  9-O ) :   2.2029 B( 10-C , 11-C ) :   2.0367
B( 10-C , 12-C ) :   1.1098 B( 11-C , 22-H ) :   0.9058 B( 11-C , 23-H ) :   0.9093
B( 12-C , 24-H ) :   0.9245 B( 12-C , 25-H ) :   0.9236 B( 12-C , 26-H ) :   0.9338

Dispersion correction           -0.028868258
FINAL SINGLE POINT ENERGY      -464.824146976383

DIPOLE MOMENT
-------------

Method             : SCF
Type of density    : Electron Density
Multiplicity       :   1
Irrep              :   0
Energy             :  -464.9098192268027105 Eh
Relativity type    :
Basis              : AO
                                X                 Y                 Z
Electronic contribution:     -3.328290700       6.031871837       1.560682701
Nuclear contribution   :      3.805335472      -6.842746576      -2.086358635
                        -----------------------------------------
Total Dipole Moment    :      0.477044771      -0.810874739      -0.525675934
                        -----------------------------------------
Magnitude (a.u.)       :      1.077694179
Magnitude (Debye)      :      2.739280909

Rotational constants in cm-1:             0.068873             0.023616             0.020957
Rotational constants in MHz :          2064.773059           708.004723           628.281460

                             ****ORCA TERMINATED NORMALLY****
TOTAL RUN TIME: 0 days 0 hours 0 minutes 27 seconds 861 msec
