                         Program Version 6.0.1  -  RELEASE   -
|  1> ! r2scan-3c def2/J RI DEFGRID2 scfconv6 printgap
|  2> %output
|  3>     printlevel normal
|  4> end
|  5> * xyz 0 1
|  6> C 1.685979326 0.3810483691 0.6392839908
|  7> C 0.8874266708 0.4238568351 -0.658947763
|  8> C -0.5653323646 -0.0497468322 -0.4895095368
|  9> H -1.0553141836 0.0121825614 -1.4784232389
| 10> C -1.3541196264 0.8037676751 0.4970324143
| 11> O -0.6247596112 -1.385089844 -0.0262391938
| 12> H 1.3568197574 1.15851251 1.322966706
| 13> H 2.7439221507 0.5307265937 0.4362970493
| 14> H 1.5572387026 -0.5838248908 1.1248015378
| 15> H 1.3718705549 -0.2208926479 -1.3994926298
| 16> H 0.8792847645 1.4379870442 -1.0619744002
| 17> H -1.3075483828 1.8506155593 0.21105006
| 18> H -2.3914472607 0.4810476579 0.5064727656
| 19> H -0.95099689 0.679358579 1.4971254933
| 20> H -0.0794742577 -1.9363016177 -0.5976211962
| 21> *
| 22>
| 23>                          ****END OF INPUT****

CARTESIAN COORDINATES (ANGSTROEM)
---------------------------------
  C      1.685979    0.381048    0.639284
  C      0.887427    0.423857   -0.658948
  C     -0.565332   -0.049747   -0.489510
  H     -1.055314    0.012183   -1.478423
  C     -1.354120    0.803768    0.497032
  O     -0.624760   -1.385090   -0.026239
  H      1.356820    1.158513    1.322967
  H      2.743922    0.530727    0.436297
  H      1.557239   -0.583825    1.124802
  H      1.371871   -0.220893   -1.399493
  H      0.879285    1.437987   -1.061974
  H     -1.307548    1.850616    0.211050
  H     -2.391447    0.481048    0.506473
  H     -0.950997    0.679359    1.497125
  H     -0.079474   -1.936302   -0.597621

 Total Charge           Charge          ....    0
 Multiplicity           Mult            ....    1
 Number of Electrons    NEL             ....   42
 Basis Dimension        Dim             ....  150

ORBITAL ENERGIES
----------------

  NO   OCC          E(Eh)            E(eV)
   0   2.0000     -18.944597      -515.5087
   1   2.0000     -10.079673      -274.2818
   2   2.0000     -10.027814      -272.8707
   3   2.0000     -10.014803      -272.5166
   4   2.0000     -10.014741      -272.5150
   5   2.0000      -0.985167       -26.8077
   6   2.0000      -0.751964       -20.4620
   7   2.0000      -0.690301       -18.7840
   8   2.0000      -0.608587       -16.5605
   9   2.0000      -0.541407       -14.7324
  10   2.0000      -0.467696       -12.7266
  11   2.0000      -0.436456       -11.8766
  12   2.0000      -0.423326       -11.5193
  13   2.0000      -0.368060       -10.0154
  14   2.0000      -0.356866        -9.7108
  15   2.0000      -0.348479        -9.4826
  16   2.0000      -0.339404        -9.2356
  17   2.0000      -0.316782        -8.6201
  18   2.0000      -0.305813        -8.3216
  19   2.0000      -0.282108        -7.6765
  20   2.0000      -0.233161        -6.3446
  21   0.0000       0.062303         1.6954
  22   0.0000       0.107406         2.9227
  23   0.0000       0.117982         3.2104
  24   0.0000       0.135931         3.6989
  25   0.0000       0.139945         3.8081

MULLIKEN ATOMIC CHARGES
-----------------------
   0 C :   -0.509504
   1 C :   -0.237671
   2 C :    0.059916
   3 H :    0.131964
   4 C :   -0.497895
   5 O :   -0.428948
   6 H :    0.150966
   7 H :    0.145559
   8 H :    0.169060
   9 H :    0.133615
  10 H :    0.138963
  11 H :    0.142098
  12 H :    0.153959
  13 H :    0.162224
  14 H :    0.285693
Sum of atomic charges:    0.0000000

LOEWDIN ATOMIC CHARGES
----------------------
   0 C :   -0.423990
   1 C :   -0.300911
   2 C :    0.043968
   3 H :    0.159649
   4 C :   -0.384062
   5 O :   -0.617729
   6 H :    0.151908
   7 H :    0.150289
   8 H :    0.161447
   9 H :    0.152253
  10 H :    0.158749
  11 H :    0.157550
  12 H :    0.161612
  13 H :    0.162781
  14 H :    0.266487

  Mayer bond orders larger than 0.100000
B(  0-C ,  1-C ) :   0.8826 B(  0-C ,  6-H ) :   0.9781 B(  0-C ,  7-H ) :   0.9702
B(  0-C ,  8-H ) :   0.9797 B(  1-C ,  2-C ) :   0.9306 B(  1-C ,  9-H ) :   0.9780
B(  1-C , 10-H ) :   0.9663 B(  2-C ,  3-H ) :   0.9547 B(  2-C ,  4-C ) :   0.9368
B(  2-C ,  5-O ) :   0.8911 B(  4-C , 11-H ) :   0.9734 B(  4-C , 12-H ) :   0.9639
B(  4-C , 13-H ) :   0.9781 B(  5-O , 14-H ) :   0.9008

Dispersion correction           -0.003255625
FINAL SINGLE POINT ENERGY      -233.603401624053

DIPOLE MOMENT
-------------

Method             : SCF
Type of density    : Electron Density
Multiplicity       :   1
Irrep              :   0
Energy             :  -233.6083910903327592 Eh
Relativity type    :
Basis              : AO
                                X                 Y                 Z
Electronic contribution:     -1.656761921      -2.986255594      -0.975888717
Nuclear contribution   :      1.983721352       3.178031359       0.526110115
                        -----------------------------------------
Total Dipole Moment    :      0.326959431       0.191775765      -0.449778602
                        -----------------------------------------
Magnitude (a.u.)       :      0.588201670
Magnitude (Debye)      :      1.495089828

Rotational constants in cm-1:             0.214656             0.131284             0.107771
Rotational constants in MHz :          6435.228397          3935.806153          3230.885253

                             ****ORCA TERMINATED NORMALLY****
TOTAL RUN TIME: 0 days 0 hours 0 minutes 10 seconds 435 msec
