                         Program Version 6.0.1  -  RELEASE   -
|  1> ! pbe def2-sv(p) def2/J RI DEFGRID1 loosescf d4 GCP(DFT/SV(P)) printgap
|  2> %output
|  3>     printlevel normal
|  4> end
|  5> * xyz 0 1
|  6> C -2.5680898415 -0.657055019 -0.3168262191
|  7> C -1.1900829618 -0.2842321976 0.2380069393
|  8> H -1.2461078644 -0.219702977 1.3357407034
|  9> C -0.7122005282 1.0661688141 -0.3079123997
| 10> H -0.7006682249 1.0249319124 -1.4095123981
| 11> C 0.7197024711 1.3370600336 0.1706343694
| 12> H 0.7207419825 1.4377290563 1.2688968969
| 13> C 1.619246491 0.1598788159 -0.2064265027
| 14> H 1.6658406146 0.070861664 -1.3031873231
| 15> C 1.0082250081 -1.1368765175 0.344862626
| 16> H 0.9958394996 -1.081671093 1.4558926194
| 17> O -0.2978669288 -1.325857618 -0.1284819346
| 18> O 1.7943646413 -2.1964289936 -0.0846809808
| 19> O 2.8983597875 0.3915090122 0.326246533
| 20> O 1.1562718606 2.5366623422 -0.4186644857
| 21> O -1.5880834957 2.0650138146 0.1350263085
| 22> O -3.0508901085 -1.8475410141 0.2392855762
| 23> H -2.4936493845 -0.737041609 -1.4099927811
| 24> H -3.275847571 0.1305509497 -0.0573080956
| 25> H 1.270720242 -3.0043255012 -0.0336884185
| 26> H 3.4152840248 -0.4147850994 0.2105393619
| 27> H 2.1047921931 2.6070300278 -0.2562008996
| 28> H -1.1695691838 2.9135223885 -0.0616313861
| 29> H -2.3819266614 -2.5272864599 0.094893118
| 30> *
| 31>
| 32>                          ****END OF INPUT****

CARTESIAN COORDINATES (ANGSTROEM)
---------------------------------
  C     -2.568090   -0.657055   -0.316826
  C     -1.190083   -0.284232    0.238007
  H     -1.246108   -0.219703    1.335741
  C     -0.712201    1.066169   -0.307912
  H     -0.700668    1.024932   -1.409512
  C      0.719702    1.337060    0.170634
  H      0.720742    1.437729    1.268897
  C      1.619246    0.159879   -0.206427
  H      1.665841    0.070862   -1.303187
  C      1.008225   -1.136877    0.344863
  H      0.995839   -1.081671    1.455893
  O     -0.297867   -1.325858   -0.128482
  O      1.794365   -2.196429   -0.084681
  O      2.898360    0.391509    0.326247
  O      1.156272    2.536662   -0.418664
  O     -1.588083    2.065014    0.135026
  O     -3.050890   -1.847541    0.239286
  H     -2.493649   -0.737042   -1.409993
  H     -3.275848    0.130551   -0.057308
  H      1.270720   -3.004326   -0.033688
  H      3.415284   -0.414785    0.210539
  H      2.104792    2.607030   -0.256201
  H     -1.169569    2.913522   -0.061631
  H     -2.381927   -2.527286    0.094893

 Total Charge           Charge          ....    0
 Multiplicity           Mult            ....    1
 Number of Electrons    NEL             ....   96
 Basis Dimension        Dim             ....  192

ORBITAL ENERGIES
----------------

  NO   OCC          E(Eh)            E(eV)
   0   2.0000     -18.788350      -511.2570
   1   2.0000     -18.776124      -510.9243
   2   2.0000     -18.765738      -510.6417
   3   2.0000     -18.759975      -510.4849
   4   2.0000     -18.754338      -510.3315
   5   2.0000     -18.743386      -510.0335
   6   2.0000      -9.997173      -272.0369
   7   2.0000      -9.948095      -270.7014
   8   2.0000      -9.946668      -270.6626
   9   2.0000      -9.946326      -270.6533
  10   2.0000      -9.945978      -270.6438
  11   2.0000      -9.929157      -270.1861
  12   2.0000      -0.999461       -27.1967
  13   2.0000      -0.953897       -25.9569
  14   2.0000      -0.945035       -25.7157
  15   2.0000      -0.931139       -25.3376
  16   2.0000      -0.922674       -25.1072
  17   2.0000      -0.917675       -24.9712
  18   2.0000      -0.711395       -19.3580
  19   2.0000      -0.697910       -18.9911
  20   2.0000      -0.619855       -16.8671
  21   2.0000      -0.586585       -15.9618
  22   2.0000      -0.564058       -15.3488
  23   2.0000      -0.535760       -14.5788
  24   2.0000      -0.522956       -14.2303
  25   2.0000      -0.490449       -13.3458
  26   2.0000      -0.472695       -12.8627
  27   2.0000      -0.463430       -12.6106
  28   2.0000      -0.455714       -12.4006
  29   2.0000      -0.442887       -12.0516
  30   2.0000      -0.418688       -11.3931
  31   2.0000      -0.402858       -10.9623
  32   2.0000      -0.394654       -10.7391
  33   2.0000      -0.372425       -10.1342
  34   2.0000      -0.367678       -10.0050
  35   2.0000      -0.361035        -9.8243
  36   2.0000      -0.334970        -9.1150
  37   2.0000      -0.327520        -8.9123
  38   2.0000      -0.315197        -8.5769
  39   2.0000      -0.303312        -8.2536
  40   2.0000      -0.292283        -7.9534
  41   2.0000      -0.273814        -7.4509
  42   2.0000      -0.258443        -7.0326
  43   2.0000      -0.251747        -6.8504
  44   2.0000      -0.233675        -6.3586
  45   2.0000      -0.223661        -6.0861
  46   2.0000      -0.218042        -5.9332
  47   2.0000      -0.214795        -5.8449
  48   0.0000       0.013010         0.3540
  49   0.0000       0.018521         0.5040
  50   0.0000       0.040979         1.1151
  51   0.0000       0.046711         1.2711
  52   0.0000       0.059592         1.6216

MULLIKEN ATOMIC CHARGES
-----------------------
   0 C :    0.100736
   1 C :   -0.019746
   2 H :    0.062470
   3 C :    0.066144
   4 H :    0.055690
   5 C :    0.064094
   6 H :    0.056702
   7 C :    0.033981
   8 H :    0.061129
   9 C :    0.177812
  10 H :    0.042764
  11 O :   -0.327838
  12 O :   -0.392377
  13 O :   -0.424328
  14 O :   -0.424266
  15 O :   -0.414941
  16 O :   -0.429421
  17 H :    0.065419
  18 H :    0.103528
  19 H :    0.309342
  20 H :    0.313682
  21 H :    0.314340
  22 H :    0.312890
  23 H :    0.292192
Sum of atomic charges:    0.0000000

LOEWDIN ATOMIC CHARGES
----------------------
   0 C :   -0.123843
   1 C :   -0.067922
   2 H :    0.109467
   3 C :   -0.065647
   4 H :    0.104488
   5 C :   -0.077055
   6 H :    0.105193
   7 C :   -0.091790
   8 H :    0.108426
   9 C :   -0.001930
  10 H :    0.082790
  11 O :   -0.154942
  12 O :   -0.307092
  13 O :   -0.321462
  14 O :   -0.323647
  15 O :   -0.314003
  16 O :   -0.332432
  17 H :    0.099814
  18 H :    0.126448
  19 H :    0.292230
  20 H :    0.292438
  21 H :    0.292472
  22 H :    0.291253
  23 H :    0.276745

  Mayer bond orders larger than 0.100000
B(  0-C ,  1-C ) :   1.0625 B(  0-C , 16-O ) :   1.0802 B(  0-C , 17-H ) :   0.9038
B(  0-C , 18-H ) :   0.9125 B(  1-C ,  2-H ) :   0.8668 B(  1-C ,  3-C ) :   1.0125
B(  1-C , 11-O ) :   0.9645 B(  3-C ,  4-H ) :   0.8655 B(  3-C ,  5-C ) :   1.0257
B(  3-C , 15-O ) :   1.0735 B(  5-C ,  6-H ) :   0.8729 B(  5-C ,  7-C ) :   1.0117
B(  5-C , 14-O ) :   1.0820 B(  7-C ,  8-H ) :   0.8635 B(  7-C ,  9-C ) :   0.9995
B(  7-C , 13-O ) :   1.0659 B(  9-C , 10-H ) :   0.8845 B(  9-C , 11-O ) :   1.0167
B(  9-C , 12-O ) :   1.1522 B( 12-O , 19-H ) :   0.8381 B( 13-O , 20-H ) :   0.8368
B( 14-O , 21-H ) :   0.8358 B( 15-O , 22-H ) :   0.8353 B( 16-O , 23-H ) :   0.8480

Dispersion correction           -0.023675585
FINAL SINGLE POINT ENERGY      -685.703924292593

DIPOLE MOMENT
-------------

Method             : SCF
Type of density    : Electron Density
Multiplicity       :   1
Irrep              :   0
Energy             :  -685.8350056034764748 Eh
Relativity type    :
Basis              : AO
                                X                 Y                 Z
Electronic contribution:      1.996079540      -0.611732454       0.054226654
Nuclear contribution   :     -1.013361292       0.181879063      -0.154303918
                        -----------------------------------------
Total Dipole Moment    :      0.982718248      -0.429853391      -0.100077265
                        -----------------------------------------
Magnitude (a.u.)       :      1.077276451
Magnitude (Debye)      :      2.738219129

Rotational constants in cm-1:             0.039475             0.026216             0.016426
Rotational constants in MHz :          1183.437591           785.926823           492.446881

                             ****ORCA TERMINATED NORMALLY****
TOTAL RUN TIME: 0 days 0 hours 0 minutes 7 seconds 693 msec
