                         Program Version 6.0.1  -  RELEASE   -
|  1> ! r2scan-3c def2/J RI DEFGRID2 scfconv6 printgap
|  2> %output
|  3>     printlevel normal
|  4> end
|  5> * xyz 0 1
|  6> C -2.5407769761 -0.4908891478 -0.4423427423
|  7> C -1.3845227567 0.1886465264 0.2678079267
|  8> O -0.1759065807 -0.4972668612 -0.0671755801
|  9> C 0.970013801 0.1714778004 0.0901372807
| 10> O 1.0369805996 1.297912527 0.5052946944
| 11> C 2.1442091702 -0.6687176194 -0.3400938963
| 12> H -2.4006040301 -0.4442576088 -1.5189911317
| 13> H -2.6004187074 -1.5343109796 -0.1448666353
| 14> H -3.4706191292 0.0069699845 -0.1833944458
| 15> H -1.5140619184 0.151890641 1.3554664015
| 16> H -1.2889717644 1.2382770054 -0.0306497357
| 17> H 2.2369952224 -0.6081843699 -1.4227340034
| 18> H 1.9816390993 -1.7063941127 -0.0651900155
| 19> H 3.0528418264 -0.2861184238 0.114262356
| 20> *
| 21>
| 22>                          ****END OF INPUT****

CARTESIAN COORDINATES (ANGSTROEM)
---------------------------------
  C     -2.540777   -0.490889   -0.442343
  C     -1.384523    0.188647    0.267808
  O     -0.175907   -0.497267   -0.067176
  C      0.970014    0.171478    0.090137
  O      1.036981    1.297913    0.505295
  C      2.144209   -0.668718   -0.340094
  H     -2.400604   -0.444258   -1.518991
  H     -2.600419   -1.534311   -0.144867
  H     -3.470619    0.006970   -0.183394
  H     -1.514062    0.151891    1.355466
  H     -1.288972    1.238277   -0.030650
  H      2.236995   -0.608184   -1.422734
  H      1.981639   -1.706394   -0.065190
  H      3.052842   -0.286118    0.114262

 Total Charge           Charge          ....    0
 Multiplicity           Mult            ....    1
 Number of Electrons    NEL             ....   48
 Basis Dimension        Dim             ....  164

ORBITAL ENERGIES
----------------

  NO   OCC          E(Eh)            E(eV)
   0   2.0000     -18.996049      -516.9088
   1   2.0000     -18.930705      -515.1307
   2   2.0000     -10.155515      -276.3456
   3   2.0000     -10.089913      -274.5605
   4   2.0000     -10.038924      -273.1730
   5   2.0000     -10.031391      -272.9680
   6   2.0000      -1.072652       -29.1884
   7   2.0000      -0.981788       -26.7158
   8   2.0000      -0.755221       -20.5506
   9   2.0000      -0.706391       -19.2219
  10   2.0000      -0.611794       -16.6477
  11   2.0000      -0.535684       -14.5767
  12   2.0000      -0.467459       -12.7202
  13   2.0000      -0.457072       -12.4376
  14   2.0000      -0.435720       -11.8565
  15   2.0000      -0.416228       -11.3261
  16   2.0000      -0.385395       -10.4871
  17   2.0000      -0.370811       -10.0903
  18   2.0000      -0.366580        -9.9752
  19   2.0000      -0.355065        -9.6618
  20   2.0000      -0.329341        -8.9618
  21   2.0000      -0.313705        -8.5363
  22   2.0000      -0.272619        -7.4183
  23   2.0000      -0.238565        -6.4917
  24   0.0000      -0.012719        -0.3461
  25   0.0000       0.077643         2.1128
  26   0.0000       0.098697         2.6857
  27   0.0000       0.119647         3.2558
  28   0.0000       0.131492         3.5781

MULLIKEN ATOMIC CHARGES
-----------------------
   0 C :   -0.440675
   1 C :   -0.149137
   2 O :   -0.167082
   3 C :    0.418167
   4 O :   -0.419818
   5 C :   -0.515666
   6 H :    0.151297
   7 H :    0.151163
   8 H :    0.146201
   9 H :    0.145629
  10 H :    0.167878
  11 H :    0.171076
  12 H :    0.166693
  13 H :    0.174275
Sum of atomic charges:   -0.0000000

LOEWDIN ATOMIC CHARGES
----------------------
   0 C :   -0.387566
   1 C :    0.030930
   2 O :   -0.602160
   3 C :    0.351373
   4 O :   -0.420459
   5 C :   -0.338408
   6 H :    0.158371
   7 H :    0.158457
   8 H :    0.159152
   9 H :    0.174388
  10 H :    0.186500
  11 H :    0.180031
  12 H :    0.175194
  13 H :    0.174198

  Mayer bond orders larger than 0.100000
B(  0-C ,  1-C ) :   0.9447 B(  0-C ,  6-H ) :   0.9746 B(  0-C ,  7-H ) :   0.9689
B(  0-C ,  8-H ) :   0.9681 B(  1-C ,  2-O ) :   0.8061 B(  1-C ,  9-H ) :   0.9471
B(  1-C , 10-H ) :   0.9623 B(  2-O ,  3-C ) :   1.0552 B(  3-C ,  4-O ) :   1.8417
B(  3-C ,  5-C ) :   0.9552 B(  5-C , 11-H ) :   0.9375 B(  5-C , 12-H ) :   0.9698
B(  5-C , 13-H ) :   0.9830

Dispersion correction           -0.002875192
FINAL SINGLE POINT ENERGY      -307.637647459555

DIPOLE MOMENT
-------------

Method             : SCF
Type of density    : Electron Density
Multiplicity       :   1
Irrep              :   0
Energy             :  -307.6438857250068395 Eh
Relativity type    :
Basis              : AO
                                X                 Y                 Z
Electronic contribution:      3.357501523       2.291670280       1.486796902
Nuclear contribution   :     -3.742908896      -2.973501725      -1.772363008
                        -----------------------------------------
Total Dipole Moment    :     -0.385407373      -0.681831446      -0.285566106
                        -----------------------------------------
Magnitude (a.u.)       :      0.833655183
Magnitude (Debye)      :      2.118983077

Rotational constants in cm-1:             0.278790             0.070148             0.058463
Rotational constants in MHz :          8357.921029          2102.975023          1752.673362

                             ****ORCA TERMINATED NORMALLY****
TOTAL RUN TIME: 0 days 0 hours 0 minutes 25 seconds 649 msec
