                         Program Version 6.0.1  -  RELEASE   -
|  1> ! r2scan-3c def2/J RI DEFGRID2 scfconv6 printgap
|  2> %output
|  3>     printlevel normal
|  4> end
|  5> * xyz 0 1
|  6> C -4.3239724836 -1.3979156013 -0.3183678355
|  7> N -3.3110433155 -0.7160932564 0.4461960453
|  8> C -2.1755569378 -0.247818891 -0.1155369271
|  9> O -1.8458738944 -0.3956340208 -1.2622992287
| 10> O -1.4522387951 0.4229045077 0.825671435
| 11> C -0.2009411136 0.9017414611 0.4390092005
| 12> C -0.0307631291 2.2528859355 0.3012045838
| 13> C 1.2232803475 2.7719976888 -0.0490106805
| 14> C 2.2796690751 1.9347484747 -0.2689465742
| 15> C 2.1335610721 0.5384892108 -0.1337945699
| 16> C 0.8723040474 -0.0003329134 0.2356946358
| 17> C 0.7419403816 -1.3953262532 0.3923000664
| 18> C 1.8071871155 -2.2229776071 0.173319513
| 19> C 3.0503825791 -1.695448486 -0.2060872012
| 20> C 3.210226059 -0.346251459 -0.3518730182
| 21> H -5.2476587305 -0.8161990963 -0.3539747213
| 22> H -4.5340032179 -2.378152535 0.1131840669
| 23> H -3.938693756 -1.5224394804 -1.3288876852
| 24> H -3.4920374099 -0.4867843956 1.4099836409
| 25> H -0.8697872412 2.9125604775 0.4618432572
| 26> H 1.3378743546 3.8405715786 -0.1526449048
| 27> H 3.2450740859 2.3296078411 -0.5506126481
| 28> H -0.2123113801 -1.8052171849 0.6886934399
| 29> H 1.6978307521 -3.2909115641 0.2921430869
| 30> H 3.8801387018 -2.365345007 -0.3783881262
| 31> H 4.1672576642 0.0663470271 -0.6378537055
| 32> *
| 33>
| 34>                          ****END OF INPUT****

CARTESIAN COORDINATES (ANGSTROEM)
---------------------------------
  C     -4.323972   -1.397916   -0.318368
  N     -3.311043   -0.716093    0.446196
  C     -2.175557   -0.247819   -0.115537
  O     -1.845874   -0.395634   -1.262299
  O     -1.452239    0.422905    0.825671
  C     -0.200941    0.901741    0.439009
  C     -0.030763    2.252886    0.301205
  C      1.223280    2.771998   -0.049011
  C      2.279669    1.934748   -0.268947
  C      2.133561    0.538489   -0.133795
  C      0.872304   -0.000333    0.235695
  C      0.741940   -1.395326    0.392300
  C      1.807187   -2.222978    0.173320
  C      3.050383   -1.695448   -0.206087
  C      3.210226   -0.346251   -0.351873
  H     -5.247659   -0.816199   -0.353975
  H     -4.534003   -2.378153    0.113184
  H     -3.938694   -1.522439   -1.328888
  H     -3.492037   -0.486784    1.409984
  H     -0.869787    2.912560    0.461843
  H      1.337874    3.840572   -0.152645
  H      3.245074    2.329608   -0.550613
  H     -0.212311   -1.805217    0.688693
  H      1.697831   -3.290912    0.292143
  H      3.880139   -2.365345   -0.378388
  H      4.167258    0.066347   -0.637854

 Total Charge           Charge          ....    0
 Multiplicity           Mult            ....    1
 Number of Electrons    NEL             ....  106
 Basis Dimension        Dim             ....  355

ORBITAL ENERGIES
----------------

  NO   OCC          E(Eh)            E(eV)
   0   2.0000     -19.003171      -517.1026
   1   2.0000     -18.919738      -514.8322
   2   2.0000     -14.193552      -386.2262
   3   2.0000     -10.174487      -276.8619
   4   2.0000     -10.100189      -274.8401
   5   2.0000     -10.069168      -273.9960
   6   2.0000     -10.048775      -273.4411
   7   2.0000     -10.048107      -273.4229
   8   2.0000     -10.039725      -273.1948
   9   2.0000     -10.038501      -273.1615
  10   2.0000     -10.037500      -273.1342
  11   2.0000     -10.037168      -273.1252
  12   2.0000     -10.036363      -273.1033
  13   2.0000     -10.036352      -273.1030
  14   2.0000     -10.035938      -273.0917
  15   2.0000      -1.081213       -29.4213
  16   2.0000      -0.988021       -26.8854
  17   2.0000      -0.903390       -24.5825
  18   2.0000      -0.847143       -23.0519
  19   2.0000      -0.796046       -21.6615
  20   2.0000      -0.747059       -20.3285
  21   2.0000      -0.716946       -19.5091
  22   2.0000      -0.705824       -19.2064
  23   2.0000      -0.676690       -18.4137
  24   2.0000      -0.607640       -16.5347
  25   2.0000      -0.591985       -16.1087
  26   2.0000      -0.586204       -15.9514
  27   2.0000      -0.555095       -15.1049
  28   2.0000      -0.530169       -14.4266
  29   2.0000      -0.490389       -13.3442
  30   2.0000      -0.473705       -12.8902
  31   2.0000      -0.466905       -12.7051
  32   2.0000      -0.455137       -12.3849
  33   2.0000      -0.442532       -12.0419
  34   2.0000      -0.420188       -11.4339
  35   2.0000      -0.419155       -11.4058
  36   2.0000      -0.401184       -10.9168
  37   2.0000      -0.397642       -10.8204
  38   2.0000      -0.391491       -10.6530
  39   2.0000      -0.382248       -10.4015
  40   2.0000      -0.370235       -10.0746
  41   2.0000      -0.367277        -9.9941
  42   2.0000      -0.359293        -9.7769
  43   2.0000      -0.348297        -9.4777
  44   2.0000      -0.318515        -8.6672
  45   2.0000      -0.310876        -8.4594
  46   2.0000      -0.306877        -8.3505
  47   2.0000      -0.283464        -7.7134
  48   2.0000      -0.259569        -7.0632
  49   2.0000      -0.249255        -6.7826
  50   2.0000      -0.236791        -6.4434
  51   2.0000      -0.233317        -6.3489
  52   2.0000      -0.201278        -5.4771
  53   0.0000      -0.067881        -1.8471
  54   0.0000      -0.037891        -1.0311
  55   0.0000      -0.000230        -0.0063
  56   0.0000       0.026189         0.7126
  57   0.0000       0.055868         1.5202

MULLIKEN ATOMIC CHARGES
-----------------------
   0 C :   -0.394662
   1 N :   -0.153930
   2 C :    0.320315
   3 O :   -0.460575
   4 O :   -0.188363
   5 C :    0.263204
   6 C :   -0.253348
   7 C :   -0.131356
   8 C :   -0.268202
   9 C :    0.190943
  10 C :    0.059669
  11 C :   -0.213755
  12 C :   -0.166490
  13 C :   -0.143397
  14 C :   -0.220843
  15 H :    0.142985
  16 H :    0.143867
  17 H :    0.196751
  18 H :    0.249337
  19 H :    0.156771
  20 H :    0.146927
  21 H :    0.144302
  22 H :    0.146140
  23 H :    0.145065
  24 H :    0.145091
  25 H :    0.143555
Sum of atomic charges:    0.0000000

LOEWDIN ATOMIC CHARGES
----------------------
   0 C :   -0.110205
   1 N :   -0.611896
   2 C :    0.446937
   3 O :   -0.391053
   4 O :   -0.513242
   5 C :    0.220003
   6 C :   -0.119639
   7 C :   -0.155749
   8 C :   -0.146730
   9 C :   -0.051444
  10 C :   -0.017338
  11 C :   -0.118012
  12 C :   -0.159439
  13 C :   -0.160643
  14 C :   -0.142304
  15 H :    0.167799
  16 H :    0.169077
  17 H :    0.206581
  18 H :    0.276587
  19 H :    0.180635
  20 H :    0.169691
  21 H :    0.171189
  22 H :    0.181866
  23 H :    0.168281
  24 H :    0.167978
  25 H :    0.171069

  Mayer bond orders larger than 0.100000
B(  0-C ,  1-N ) :   0.9003 B(  0-C , 15-H ) :   0.9598 B(  0-C , 16-H ) :   0.9633
B(  0-C , 17-H ) :   0.9591 B(  1-N ,  2-C ) :   1.2440 B(  1-N , 18-H ) :   0.9126
B(  2-C ,  3-O ) :   1.8576 B(  2-C ,  4-O ) :   1.0516 B(  4-O ,  5-C ) :   0.9544
B(  5-C ,  6-C ) :   1.5198 B(  5-C , 10-C ) :   1.2816 B(  6-C ,  7-C ) :   1.2232
B(  6-C , 19-H ) :   0.9299 B(  7-C ,  8-C ) :   1.5101 B(  7-C , 20-H ) :   0.9513
B(  8-C ,  9-C ) :   1.1752 B(  8-C , 21-H ) :   0.9445 B(  9-C , 10-C ) :   1.3994
B(  9-C , 14-C ) :   1.1813 B( 10-C , 11-C ) :   1.2675 B( 11-C , 12-C ) :   1.5147
B( 11-C , 22-H ) :   0.9445 B( 12-C , 13-C ) :   1.2616 B( 12-C , 23-H ) :   0.9481
B( 13-C , 14-C ) :   1.5152 B( 13-C , 24-H ) :   0.9486 B( 14-C , 25-H ) :   0.9500

Dispersion correction           -0.010820005
FINAL SINGLE POINT ENERGY      -668.978597396882

DIPOLE MOMENT
-------------

Method             : SCF
Type of density    : Electron Density
Multiplicity       :   1
Irrep              :   0
Energy             :  -668.9825923628862938 Eh
Relativity type    :
Basis              : AO
                                X                 Y                 Z
Electronic contribution:      3.231866151       3.175947405       1.131038148
Nuclear contribution   :     -3.788110198      -3.302103204      -0.413541422
                        -----------------------------------------
Total Dipole Moment    :     -0.556244046      -0.126155799       0.717496726
                        -----------------------------------------
Magnitude (a.u.)       :      0.916582935
Magnitude (Debye)      :      2.329768670

Rotational constants in cm-1:             0.036285             0.014723             0.011240
Rotational constants in MHz :          1087.787539           441.397511           336.959041

                             ****ORCA TERMINATED NORMALLY****
TOTAL RUN TIME: 0 days 0 hours 1 minutes 14 seconds 215 msec
