                         Program Version 6.0.1  -  RELEASE   -
|  1> ! pbe def2-sv(p) def2/J RI DEFGRID1 loosescf d4 GCP(DFT/SV(P)) printgap
|  2> %output
|  3>     printlevel normal
|  4> end
|  5> * xyz 0 1
|  6> C -1.7942557833 -1.0433360061 -0.691388589
|  7> C -1.02682288 -0.4624681596 0.5072793872
|  8> H -1.7005653934 -0.5195208931 1.3704567815
|  9> C -0.6961605767 1.0254848533 0.305500915
| 10> H -1.5238736271 1.4739040374 -0.2614342455
| 11> C 0.613629121 1.2398332953 -0.4801947845
| 12> H 0.9073271747 2.2969613385 -0.3639392358
| 13> C 1.735314671 0.3622445545 0.1169960031
| 14> H 2.6357735008 0.4316960094 -0.5062869043
| 15> C 1.2674997759 -1.1100999796 0.1365237491
| 16> H 1.9964902439 -1.7203650135 0.6828122403
| 17> O 0.0874089299 -1.2433833219 0.8890791165
| 18> O 1.1902081408 -1.6421539113 -1.145711746
| 19> O 2.0987553179 0.808603571 1.3902223126
| 20> O 0.3810063882 0.9483357505 -1.8452895802
| 21> O -0.5966469565 1.6024900542 1.5891864665
| 22> O -3.1247964615 -0.5831736997 -0.5949841795
| 23> H -1.7432110773 -2.1372911621 -0.6254416532
| 24> H -1.3535228597 -0.7163950917 -1.6414305935
| 25> H 0.6931517447 -1.0272647587 -1.7076900064
| 26> H 1.3228494124 0.7223348356 1.9669984868
| 27> H 1.1498576517 1.2235268691 -2.358394209
| 28> H -0.4908625969 2.5574236445 1.5099013351
| 29> H -3.6460556675 -0.9892082379 -1.2953474038
| 30> *
| 31>
| 32>                          ****END OF INPUT****

CARTESIAN COORDINATES (ANGSTROEM)
---------------------------------
  C     -1.794256   -1.043336   -0.691389
  C     -1.026823   -0.462468    0.507279
  H     -1.700565   -0.519521    1.370457
  C     -0.696161    1.025485    0.305501
  H     -1.523874    1.473904   -0.261434
  C      0.613629    1.239833   -0.480195
  H      0.907327    2.296961   -0.363939
  C      1.735315    0.362245    0.116996
  H      2.635774    0.431696   -0.506287
  C      1.267500   -1.110100    0.136524
  H      1.996490   -1.720365    0.682812
  O      0.087409   -1.243383    0.889079
  O      1.190208   -1.642154   -1.145712
  O      2.098755    0.808604    1.390222
  O      0.381006    0.948336   -1.845290
  O     -0.596647    1.602490    1.589186
  O     -3.124796   -0.583174   -0.594984
  H     -1.743211   -2.137291   -0.625442
  H     -1.353523   -0.716395   -1.641431
  H      0.693152   -1.027265   -1.707690
  H      1.322849    0.722335    1.966998
  H      1.149858    1.223527   -2.358394
  H     -0.490863    2.557424    1.509901
  H     -3.646056   -0.989208   -1.295347

 Total Charge           Charge          ....    0
 Multiplicity           Mult            ....    1
 Number of Electrons    NEL             ....   96
 Basis Dimension        Dim             ....  192

ORBITAL ENERGIES
----------------

  NO   OCC          E(Eh)            E(eV)
   0   2.0000     -18.789887      -511.2988
   1   2.0000     -18.771044      -510.7861
   2   2.0000     -18.761360      -510.5226
   3   2.0000     -18.751269      -510.2480
   4   2.0000     -18.747311      -510.1403
   5   2.0000     -18.743285      -510.0307
   6   2.0000      -9.975068      -271.4354
   7   2.0000      -9.958399      -270.9818
   8   2.0000      -9.953349      -270.8444
   9   2.0000      -9.943205      -270.5684
  10   2.0000      -9.941387      -270.5189
  11   2.0000      -9.931156      -270.2405
  12   2.0000      -0.980731       -26.6870
  13   2.0000      -0.958206       -26.0741
  14   2.0000      -0.946988       -25.7688
  15   2.0000      -0.927375       -25.2352
  16   2.0000      -0.921765       -25.0825
  17   2.0000      -0.904458       -24.6115
  18   2.0000      -0.711157       -19.3516
  19   2.0000      -0.686989       -18.6939
  20   2.0000      -0.617813       -16.8115
  21   2.0000      -0.591235       -16.0883
  22   2.0000      -0.579190       -15.7606
  23   2.0000      -0.517973       -14.0948
  24   2.0000      -0.508106       -13.8263
  25   2.0000      -0.494092       -13.4449
  26   2.0000      -0.475605       -12.9419
  27   2.0000      -0.471603       -12.8330
  28   2.0000      -0.437348       -11.9009
  29   2.0000      -0.432068       -11.7572
  30   2.0000      -0.424482       -11.5508
  31   2.0000      -0.405910       -11.0454
  32   2.0000      -0.387940       -10.5564
  33   2.0000      -0.375171       -10.2089
  34   2.0000      -0.365522        -9.9464
  35   2.0000      -0.351611        -9.5678
  36   2.0000      -0.334068        -9.0905
  37   2.0000      -0.314407        -8.5554
  38   2.0000      -0.311867        -8.4863
  39   2.0000      -0.295119        -8.0306
  40   2.0000      -0.283167        -7.7054
  41   2.0000      -0.276359        -7.5201
  42   2.0000      -0.261766        -7.1230
  43   2.0000      -0.257435        -7.0052
  44   2.0000      -0.230745        -6.2789
  45   2.0000      -0.224476        -6.1083
  46   2.0000      -0.215543        -5.8652
  47   2.0000      -0.197818        -5.3829
  48   0.0000      -0.002649        -0.0721
  49   0.0000       0.011626         0.3163
  50   0.0000       0.024744         0.6733
  51   0.0000       0.063353         1.7239
  52   0.0000       0.070183         1.9098

MULLIKEN ATOMIC CHARGES
-----------------------
   0 C :   -0.004803
   1 C :    0.056401
   2 H :    0.093063
   3 C :    0.032915
   4 H :    0.089772
   5 C :   -0.004931
   6 H :    0.064407
   7 C :    0.032457
   8 H :    0.068173
   9 C :    0.196411
  10 H :    0.075835
  11 O :   -0.299656
  12 O :   -0.410122
  13 O :   -0.423052
  14 O :   -0.409494
  15 O :   -0.410824
  16 O :   -0.435855
  17 H :    0.090934
  18 H :    0.077568
  19 H :    0.295756
  20 H :    0.302061
  21 H :    0.315235
  22 H :    0.304865
  23 H :    0.302885
Sum of atomic charges:   -0.0000000

LOEWDIN ATOMIC CHARGES
----------------------
   0 C :   -0.144721
   1 C :   -0.060014
   2 H :    0.130256
   3 C :   -0.068136
   4 H :    0.115147
   5 C :   -0.084107
   6 H :    0.099983
   7 C :   -0.096359
   8 H :    0.111308
   9 C :   -0.008843
  10 H :    0.112334
  11 O :   -0.134551
  12 O :   -0.313186
  13 O :   -0.313751
  14 O :   -0.307977
  15 O :   -0.303113
  16 O :   -0.342166
  17 H :    0.106240
  18 H :    0.095803
  19 H :    0.261157
  20 H :    0.272223
  21 H :    0.295534
  22 H :    0.288237
  23 H :    0.288701

  Mayer bond orders larger than 0.100000
B(  0-C ,  1-C ) :   1.0568 B(  0-C , 16-O ) :   1.0677 B(  0-C , 17-H ) :   0.9099
B(  0-C , 18-H ) :   0.8971 B(  1-C ,  2-H ) :   0.8877 B(  1-C ,  3-C ) :   1.0136
B(  1-C , 11-O ) :   1.0297 B(  3-C ,  4-H ) :   0.8874 B(  3-C ,  5-C ) :   0.9923
B(  3-C , 15-O ) :   1.0381 B(  5-C ,  6-H ) :   0.9018 B(  5-C ,  7-C ) :   0.9528
B(  5-C , 14-O ) :   1.0217 B(  7-C ,  8-H ) :   0.8956 B(  7-C ,  9-C ) :   0.9896
B(  7-C , 13-O ) :   1.0670 B(  9-C , 10-H ) :   0.9074 B(  9-C , 11-O ) :   1.0334
B(  9-C , 12-O ) :   1.1228 B( 12-O , 19-H ) :   0.7959 B( 13-O , 20-H ) :   0.8131
B( 14-O , 19-H ) :   0.1078 B( 14-O , 21-H ) :   0.8363 B( 15-O , 22-H ) :   0.8408
B( 16-O , 23-H ) :   0.8507

Dispersion correction           -0.025999074
FINAL SINGLE POINT ENERGY      -685.694228040873

DIPOLE MOMENT
-------------

Method             : SCF
Type of density    : Electron Density
Multiplicity       :   1
Irrep              :   0
Energy             :  -685.8275975978094721 Eh
Relativity type    :
Basis              : AO
                                X                 Y                 Z
Electronic contribution:      1.292230224      -0.453359378       1.880059849
Nuclear contribution   :     -1.643743513       1.495514403      -3.025912410
                        -----------------------------------------
Total Dipole Moment    :     -0.351513289       1.042155026      -1.145852560
                        -----------------------------------------
Magnitude (a.u.)       :      1.588277929
Magnitude (Debye)      :      4.037081664

Rotational constants in cm-1:             0.041132             0.028473             0.024599
Rotational constants in MHz :          1233.118821           853.610435           737.456250

                             ****ORCA TERMINATED NORMALLY****
TOTAL RUN TIME: 0 days 0 hours 0 minutes 13 seconds 100 msec
