                         Program Version 6.0.0  -   RELEASE  -
|  1> ! r2SCAN-3c DEF2-TZVP FREQ
|  2> * xyzfile 0 1 censo.xyz
|  3>
|  4>                          ****END OF INPUT****

CARTESIAN COORDINATES (ANGSTROEM)
---------------------------------
  C     -3.415577    0.576826   -0.018700
  C     -1.942140    0.559034    0.354346
  H     -1.799448    1.003340    1.351416
  C     -1.076829    1.377519   -0.630243
  C      0.405704    1.341616   -0.272225
  C      0.931459   -0.104317   -0.224961
  H      0.766943   -0.543630   -1.220871
  C      0.095989   -0.912844    0.788158
  C     -1.366253   -0.835124    0.442825
  O     -2.033293   -1.842594    0.221053
  C      2.421098   -0.149029    0.038750
  C      2.952975   -0.491196    1.216243
  C      3.282385    0.227148   -1.133370
  H     -3.782359    1.607239   -0.044898
  H     -3.572695    0.134137   -1.007776
  H     -4.018652    0.017310    0.702132
  H     -1.223427    0.975673   -1.642033
  H     -1.442305    2.410062   -0.636599
  H      0.971554    1.926038   -1.004501
  H      0.564410    1.804343    0.711266
  H      0.409753   -1.959613    0.819398
  H      0.222879   -0.473935    1.786973
  H      4.030294   -0.485579    1.359346
  H      2.347465   -0.786908    2.067329
  H      3.024408    1.220852   -1.517656
  H      4.342572    0.223972   -0.867948
  H      3.126833   -0.477544   -1.960079

 Total Charge           Charge          ....    0
 Multiplicity           Mult            ....    1
 Number of Electrons    NEL             ....   84
 Basis Dimension        Dim             ....  437

ORBITAL ENERGIES
----------------

  NO   OCC          E(Eh)            E(eV)
   0   2.0000     -18.934273      -515.2278
   1   2.0000     -10.112898      -275.1859
   2   2.0000     -10.056121      -273.6410
   3   2.0000     -10.050237      -273.4809
   4   2.0000     -10.047919      -273.4178
   5   2.0000     -10.044730      -273.3310
   6   2.0000     -10.043034      -273.2849
   7   2.0000     -10.038935      -273.1733
   8   2.0000     -10.033791      -273.0333
   9   2.0000     -10.023653      -272.7575
  10   2.0000     -10.021566      -272.7007
  11   2.0000      -0.992045       -26.9949
  12   2.0000      -0.821341       -22.3498
  13   2.0000      -0.777511       -21.1572
  14   2.0000      -0.729413       -19.8483
  15   2.0000      -0.707462       -19.2510
  16   2.0000      -0.657663       -17.8959
  17   2.0000      -0.646712       -17.5979
  18   2.0000      -0.585541       -15.9334
  19   2.0000      -0.572310       -15.5733
  20   2.0000      -0.506746       -13.7893
  21   2.0000      -0.492264       -13.3952
  22   2.0000      -0.452083       -12.3018
  23   2.0000      -0.449014       -12.2183
  24   2.0000      -0.421368       -11.4660
  25   2.0000      -0.417084       -11.3494
  26   2.0000      -0.415068       -11.2946
  27   2.0000      -0.397928       -10.8282
  28   2.0000      -0.392155       -10.6711
  29   2.0000      -0.381921       -10.3926
  30   2.0000      -0.370062       -10.0699
  31   2.0000      -0.355444        -9.6721
  32   2.0000      -0.348832        -9.4922
  33   2.0000      -0.342787        -9.3277
  34   2.0000      -0.332904        -9.0588
  35   2.0000      -0.323680        -8.8078
  36   2.0000      -0.313680        -8.5357
  37   2.0000      -0.308885        -8.4052
  38   2.0000      -0.300909        -8.1881
  39   2.0000      -0.291548        -7.9334
  40   2.0000      -0.234314        -6.3760
  41   2.0000      -0.208614        -5.6767
  42   0.0000      -0.049784        -1.3547
  43   0.0000      -0.018271        -0.4972
  44   0.0000       0.036140         0.9834
  45   0.0000       0.044328         1.2062
  46   0.0000       0.056165         1.5283

MULLIKEN ATOMIC CHARGES
-----------------------
   0 C :   -0.316279
   1 C :    0.035229
   2 H :    0.063231
   3 C :   -0.203475
   4 C :   -0.199876
   5 C :    0.034392
   6 H :    0.067034
   7 C :   -0.134081
   8 C :    0.111569
   9 O :   -0.326398
  10 C :    0.032995
  11 C :   -0.294676
  12 C :   -0.350789
  13 H :    0.103094
  14 H :    0.109005
  15 H :    0.118456
  16 H :    0.095878
  17 H :    0.097527
  18 H :    0.095788
  19 H :    0.092934
  20 H :    0.119743
  21 H :    0.090992
  22 H :    0.106971
  23 H :    0.113871
  24 H :    0.109347
  25 H :    0.108760
  26 H :    0.118759
Sum of atomic charges:   -0.0000000

LOEWDIN ATOMIC CHARGES
----------------------
   0 C :   -0.273835
   1 C :   -0.250368
   2 H :    0.164565
   3 C :   -0.222458
   4 C :   -0.222326
   5 C :   -0.205949
   6 H :    0.164060
   7 C :   -0.184634
   8 C :   -0.295141
   9 O :    0.115599
  10 C :   -0.209652
  11 C :   -0.193565
  12 C :   -0.254803
  13 H :    0.120217
  14 H :    0.127014
  15 H :    0.127199
  16 H :    0.142293
  17 H :    0.139250
  18 H :    0.137978
  19 H :    0.142349
  20 H :    0.151002
  21 H :    0.153111
  22 H :    0.122409
  23 H :    0.122352
  24 H :    0.125730
  25 H :    0.127103
  26 H :    0.130502

  Mayer bond orders larger than 0.100000
B(  0-C ,  1-C ) :   0.9581 B(  0-C , 13-H ) :   0.9768 B(  0-C , 14-H ) :   0.9665
B(  0-C , 15-H ) :   0.9719 B(  1-C ,  2-H ) :   0.9247 B(  1-C ,  3-C ) :   0.9477
B(  1-C ,  8-C ) :   0.9418 B(  3-C ,  4-C ) :   0.9804 B(  3-C , 16-H ) :   0.9598
B(  3-C , 17-H ) :   0.9593 B(  4-C ,  5-C ) :   0.9375 B(  4-C , 18-H ) :   0.9549
B(  4-C , 19-H ) :   0.9618 B(  5-C ,  6-H ) :   0.9478 B(  5-C ,  7-C ) :   0.9655
B(  5-C , 10-C ) :   0.8824 B(  7-C ,  8-C ) :   1.0085 B(  7-C , 20-H ) :   0.9337
B(  7-C , 21-H ) :   0.9350 B(  8-C ,  9-O ) :   2.0921 B( 10-C , 11-C ) :   1.8632
B( 10-C , 12-C ) :   0.9651 B( 11-C , 22-H ) :   0.9566 B( 11-C , 23-H ) :   0.9704
B( 12-C , 24-H ) :   0.9600 B( 12-C , 25-H ) :   0.9789 B( 12-C , 26-H ) :   0.9652

Dispersion correction           -0.009477238
FINAL SINGLE POINT ENERGY      -465.818707831598

DIPOLE MOMENT
-------------

Method             : SCF
Type of density    : Electron Density
Multiplicity       :   1
Irrep              :   0
Energy             :  -465.8201805780103086 Eh
Relativity type    :
Basis              : AO
                                X                 Y                 Z
Electronic contribution:     -3.137556605      -5.418530835       1.870917960
Nuclear contribution   :      3.795451298       6.529677113      -1.936965002
                        -----------------------------------------
Total Dipole Moment    :      0.657894693       1.111146278      -0.066047042
                        -----------------------------------------
Magnitude (a.u.)       :      1.292994080
Magnitude (Debye)      :      3.286529767

VIBRATIONAL FREQUENCIES
-----------------------

Scaling factor for frequencies =  1.000000000  (already applied!)

     0:       0.00 cm**-1
     1:       0.00 cm**-1
     2:       0.00 cm**-1
     3:       0.00 cm**-1
     4:       0.00 cm**-1
     5:       0.00 cm**-1
     6:      51.10 cm**-1
     7:      79.13 cm**-1
     8:     122.02 cm**-1
     9:     181.25 cm**-1
    10:     192.71 cm**-1
    11:     224.54 cm**-1
    12:     228.80 cm**-1
    13:     282.79 cm**-1
    14:     298.23 cm**-1
    15:     331.56 cm**-1
    16:     344.07 cm**-1
    17:     411.51 cm**-1
    18:     442.70 cm**-1
    19:     498.98 cm**-1
    20:     518.54 cm**-1
    21:     559.86 cm**-1
    22:     628.68 cm**-1
    23:     673.30 cm**-1
    24:     723.30 cm**-1
    25:     748.66 cm**-1
    26:     821.81 cm**-1
    27:     857.37 cm**-1
    28:     900.78 cm**-1
    29:     905.97 cm**-1
    30:     907.51 cm**-1
    31:     945.61 cm**-1
    32:     968.85 cm**-1
    33:     990.99 cm**-1
    34:    1010.99 cm**-1
    35:    1036.55 cm**-1
    36:    1063.54 cm**-1
    37:    1068.63 cm**-1
    38:    1081.75 cm**-1
    39:    1093.30 cm**-1
    40:    1135.32 cm**-1
    41:    1155.15 cm**-1
    42:    1203.97 cm**-1
    43:    1235.49 cm**-1
    44:    1237.44 cm**-1
    45:    1272.05 cm**-1
    46:    1284.37 cm**-1
    47:    1294.94 cm**-1
    48:    1320.37 cm**-1
    49:    1335.62 cm**-1
    50:    1350.35 cm**-1
    51:    1373.16 cm**-1
    52:    1384.92 cm**-1
    53:    1400.10 cm**-1
    54:    1406.76 cm**-1
    55:    1439.17 cm**-1
    56:    1461.99 cm**-1
    57:    1473.54 cm**-1
    58:    1476.62 cm**-1
    59:    1481.58 cm**-1
    60:    1487.27 cm**-1
    61:    1489.21 cm**-1
    62:    1490.17 cm**-1
    63:    1685.24 cm**-1
    64:    1689.76 cm**-1
    65:    2976.14 cm**-1
    66:    2981.26 cm**-1
    67:    2997.09 cm**-1
    68:    2999.16 cm**-1
    69:    3003.12 cm**-1
    70:    3009.14 cm**-1
    71:    3014.82 cm**-1
    72:    3054.18 cm**-1
    73:    3057.56 cm**-1
    74:    3069.87 cm**-1
    75:    3090.10 cm**-1
    76:    3093.91 cm**-1
    77:    3098.54 cm**-1
    78:    3099.16 cm**-1
    79:    3119.99 cm**-1
    80:    3203.64 cm**-1

IR SPECTRUM
-----------

 Mode   freq       eps      Int      T**2         TX        TY        TZ
       cm**-1   L/(mol*cm) km/mol    a.u.
----------------------------------------------------------------------------
  6:     51.10   0.000064    0.33  0.000393  (-0.003451 -0.012128  0.015294)
  7:     79.13   0.000056    0.28  0.000222  ( 0.012085 -0.005296  0.006930)
  8:    122.02   0.000540    2.73  0.001381  (-0.016502  0.003944  0.033056)
  9:    181.25   0.000047    0.24  0.000081  (-0.001291  0.001276  0.008800)
 10:    192.71   0.000057    0.29  0.000092  (-0.002756 -0.009144 -0.000854)
 11:    224.54   0.000037    0.18  0.000051  ( 0.000469  0.004979  0.005079)
 12:    228.80   0.000034    0.17  0.000047  ( 0.003622 -0.004643  0.003496)
 13:    282.79   0.000534    2.70  0.000589  ( 0.009250 -0.021350  0.006918)
 14:    298.23   0.000317    1.60  0.000332  ( 0.017049 -0.005981 -0.002278)
 15:    331.56   0.000045    0.23  0.000043  ( 0.001041  0.003890  0.005143)
 16:    344.07   0.000213    1.08  0.000193  (-0.006137  0.012418  0.001260)
 17:    411.51   0.000715    3.62  0.000542  (-0.021409  0.007571 -0.005177)
 18:    442.70   0.000274    1.38  0.000193  (-0.002796 -0.013041  0.003906)
 19:    498.98   0.001066    5.39  0.000667  ( 0.012590 -0.021215 -0.007623)
 20:    518.54   0.000623    3.15  0.000375  (-0.016292  0.010461  0.000273)
 21:    559.86   0.000604    3.05  0.000337  (-0.008767 -0.015112 -0.005627)
 22:    628.68   0.000517    2.62  0.000257  (-0.013005  0.008316 -0.004311)
 23:    673.30   0.000421    2.13  0.000195  ( 0.012848  0.003109  0.004508)
 24:    723.30   0.000019    0.10  0.000008  (-0.000213 -0.002559  0.001310)
 25:    748.66   0.001218    6.16  0.000508  (-0.009846  0.020136  0.002308)
 26:    821.81   0.000184    0.93  0.000070  (-0.006292  0.005480 -0.000273)
 27:    857.37   0.000079    0.40  0.000029  ( 0.002832  0.004492 -0.000680)
 28:    900.78   0.000913    4.61  0.000316  ( 0.014487  0.010304 -0.000549)
 29:    905.97   0.008154   41.21  0.002809  ( 0.005046 -0.050663 -0.014707)
 30:    907.51   0.000197    1.00  0.000068  ( 0.001361  0.001239  0.008020)
 31:    945.61   0.000134    0.68  0.000044  (-0.006112 -0.000439  0.002589)
 32:    968.85   0.000954    4.82  0.000307  ( 0.002844 -0.007995  0.015336)
 33:    990.99   0.000335    1.69  0.000105  ( 0.009756 -0.003120  0.000665)
 34:   1010.99   0.000484    2.45  0.000149  (-0.001868  0.011027 -0.004939)
 35:   1036.55   0.000603    3.05  0.000182  (-0.008832 -0.010121  0.001038)
 36:   1063.54   0.000711    3.59  0.000209  ( 0.009067 -0.011232  0.000487)
 37:   1068.63   0.000120    0.60  0.000035  (-0.005724  0.001242  0.000800)
 38:   1081.75   0.000192    0.97  0.000055  (-0.005953 -0.000995 -0.004348)
 39:   1093.30   0.004109   20.76  0.001173  ( 0.033273 -0.008021  0.001180)
 40:   1135.32   0.000314    1.59  0.000086  ( 0.005314  0.007158 -0.002613)
 41:   1155.15   0.001397    7.06  0.000377  (-0.016938  0.007959 -0.005215)
 42:   1203.97   0.002491   12.59  0.000646  ( 0.017328 -0.018124  0.004119)
 43:   1235.49   0.001097    5.54  0.000277  ( 0.015716 -0.004270  0.003440)
 44:   1237.44   0.002697   13.63  0.000680  ( 0.024281 -0.005978  0.007412)
 45:   1272.05   0.000703    3.55  0.000173  ( 0.012002  0.001545 -0.005110)
 46:   1284.37   0.005876   29.69  0.001428  ( 0.037267 -0.005749 -0.002397)
 47:   1294.94   0.000651    3.29  0.000157  ( 0.011410 -0.004819  0.001862)
 48:   1320.37   0.000517    2.61  0.000122  ( 0.010283  0.002717 -0.002993)
 49:   1335.62   0.001507    7.62  0.000352  (-0.001944  0.018666 -0.000039)
 50:   1350.35   0.000120    0.61  0.000028  ( 0.003900  0.000338  0.003521)
 51:   1373.16   0.000478    2.42  0.000109  ( 0.008928  0.005362  0.000453)
 52:   1384.92   0.002563   12.95  0.000577  ( 0.020058 -0.012935  0.002805)
 53:   1400.10   0.001762    8.90  0.000393  (-0.013707 -0.000657  0.014297)
 54:   1406.76   0.001916    9.68  0.000425  ( 0.019939  0.001901  0.004883)
 55:   1439.17   0.000164    0.83  0.000035  ( 0.003643 -0.002108  0.004217)
 56:   1461.99   0.001514    7.65  0.000323  ( 0.010665 -0.009374  0.011027)
 57:   1473.54   0.001246    6.30  0.000264  ( 0.005448 -0.014822  0.003803)
 58:   1476.62   0.001803    9.11  0.000381  ( 0.010327  0.014067  0.008751)
 59:   1481.58   0.000432    2.19  0.000091  (-0.000747  0.006763  0.006693)
 60:   1487.27   0.002252   11.38  0.000473  (-0.001871 -0.000528 -0.021650)
 61:   1489.21   0.002474   12.50  0.000519  ( 0.019787  0.003357  0.010756)
 62:   1490.17   0.001984   10.02  0.000415  ( 0.010211 -0.017614 -0.000935)
 63:   1685.24   0.008652   43.72  0.001602  ( 0.028185  0.009763  0.026690)
 64:   1689.76   0.036185  182.87  0.006683  ( 0.045274  0.068040 -0.001905)
 65:   2976.14   0.001691    8.55  0.000177  (-0.002798 -0.003513 -0.012537)
 66:   2981.26   0.000709    3.58  0.000074  ( 0.006013  0.003002  0.005389)
 67:   2997.09   0.004955   25.04  0.000516  ( 0.007330  0.003243 -0.021253)
 68:   2999.16   0.003715   18.77  0.000387  ( 0.003604 -0.015159  0.011990)
 69:   3003.12   0.002635   13.32  0.000274  ( 0.013370  0.006453  0.007308)
 70:   3009.14   0.006990   35.32  0.000725  (-0.007411 -0.004833 -0.025428)
 71:   3014.82   0.006792   34.32  0.000703  (-0.023860  0.007064 -0.009155)
 72:   3054.18   0.001076    5.44  0.000110  (-0.000035  0.007948  0.006837)
 73:   3057.56   0.008344   42.17  0.000852  ( 0.003126 -0.028352 -0.006168)
 74:   3069.87   0.006940   35.07  0.000705  ( 0.011338  0.009296 -0.022148)
 75:   3090.10   0.004462   22.55  0.000451  ( 0.004606 -0.018070 -0.010142)
 76:   3093.91   0.003131   15.82  0.000316  (-0.005876  0.016027  0.004939)
 77:   3098.54   0.003653   18.46  0.000368  (-0.008014 -0.009044  0.014896)
 78:   3099.16   0.004632   23.41  0.000466  ( 0.019308 -0.003627  0.008968)
 79:   3119.99   0.001545    7.81  0.000155  (-0.008388  0.002361 -0.008865)
 80:   3203.64   0.002964   14.98  0.000289  ( 0.016027  0.001886 -0.005319)

--------------------------
THERMOCHEMISTRY AT 298.15K
--------------------------

Temperature         ...   298.15 K
Pressure            ...     1.00 atm
Total Mass          ...   152.24 AMU
Quasi RRHO          ...     True
Cut-Off Frequency   ...     1.00 cm^-1

Throughout the following assumptions are being made:
  (1) The electronic state is orbitally nondegenerate
  (2) There are no thermally accessible electronically excited states
  (3) Hindered rotations indicated by low frequency modes are not
      treated as such but are treated as vibrations and this may
      cause some error
  (4) All equations used are the standard statistical mechanics
      equations for an ideal gas
  (5) All vibrations are strictly harmonic

freq.      51.10  E(vib)   ...       0.52
freq.      79.13  E(vib)   ...       0.49
freq.     122.02  E(vib)   ...       0.44
freq.     181.25  E(vib)   ...       0.37
freq.     192.71  E(vib)   ...       0.36
freq.     224.54  E(vib)   ...       0.33
freq.     228.80  E(vib)   ...       0.32
freq.     282.79  E(vib)   ...       0.28
freq.     298.23  E(vib)   ...       0.27
freq.     331.56  E(vib)   ...       0.24
freq.     344.07  E(vib)   ...       0.23
freq.     411.51  E(vib)   ...       0.19
freq.     442.70  E(vib)   ...       0.17
freq.     498.98  E(vib)   ...       0.14
freq.     518.54  E(vib)   ...       0.13
freq.     559.86  E(vib)   ...       0.12
freq.     628.68  E(vib)   ...       0.09
freq.     673.30  E(vib)   ...       0.08
freq.     723.30  E(vib)   ...       0.07
freq.     748.66  E(vib)   ...       0.06
freq.     821.81  E(vib)   ...       0.05
freq.     857.37  E(vib)   ...       0.04
freq.     900.78  E(vib)   ...       0.03
freq.     905.97  E(vib)   ...       0.03
freq.     907.51  E(vib)   ...       0.03
freq.     945.61  E(vib)   ...       0.03
freq.     968.85  E(vib)   ...       0.03
freq.     990.99  E(vib)   ...       0.02
freq.    1010.99  E(vib)   ...       0.02
freq.    1036.55  E(vib)   ...       0.02
freq.    1063.54  E(vib)   ...       0.02
freq.    1068.63  E(vib)   ...       0.02
freq.    1081.75  E(vib)   ...       0.02
freq.    1093.30  E(vib)   ...       0.02
freq.    1135.32  E(vib)   ...       0.01
freq.    1155.15  E(vib)   ...       0.01
freq.    1203.97  E(vib)   ...       0.01
freq.    1235.49  E(vib)   ...       0.01
freq.    1237.44  E(vib)   ...       0.01
freq.    1272.05  E(vib)   ...       0.01
freq.    1284.37  E(vib)   ...       0.01
freq.    1294.94  E(vib)   ...       0.01
freq.    1320.37  E(vib)   ...       0.01
freq.    1335.62  E(vib)   ...       0.01
freq.    1350.35  E(vib)   ...       0.01
freq.    1373.16  E(vib)   ...       0.01
freq.    1384.92  E(vib)   ...       0.00
freq.    1400.10  E(vib)   ...       0.00
freq.    1406.76  E(vib)   ...       0.00
freq.    1439.17  E(vib)   ...       0.00
freq.    1461.99  E(vib)   ...       0.00
freq.    1473.54  E(vib)   ...       0.00
freq.    1476.62  E(vib)   ...       0.00
freq.    1481.58  E(vib)   ...       0.00
freq.    1487.27  E(vib)   ...       0.00
freq.    1489.21  E(vib)   ...       0.00
freq.    1490.17  E(vib)   ...       0.00
freq.    1685.24  E(vib)   ...       0.00
freq.    1689.76  E(vib)   ...       0.00
freq.    2976.14  E(vib)   ...       0.00
freq.    2981.26  E(vib)   ...       0.00
freq.    2997.09  E(vib)   ...       0.00
freq.    2999.16  E(vib)   ...       0.00
freq.    3003.12  E(vib)   ...       0.00
freq.    3009.14  E(vib)   ...       0.00
freq.    3014.82  E(vib)   ...       0.00
freq.    3054.18  E(vib)   ...       0.00
freq.    3057.56  E(vib)   ...       0.00
freq.    3069.87  E(vib)   ...       0.00
freq.    3090.10  E(vib)   ...       0.00
freq.    3093.91  E(vib)   ...       0.00
freq.    3098.54  E(vib)   ...       0.00
freq.    3099.16  E(vib)   ...       0.00
freq.    3119.99  E(vib)   ...       0.00
freq.    3203.64  E(vib)   ...       0.00

------------
INNER ENERGY
------------

The inner energy is: U= E(el) + E(ZPE) + E(vib) + E(rot) + E(trans)
    E(el)   - is the total energy from the electronic structure calculation
              = E(kin-el) + E(nuc-el) + E(el-el) + E(nuc-nuc)
    E(ZPE)  - the the zero temperature vibrational energy from the frequency calculation
    E(vib)  - the the finite temperature correction to E(ZPE) due to population
              of excited vibrational states
    E(rot)  - is the rotational thermal energy
    E(trans)- is the translational thermal energy

Summary of contributions to the inner energy U:
Electronic energy                ...   -465.81870783 Eh
Zero point energy                ...      0.23835931 Eh     149.57 kcal/mol
Thermal vibrational correction   ...      0.00860167 Eh       5.40 kcal/mol
Thermal rotational correction    ...      0.00141627 Eh       0.89 kcal/mol
Thermal translational correction ...      0.00141627 Eh       0.89 kcal/mol
-----------------------------------------------------------------------
Total thermal energy                   -465.56891431 Eh

Summary of corrections to the electronic energy:
(perhaps to be used in another calculation)
Total thermal correction                  0.01143421 Eh       7.18 kcal/mol
Non-thermal (ZPE) correction              0.23835931 Eh     149.57 kcal/mol
-----------------------------------------------------------------------
Total correction                          0.24979352 Eh     156.75 kcal/mol

--------
ENTHALPY
--------

The enthalpy is H = U + kB*T
                kB is Boltzmann's constant
Total thermal energy              ...   -465.56891431 Eh
Thermal Enthalpy correction       ...      0.00094421 Eh       0.59 kcal/mol
-----------------------------------------------------------------------
Total Enthalpy                    ...   -465.56797010 Eh

Note: Only C1 symmetry has been detected, increase convergence thresholds
      if your molecule has a higher symmetry. Symmetry factor of 1.0 is
      used for the rotational entropy correction.

Note: Rotational entropy computed according to Herzberg
Infrared and Raman Spectra, Chapter V,1, Van Nostrand Reinhold, 1945
Point Group:  C1, Symmetry Number:   1
Rotational constants in cm-1:     0.073256     0.021881     0.018814

Vibrational entropy computed according to the QRRHO of S. Grimme
Chem.Eur.J. 2012 18 9955 using a reference frequency of 100.0 cm-1

-------
ENTROPY
-------

The entropy contributions are T*S = T*(S(el)+S(vib)+S(rot)+S(trans))
     S(el)   - electronic entropy
     S(vib)  - vibrational entropy
     S(rot)  - rotational entropy
     S(trans)- translational entropy

                             ****ORCA TERMINATED NORMALLY****
TOTAL RUN TIME: 0 days 0 hours 33 minutes 48 seconds 617 msec
