                         Program Version 6.0.0  -   RELEASE  -
|  1> ! r2SCAN-3c DEF2-TZVP FREQ
|  2> * xyzfile 0 1 vacuum_censo.xyz
|  3>
|  4>                          ****END OF INPUT****

CARTESIAN COORDINATES (ANGSTROEM)
---------------------------------
  C     -3.411547   -0.529796   -0.111778
  C     -1.931594   -0.425684   -0.448700
  H     -1.790088   -0.489283   -1.540066
  C     -1.099707   -1.563368    0.180976
  C      0.388343   -1.437175   -0.138390
  C      0.945299   -0.094116    0.352411
  H      0.776492   -0.036874    1.436581
  C      0.147315    1.066805   -0.292773
  C     -1.335989    0.909455   -0.023891
  O     -1.989190    1.773820    0.524480
  C      2.431117    0.065765    0.118944
  C      3.242600    0.423347    1.116070
  C      2.949795   -0.185395   -1.269246
  H     -3.562821   -0.457604    0.969051
  H     -3.979844    0.280565   -0.573892
  H     -3.815551   -1.486347   -0.457118
  H     -1.248887   -1.544773    1.269441
  H     -1.487640   -2.525318   -0.173535
  H      0.947921   -2.257538    0.326351
  H      0.533057   -1.523202   -1.223709
  H      0.479130    2.033672    0.093126
  H      0.303526    1.050679   -1.380217
  H      4.308342    0.559678    0.959240
  H      2.863841    0.592912    2.119714
  H      2.851260   -1.243110   -1.540078
  H      2.392729    0.386500   -2.020326
  H      4.004545    0.086245   -1.348628

 Total Charge           Charge          ....    0
 Multiplicity           Mult            ....    1
 Number of Electrons    NEL             ....   84
 Basis Dimension        Dim             ....  437

ORBITAL ENERGIES
----------------

  NO   OCC          E(Eh)            E(eV)
   0   2.0000     -18.936903      -515.2993
   1   2.0000     -10.114040      -275.2170
   2   2.0000     -10.053864      -273.5796
   3   2.0000     -10.048888      -273.4441
   4   2.0000     -10.048158      -273.4243
   5   2.0000     -10.044149      -273.3152
   6   2.0000     -10.041350      -273.2390
   7   2.0000     -10.040533      -273.2168
   8   2.0000     -10.034617      -273.0558
   9   2.0000     -10.022468      -272.7252
  10   2.0000     -10.021037      -272.6863
  11   2.0000      -1.001342       -27.2479
  12   2.0000      -0.819683       -22.3047
  13   2.0000      -0.776597       -21.1323
  14   2.0000      -0.728441       -19.8219
  15   2.0000      -0.705084       -19.1863
  16   2.0000      -0.661781       -18.0080
  17   2.0000      -0.643687       -17.5156
  18   2.0000      -0.582664       -15.8551
  19   2.0000      -0.569516       -15.4973
  20   2.0000      -0.510136       -13.8815
  21   2.0000      -0.489833       -13.3290
  22   2.0000      -0.452551       -12.3145
  23   2.0000      -0.443097       -12.0573
  24   2.0000      -0.427149       -11.6233
  25   2.0000      -0.416751       -11.3404
  26   2.0000      -0.412755       -11.2316
  27   2.0000      -0.405082       -11.0228
  28   2.0000      -0.387249       -10.5376
  29   2.0000      -0.381648       -10.3852
  30   2.0000      -0.371126       -10.0988
  31   2.0000      -0.354444        -9.6449
  32   2.0000      -0.346785        -9.4365
  33   2.0000      -0.344869        -9.3844
  34   2.0000      -0.332667        -9.0523
  35   2.0000      -0.328082        -8.9276
  36   2.0000      -0.316554        -8.6139
  37   2.0000      -0.304938        -8.2978
  38   2.0000      -0.300017        -8.1639
  39   2.0000      -0.293326        -7.9818
  40   2.0000      -0.234317        -6.3761
  41   2.0000      -0.209223        -5.6933
  42   0.0000      -0.049579        -1.3491
  43   0.0000      -0.015926        -0.4334
  44   0.0000       0.036544         0.9944
  45   0.0000       0.047966         1.3052
  46   0.0000       0.052575         1.4306

MULLIKEN ATOMIC CHARGES
-----------------------
   0 C :   -0.315663
   1 C :    0.028585
   2 H :    0.061995
   3 C :   -0.199846
   4 C :   -0.209232
   5 C :    0.083799
   6 H :    0.057533
   7 C :   -0.169270
   8 C :    0.106229
   9 O :   -0.308913
  10 C :    0.013661
  11 C :   -0.273412
  12 C :   -0.376138
  13 H :    0.108267
  14 H :    0.118366
  15 H :    0.103471
  16 H :    0.096901
  17 H :    0.097223
  18 H :    0.108086
  19 H :    0.087759
  20 H :    0.112294
  21 H :    0.096887
  22 H :    0.107684
  23 H :    0.111509
  24 H :    0.125997
  25 H :    0.115170
  26 H :    0.111057
Sum of atomic charges:    0.0000000

LOEWDIN ATOMIC CHARGES
----------------------
   0 C :   -0.275097
   1 C :   -0.249563
   2 H :    0.162846
   3 C :   -0.223510
   4 C :   -0.227180
   5 C :   -0.208724
   6 H :    0.162850
   7 C :   -0.179306
   8 C :   -0.301475
   9 O :    0.134134
  10 C :   -0.212738
  11 C :   -0.189547
  12 C :   -0.255824
  13 H :    0.126757
  14 H :    0.126933
  15 H :    0.119862
  16 H :    0.142424
  17 H :    0.138710
  18 H :    0.142502
  19 H :    0.139515
  20 H :    0.149168
  21 H :    0.149405
  22 H :    0.120920
  23 H :    0.122874
  24 H :    0.129869
  25 H :    0.125859
  26 H :    0.128337

  Mayer bond orders larger than 0.100000
B(  0-C ,  1-C ) :   0.9578 B(  0-C , 13-H ) :   0.9666 B(  0-C , 14-H ) :   0.9725
B(  0-C , 15-H ) :   0.9764 B(  1-C ,  2-H ) :   0.9254 B(  1-C ,  3-C ) :   0.9442
B(  1-C ,  8-C ) :   0.9309 B(  3-C ,  4-C ) :   0.9875 B(  3-C , 16-H ) :   0.9620
B(  3-C , 17-H ) :   0.9591 B(  4-C ,  5-C ) :   0.9674 B(  4-C , 18-H ) :   0.9561
B(  4-C , 19-H ) :   0.9572 B(  5-C ,  6-H ) :   0.9627 B(  5-C ,  7-C ) :   0.9342
B(  5-C , 10-C ) :   0.8581 B(  7-C ,  8-C ) :   0.9962 B(  7-C , 20-H ) :   0.9376
B(  7-C , 21-H ) :   0.9404 B(  8-C ,  9-O ) :   2.1036 B( 10-C , 11-C ) :   1.8849
B( 10-C , 12-C ) :   0.9523 B( 11-C , 22-H ) :   0.9585 B( 11-C , 23-H ) :   0.9621
B( 12-C , 24-H ) :   0.9615 B( 12-C , 25-H ) :   0.9650 B( 12-C , 26-H ) :   0.9743

Dispersion correction           -0.009504255
FINAL SINGLE POINT ENERGY      -465.819499594934

DIPOLE MOMENT
-------------

Method             : SCF
Type of density    : Electron Density
Multiplicity       :   1
Irrep              :   0
Energy             :  -465.8208585099564516 Eh
Relativity type    :
Basis              : AO
                                X                 Y                 Z
Electronic contribution:     -2.766461436       5.222523180       2.190267040
Nuclear contribution   :      3.353864472      -6.189664041      -2.794859715
                        -----------------------------------------
Total Dipole Moment    :      0.587403037      -0.967140861      -0.604592675
                        -----------------------------------------
Magnitude (a.u.)       :      1.282940402
Magnitude (Debye)      :      3.260975347

VIBRATIONAL FREQUENCIES
-----------------------

Scaling factor for frequencies =  1.000000000  (already applied!)

     0:       0.00 cm**-1
     1:       0.00 cm**-1
     2:       0.00 cm**-1
     3:       0.00 cm**-1
     4:       0.00 cm**-1
     5:       0.00 cm**-1
     6:      53.78 cm**-1
     7:      75.31 cm**-1
     8:      97.08 cm**-1
     9:     162.50 cm**-1
    10:     200.06 cm**-1
    11:     221.41 cm**-1
    12:     230.89 cm**-1
    13:     275.40 cm**-1
    14:     290.53 cm**-1
    15:     322.39 cm**-1
    16:     330.02 cm**-1
    17:     425.37 cm**-1
    18:     457.38 cm**-1
    19:     501.46 cm**-1
    20:     506.84 cm**-1
    21:     551.68 cm**-1
    22:     621.76 cm**-1
    23:     659.56 cm**-1
    24:     730.95 cm**-1
    25:     741.84 cm**-1
    26:     807.11 cm**-1
    27:     853.60 cm**-1
    28:     889.44 cm**-1
    29:     898.96 cm**-1
    30:     907.36 cm**-1
    31:     941.44 cm**-1
    32:     964.24 cm**-1
    33:     999.54 cm**-1
    34:    1012.56 cm**-1
    35:    1027.92 cm**-1
    36:    1057.39 cm**-1
    37:    1069.54 cm**-1
    38:    1076.82 cm**-1
    39:    1083.34 cm**-1
    40:    1135.83 cm**-1
    41:    1155.06 cm**-1
    42:    1196.29 cm**-1
    43:    1230.46 cm**-1
    44:    1252.15 cm**-1
    45:    1273.18 cm**-1
    46:    1298.96 cm**-1
    47:    1304.65 cm**-1
    48:    1318.02 cm**-1
    49:    1333.82 cm**-1
    50:    1337.29 cm**-1
    51:    1371.84 cm**-1
    52:    1376.85 cm**-1
    53:    1399.12 cm**-1
    54:    1403.53 cm**-1
    55:    1444.62 cm**-1
    56:    1457.90 cm**-1
    57:    1473.16 cm**-1
    58:    1478.81 cm**-1
    59:    1485.31 cm**-1
    60:    1487.16 cm**-1
    61:    1488.20 cm**-1
    62:    1490.89 cm**-1
    63:    1691.66 cm**-1
    64:    1756.55 cm**-1
    65:    2970.19 cm**-1
    66:    2994.27 cm**-1
    67:    2997.47 cm**-1
    68:    3001.64 cm**-1
    69:    3004.70 cm**-1
    70:    3013.40 cm**-1
    71:    3019.98 cm**-1
    72:    3048.13 cm**-1
    73:    3055.79 cm**-1
    74:    3061.25 cm**-1
    75:    3096.26 cm**-1
    76:    3097.16 cm**-1
    77:    3104.91 cm**-1
    78:    3108.70 cm**-1
    79:    3119.46 cm**-1
    80:    3205.40 cm**-1

IR SPECTRUM
-----------

 Mode   freq       eps      Int      T**2         TX        TY        TZ
       cm**-1   L/(mol*cm) km/mol    a.u.
----------------------------------------------------------------------------
  6:     53.78   0.000073    0.37  0.000422  (-0.001112 -0.004335  0.020054)
  7:     75.31   0.000045    0.23  0.000185  (-0.010929 -0.004825 -0.006512)
  8:     97.08   0.000462    2.33  0.001485  ( 0.010444 -0.009397  0.035878)
  9:    162.50   0.000032    0.16  0.000062  ( 0.007284 -0.000336 -0.003021)
 10:    200.06   0.000039    0.20  0.000060  ( 0.001162 -0.007276 -0.002480)
 11:    221.41   0.000023    0.12  0.000032  ( 0.003548  0.004418 -0.000192)
 12:    230.89   0.000040    0.20  0.000054  ( 0.003052 -0.006206  0.002456)
 13:    275.40   0.000194    0.98  0.000219  ( 0.006483  0.012128  0.005494)
 14:    290.53   0.000446    2.25  0.000479  (-0.013784 -0.016985 -0.000478)
 15:    322.39   0.000360    1.82  0.000349  (-0.018424 -0.000982 -0.002873)
 16:    330.02   0.000412    2.08  0.000390  ( 0.015332  0.012271 -0.002040)
 17:    425.37   0.000366    1.85  0.000268  ( 0.016331  0.001295  0.000032)
 18:    457.38   0.000291    1.47  0.000199  ( 0.001235  0.012958  0.005418)
 19:    501.46   0.001238    6.26  0.000770  (-0.020773 -0.017872  0.004402)
 20:    506.84   0.000834    4.21  0.000513  ( 0.001022  0.022496 -0.002518)
 21:    551.68   0.000945    4.78  0.000535  ( 0.011765 -0.019624  0.003358)
 22:    621.76   0.000383    1.94  0.000192  ( 0.013738  0.001827 -0.000392)
 23:    659.56   0.000559    2.82  0.000264  (-0.014720  0.004345  0.005372)
 24:    730.95   0.000861    4.35  0.000368  ( 0.001915 -0.017905 -0.006577)
 25:    741.84   0.000726    3.67  0.000305  (-0.014261 -0.008015 -0.006141)
 26:    807.11   0.000311    1.57  0.000120  (-0.010273 -0.003723 -0.000948)
 27:    853.60   0.000041    0.21  0.000015  ( 0.002593 -0.001790  0.002275)
 28:    889.44   0.000426    2.15  0.000149  (-0.005945 -0.001547  0.010569)
 29:    898.96   0.000244    1.23  0.000085  ( 0.008434 -0.000013  0.003661)
 30:    907.36   0.008763   44.28  0.003014  (-0.012836  0.052043 -0.011855)
 31:    941.44   0.000040    0.20  0.000013  ( 0.003110 -0.001854  0.000482)
 32:    964.24   0.000693    3.50  0.000224  (-0.002438 -0.012949  0.007120)
 33:    999.54   0.000629    3.18  0.000197  ( 0.013528  0.000870 -0.003571)
 34:   1012.56   0.000636    3.22  0.000196  (-0.003344  0.013595  0.000283)
 35:   1027.92   0.000523    2.65  0.000159  (-0.005204  0.011266 -0.002218)
 36:   1057.39   0.001049    5.30  0.000310  (-0.015637 -0.003511 -0.007267)
 37:   1069.54   0.001529    7.73  0.000446  (-0.018968 -0.009253 -0.000874)
 38:   1076.82   0.000029    0.15  0.000008  ( 0.001889 -0.001908 -0.001118)
 39:   1083.34   0.005368   27.13  0.001546  ( 0.036806  0.010161  0.009407)
 40:   1135.83   0.000247    1.25  0.000068  (-0.003151  0.007509  0.001286)
 41:   1155.06   0.001474    7.45  0.000398  (-0.017879 -0.008467  0.002604)
 42:   1196.29   0.004528   22.88  0.001181  (-0.028369 -0.019394 -0.000460)
 43:   1230.46   0.005763   29.12  0.001462  (-0.036519 -0.011163  0.001832)
 44:   1252.15   0.001970    9.96  0.000491  ( 0.021951  0.002120  0.002151)
 45:   1273.18   0.000864    4.37  0.000212  ( 0.013232  0.005436 -0.002663)
 46:   1298.96   0.000125    0.63  0.000030  ( 0.003345  0.003793 -0.002114)
 47:   1304.65   0.000135    0.68  0.000032  (-0.001709  0.004241  0.003369)
 48:   1318.02   0.000519    2.62  0.000123  (-0.009767  0.005211  0.000626)
 49:   1333.82   0.001736    8.77  0.000406  (-0.017525  0.009939 -0.000392)
 50:   1337.29   0.001427    7.21  0.000333  (-0.006591 -0.016226 -0.005133)
 51:   1371.84   0.001193    6.03  0.000271  (-0.015503 -0.005538 -0.000591)
 52:   1376.85   0.001729    8.74  0.000392  ( 0.017277  0.008640  0.004335)
 53:   1399.12   0.002128   10.75  0.000475  (-0.013795  0.003552  0.016481)
 54:   1403.53   0.001494    7.55  0.000332  (-0.017364  0.000322  0.005526)
 55:   1444.62   0.000015    0.08  0.000003  (-0.000210 -0.000347 -0.001758)
 56:   1457.90   0.001514    7.65  0.000324  ( 0.004196  0.014393 -0.009961)
 57:   1473.16   0.001631    8.24  0.000345  ( 0.009399 -0.015982 -0.001290)
 58:   1478.81   0.000213    1.08  0.000045  ( 0.006482  0.001304 -0.001106)
 59:   1485.31   0.003033   15.33  0.000637  ( 0.002733  0.009254 -0.023325)
 60:   1487.16   0.001966    9.94  0.000413  ( 0.016104  0.008165  0.009305)
 61:   1488.20   0.000867    4.38  0.000182  (-0.013390  0.001216  0.001045)
 62:   1490.89   0.002158   10.91  0.000452  (-0.013553 -0.016135 -0.002769)
 63:   1691.66   0.005183   26.19  0.000956  (-0.016911 -0.008094 -0.024590)
 64:   1756.55   0.041619  210.33  0.007394  (-0.053155  0.062147  0.026575)
 65:   2970.19   0.001693    8.56  0.000178  ( 0.006963  0.000980 -0.011335)
 66:   2994.27   0.000918    4.64  0.000096  (-0.001583  0.008160 -0.005157)
 67:   2997.47   0.004993   25.23  0.000520  (-0.011941 -0.015678  0.011464)
 68:   3001.64   0.003316   16.76  0.000345  (-0.011902  0.010475  0.009662)
 69:   3004.70   0.002196   11.10  0.000228  (-0.000721 -0.004253 -0.014473)
 70:   3013.40   0.007762   39.23  0.000804  (-0.009731 -0.000046  0.026630)
 71:   3019.98   0.006453   32.61  0.000667  ( 0.023769  0.009596 -0.003132)
 72:   3048.13   0.006596   33.34  0.000675  (-0.001537 -0.025749 -0.003154)
 73:   3055.79   0.008769   44.31  0.000895  (-0.007991  0.007358 -0.027884)
 74:   3061.25   0.002164   10.93  0.000221  (-0.004177  0.014239  0.000610)
 75:   3096.26   0.000375    1.90  0.000038  (-0.000562 -0.000974 -0.006047)
 76:   3097.16   0.006389   32.29  0.000644  ( 0.004739  0.017084  0.018149)
 77:   3104.91   0.004850   24.51  0.000487  ( 0.021406  0.005059  0.001909)
 78:   3108.70   0.003708   18.74  0.000372  ( 0.005984 -0.014681  0.010994)
 79:   3119.46   0.002078   10.50  0.000208  ( 0.010615  0.003396  0.009147)
 80:   3205.40   0.002999   15.16  0.000292  (-0.014518 -0.000388  0.009005)

--------------------------
THERMOCHEMISTRY AT 298.15K
--------------------------

Temperature         ...   298.15 K
Pressure            ...     1.00 atm
Total Mass          ...   152.24 AMU
Quasi RRHO          ...     True
Cut-Off Frequency   ...     1.00 cm^-1

Throughout the following assumptions are being made:
  (1) The electronic state is orbitally nondegenerate
  (2) There are no thermally accessible electronically excited states
  (3) Hindered rotations indicated by low frequency modes are not
      treated as such but are treated as vibrations and this may
      cause some error
  (4) All equations used are the standard statistical mechanics
      equations for an ideal gas
  (5) All vibrations are strictly harmonic

freq.      53.78  E(vib)   ...       0.52
freq.      75.31  E(vib)   ...       0.49
freq.      97.08  E(vib)   ...       0.46
freq.     162.50  E(vib)   ...       0.39
freq.     200.06  E(vib)   ...       0.35
freq.     221.41  E(vib)   ...       0.33
freq.     230.89  E(vib)   ...       0.32
freq.     275.40  E(vib)   ...       0.28
freq.     290.53  E(vib)   ...       0.27
freq.     322.39  E(vib)   ...       0.25
freq.     330.02  E(vib)   ...       0.24
freq.     425.37  E(vib)   ...       0.18
freq.     457.38  E(vib)   ...       0.16
freq.     501.46  E(vib)   ...       0.14
freq.     506.84  E(vib)   ...       0.14
freq.     551.68  E(vib)   ...       0.12
freq.     621.76  E(vib)   ...       0.09
freq.     659.56  E(vib)   ...       0.08
freq.     730.95  E(vib)   ...       0.06
freq.     741.84  E(vib)   ...       0.06
freq.     807.11  E(vib)   ...       0.05
freq.     853.60  E(vib)   ...       0.04
freq.     889.44  E(vib)   ...       0.04
freq.     898.96  E(vib)   ...       0.03
freq.     907.36  E(vib)   ...       0.03
freq.     941.44  E(vib)   ...       0.03
freq.     964.24  E(vib)   ...       0.03
freq.     999.54  E(vib)   ...       0.02
freq.    1012.56  E(vib)   ...       0.02
freq.    1027.92  E(vib)   ...       0.02
freq.    1057.39  E(vib)   ...       0.02
freq.    1069.54  E(vib)   ...       0.02
freq.    1076.82  E(vib)   ...       0.02
freq.    1083.34  E(vib)   ...       0.02
freq.    1135.83  E(vib)   ...       0.01
freq.    1155.06  E(vib)   ...       0.01
freq.    1196.29  E(vib)   ...       0.01
freq.    1230.46  E(vib)   ...       0.01
freq.    1252.15  E(vib)   ...       0.01
freq.    1273.18  E(vib)   ...       0.01
freq.    1298.96  E(vib)   ...       0.01
freq.    1304.65  E(vib)   ...       0.01
freq.    1318.02  E(vib)   ...       0.01
freq.    1333.82  E(vib)   ...       0.01
freq.    1337.29  E(vib)   ...       0.01
freq.    1371.84  E(vib)   ...       0.01
freq.    1376.85  E(vib)   ...       0.01
freq.    1399.12  E(vib)   ...       0.00
freq.    1403.53  E(vib)   ...       0.00
freq.    1444.62  E(vib)   ...       0.00
freq.    1457.90  E(vib)   ...       0.00
freq.    1473.16  E(vib)   ...       0.00
freq.    1478.81  E(vib)   ...       0.00
freq.    1485.31  E(vib)   ...       0.00
freq.    1487.16  E(vib)   ...       0.00
freq.    1488.20  E(vib)   ...       0.00
freq.    1490.89  E(vib)   ...       0.00
freq.    1691.66  E(vib)   ...       0.00
freq.    1756.55  E(vib)   ...       0.00
freq.    2970.19  E(vib)   ...       0.00
freq.    2994.27  E(vib)   ...       0.00
freq.    2997.47  E(vib)   ...       0.00
freq.    3001.64  E(vib)   ...       0.00
freq.    3004.70  E(vib)   ...       0.00
freq.    3013.40  E(vib)   ...       0.00
freq.    3019.98  E(vib)   ...       0.00
freq.    3048.13  E(vib)   ...       0.00
freq.    3055.79  E(vib)   ...       0.00
freq.    3061.25  E(vib)   ...       0.00
freq.    3096.26  E(vib)   ...       0.00
freq.    3097.16  E(vib)   ...       0.00
freq.    3104.91  E(vib)   ...       0.00
freq.    3108.70  E(vib)   ...       0.00
freq.    3119.46  E(vib)   ...       0.00
freq.    3205.40  E(vib)   ...       0.00

------------
INNER ENERGY
------------

The inner energy is: U= E(el) + E(ZPE) + E(vib) + E(rot) + E(trans)
    E(el)   - is the total energy from the electronic structure calculation
              = E(kin-el) + E(nuc-el) + E(el-el) + E(nuc-nuc)
    E(ZPE)  - the the zero temperature vibrational energy from the frequency calculation
    E(vib)  - the the finite temperature correction to E(ZPE) due to population
              of excited vibrational states
    E(rot)  - is the rotational thermal energy
    E(trans)- is the translational thermal energy

Summary of contributions to the inner energy U:
Electronic energy                ...   -465.81949959 Eh
Zero point energy                ...      0.23826326 Eh     149.51 kcal/mol
Thermal vibrational correction   ...      0.00872470 Eh       5.47 kcal/mol
Thermal rotational correction    ...      0.00141627 Eh       0.89 kcal/mol
Thermal translational correction ...      0.00141627 Eh       0.89 kcal/mol
-----------------------------------------------------------------------
Total thermal energy                   -465.56967909 Eh

Summary of corrections to the electronic energy:
(perhaps to be used in another calculation)
Total thermal correction                  0.01155725 Eh       7.25 kcal/mol
Non-thermal (ZPE) correction              0.23826326 Eh     149.51 kcal/mol
-----------------------------------------------------------------------
Total correction                          0.24982051 Eh     156.76 kcal/mol

--------
ENTHALPY
--------

The enthalpy is H = U + kB*T
                kB is Boltzmann's constant
Total thermal energy              ...   -465.56967909 Eh
Thermal Enthalpy correction       ...      0.00094421 Eh       0.59 kcal/mol
-----------------------------------------------------------------------
Total Enthalpy                    ...   -465.56873488 Eh

Note: Only C1 symmetry has been detected, increase convergence thresholds
      if your molecule has a higher symmetry. Symmetry factor of 1.0 is
      used for the rotational entropy correction.

Note: Rotational entropy computed according to Herzberg
Infrared and Raman Spectra, Chapter V,1, Van Nostrand Reinhold, 1945
Point Group:  C1, Symmetry Number:   1
Rotational constants in cm-1:     0.072454     0.021826     0.019230

Vibrational entropy computed according to the QRRHO of S. Grimme
Chem.Eur.J. 2012 18 9955 using a reference frequency of 100.0 cm-1

-------
ENTROPY
-------

The entropy contributions are T*S = T*(S(el)+S(vib)+S(rot)+S(trans))
     S(el)   - electronic entropy
     S(vib)  - vibrational entropy
     S(rot)  - rotational entropy
     S(trans)- translational entropy

                             ****ORCA TERMINATED NORMALLY****
TOTAL RUN TIME: 0 days 0 hours 33 minutes 30 seconds 36 msec
