                         Program Version 6.0.1  -  RELEASE   -
|  1> ! pbe def2-sv(p) def2/J RI DEFGRID1 loosescf d4 GCP(DFT/SV(P)) printgap
|  2> %output
|  3>     printlevel normal
|  4> end
|  5> * xyz 0 1
|  6> C 2.7476321799 0.0242080257 0.728027634
|  7> C 1.9712268361 -0.0022629742 -0.5902532578
|  8> C 0.4952757236 -0.0272954377 -0.3263022451
|  9> C -0.1972421366 -1.2223496983 -0.1706312653
| 10> C -1.5520034602 -1.1908721769 0.1139842672
| 11> C -2.1688808633 0.0446747155 0.2366790469
| 12> N -1.5247999917 1.1899139348 0.0925265517
| 13> C -0.2335432393 1.1492376397 -0.1796740759
| 14> H 2.4803488759 0.9056976775 1.3065377616
| 15> H 3.818061446 0.044244416 0.5375022633
| 16> H 2.5170607938 -0.8575721464 1.3221098116
| 17> H 2.2591508708 -0.8874758164 -1.1615632866
| 18> H 2.2255083288 0.8832264176 -1.1762713643
| 19> H 0.3206601707 -2.1662182809 -0.275350371
| 20> H -2.1157604771 -2.1030607268 0.2370401413
| 21> H -3.2249406035 0.1262601204 0.4582957809
| 22> H 0.2486817485 2.1128630415 -0.2917405923
| 23> *
| 24>
| 25>                          ****END OF INPUT****

CARTESIAN COORDINATES (ANGSTROEM)
---------------------------------
  C      2.747632    0.024208    0.728028
  C      1.971227   -0.002263   -0.590253
  C      0.495276   -0.027295   -0.326302
  C     -0.197242   -1.222350   -0.170631
  C     -1.552003   -1.190872    0.113984
  C     -2.168881    0.044675    0.236679
  N     -1.524800    1.189914    0.092527
  C     -0.233543    1.149238   -0.179674
  H      2.480349    0.905698    1.306538
  H      3.818061    0.044244    0.537502
  H      2.517061   -0.857572    1.322110
  H      2.259151   -0.887476   -1.161563
  H      2.225508    0.883226   -1.176271
  H      0.320660   -2.166218   -0.275350
  H     -2.115760   -2.103061    0.237040
  H     -3.224941    0.126260    0.458296
  H      0.248682    2.112863   -0.291741

 Total Charge           Charge          ....    0
 Multiplicity           Mult            ....    1
 Number of Electrons    NEL             ....   58
 Basis Dimension        Dim             ....  130

ORBITAL ENERGIES
----------------

  NO   OCC          E(Eh)            E(eV)
   0   2.0000     -13.976462      -380.3189
   1   2.0000      -9.917615      -269.8720
   2   2.0000      -9.916572      -269.8436
   3   2.0000      -9.910320      -269.6735
   4   2.0000      -9.907757      -269.6038
   5   2.0000      -9.900507      -269.4065
   6   2.0000      -9.900093      -269.3952
   7   2.0000      -9.886328      -269.0207
   8   2.0000      -0.856161       -23.2973
   9   2.0000      -0.743952       -20.2440
  10   2.0000      -0.704406       -19.1679
  11   2.0000      -0.662597       -18.0302
  12   2.0000      -0.581254       -15.8167
  13   2.0000      -0.565152       -15.3786
  14   2.0000      -0.532307       -14.4848
  15   2.0000      -0.468117       -12.7381
  16   2.0000      -0.446186       -12.1413
  17   2.0000      -0.414731       -11.2854
  18   2.0000      -0.393041       -10.6952
  19   2.0000      -0.386939       -10.5292
  20   2.0000      -0.368255       -10.0207
  21   2.0000      -0.355148        -9.6641
  22   2.0000      -0.343482        -9.3466
  23   2.0000      -0.333137        -9.0651
  24   2.0000      -0.314300        -8.5525
  25   2.0000      -0.303469        -8.2578
  26   2.0000      -0.258389        -7.0311
  27   2.0000      -0.231425        -6.2974
  28   2.0000      -0.199462        -5.4276
  29   0.0000      -0.052887        -1.4391
  30   0.0000      -0.042302        -1.1511
  31   0.0000       0.037671         1.0251
  32   0.0000       0.056478         1.5369
  33   0.0000       0.076241         2.0746

MULLIKEN ATOMIC CHARGES
-----------------------
   0 C :   -0.272822
   1 C :   -0.128717
   2 C :    0.005462
   3 C :   -0.060890
   4 C :   -0.068178
   5 C :   -0.061918
   6 N :   -0.049366
   7 C :   -0.104848
   8 H :    0.107140
   9 H :    0.110013
  10 H :    0.103145
  11 H :    0.089927
  12 H :    0.094265
  13 H :    0.053273
  14 H :    0.060643
  15 H :    0.068072
  16 H :    0.054799
Sum of atomic charges:    0.0000000

LOEWDIN ATOMIC CHARGES
----------------------
   0 C :   -0.331860
   1 C :   -0.216864
   2 C :   -0.056211
   3 C :   -0.100790
   4 C :   -0.140436
   5 C :   -0.086577
   6 N :   -0.071644
   7 C :   -0.084057
   8 H :    0.122013
   9 H :    0.120782
  10 H :    0.120036
  11 H :    0.123020
  12 H :    0.125339
  13 H :    0.124546
  14 H :    0.127699
  15 H :    0.113475
  16 H :    0.111531

  Mayer bond orders larger than 0.100000
B(  0-C ,  1-C ) :   1.1448 B(  0-C ,  8-H ) :   0.9548 B(  0-C ,  9-H ) :   0.9487
B(  0-C , 10-H ) :   0.9552 B(  1-C ,  2-C ) :   1.0628 B(  1-C , 11-H ) :   0.9109
B(  1-C , 12-H ) :   0.9094 B(  2-C ,  3-C ) :   1.4242 B(  2-C ,  7-C ) :   1.3605
B(  3-C ,  4-C ) :   1.4084 B(  3-C , 13-H ) :   0.9552 B(  4-C ,  5-C ) :   1.3784
B(  4-C , 14-H ) :   0.9469 B(  5-C ,  6-N ) :   1.5489 B(  5-C , 15-H ) :   0.9530
B(  6-N ,  7-C ) :   1.5610 B(  7-C , 16-H ) :   0.9524

Dispersion correction           -0.016284121
FINAL SINGLE POINT ENERGY      -326.177424882248

DIPOLE MOMENT
-------------

Method             : SCF
Type of density    : Electron Density
Multiplicity       :   1
Irrep              :   0
Energy             :  -326.2266234852810385 Eh
Relativity type    :
Basis              : AO
                                X                 Y                 Z
Electronic contribution:     -7.415537264       1.130922087      -0.964169774
Nuclear contribution   :      7.993064232      -1.815432106       0.897921949
                        -----------------------------------------
Total Dipole Moment    :      0.577526968      -0.684510019      -0.066247825
                        -----------------------------------------
Magnitude (a.u.)       :      0.898042393
Magnitude (Debye)      :      2.282642359

Rotational constants in cm-1:             0.156024             0.050704             0.042190
Rotational constants in MHz :          4677.473366          1520.073131          1264.821201

                             ****ORCA TERMINATED NORMALLY****
TOTAL RUN TIME: 0 days 0 hours 0 minutes 14 seconds 517 msec
