                         Program Version 6.0.1  -  RELEASE   -
|  1> ! r2scan-3c def2/J RI DEFGRID2 scfconv6 printgap
|  2> %output
|  3>     printlevel normal
|  4> end
|  5> * xyz 0 1
|  6> C -2.9715334454 1.2534528487 0.0001543158
|  7> C -1.7469384891 0.3875763247 -0.0001048375
|  8> C -1.8362066894 -0.9911068533 -0.0001772083
|  9> C -0.6861436959 -1.7672006501 -9.94457e-05
| 10> C 0.5649914547 -1.1815008648 3.05775e-05
| 11> C 0.6716459539 0.2228112643 7.34173e-05
| 12> C -0.4859895166 0.9814896519 3.33814e-05
| 13> O 1.9399047251 0.7212164516 0.0001305526
| 14> C 2.1084874167 2.1147577745 -0.000185624
| 15> O 1.7156044871 -1.9127301087 8.41756e-05
| 16> H -3.8736561246 0.6475704927 -0.0040688549
| 17> H -2.9867331682 1.8919992885 0.8827122221
| 18> H -2.9826911109 1.8985384816 -0.8776530694
| 19> H -2.8020466663 -1.4733970993 -0.0003042571
| 20> H -0.7633468047 -2.8466968314 -0.0001689261
| 21> H -0.428102717 2.0588914209 0.0001087517
| 22> H 3.1847750304 2.2802896407 -0.0004415884
| 23> H 1.6728998163 2.5752713621 0.8933627792
| 24> H 1.6725300028 2.5749052867 -0.8937396795
| 25> H 1.4947719812 -2.8518143682 6.62108e-05
| 26> *
| 27>
| 28>                          ****END OF INPUT****

CARTESIAN COORDINATES (ANGSTROEM)
---------------------------------
  C     -2.971533    1.253453    0.000154
  C     -1.746938    0.387576   -0.000105
  C     -1.836207   -0.991107   -0.000177
  C     -0.686144   -1.767201   -0.000099
  C      0.564991   -1.181501    0.000031
  C      0.671646    0.222811    0.000073
  C     -0.485990    0.981490    0.000033
  O      1.939905    0.721216    0.000131
  C      2.108487    2.114758   -0.000186
  O      1.715604   -1.912730    0.000084
  H     -3.873656    0.647570   -0.004069
  H     -2.986733    1.891999    0.882712
  H     -2.982691    1.898538   -0.877653
  H     -2.802047   -1.473397   -0.000304
  H     -0.763347   -2.846697   -0.000169
  H     -0.428103    2.058891    0.000109
  H      3.184775    2.280290   -0.000442
  H      1.672900    2.575271    0.893363
  H      1.672530    2.574905   -0.893740
  H      1.494772   -2.851814    0.000066

 Total Charge           Charge          ....    0
 Multiplicity           Mult            ....    1
 Number of Electrons    NEL             ....   74
 Basis Dimension        Dim             ....  250

ORBITAL ENERGIES
----------------

  NO   OCC          E(Eh)            E(eV)
   0   2.0000     -18.981871      -516.5230
   1   2.0000     -18.978420      -516.4291
   2   2.0000     -10.090213      -274.5687
   3   2.0000     -10.088892      -274.5327
   4   2.0000     -10.083339      -274.3816
   5   2.0000     -10.034367      -273.0490
   6   2.0000     -10.030081      -272.9324
   7   2.0000     -10.027053      -272.8500
   8   2.0000     -10.023867      -272.7633
   9   2.0000     -10.023043      -272.7409
  10   2.0000      -1.037770       -28.2392
  11   2.0000      -1.016990       -27.6737
  12   2.0000      -0.820592       -22.3294
  13   2.0000      -0.738087       -20.0844
  14   2.0000      -0.719054       -19.5665
  15   2.0000      -0.672323       -18.2948
  16   2.0000      -0.642956       -17.4957
  17   2.0000      -0.585755       -15.9392
  18   2.0000      -0.551885       -15.0175
  19   2.0000      -0.515392       -14.0245
  20   2.0000      -0.480448       -13.0736
  21   2.0000      -0.462698       -12.5907
  22   2.0000      -0.436536       -11.8788
  23   2.0000      -0.422266       -11.4904
  24   2.0000      -0.406387       -11.0584
  25   2.0000      -0.390907       -10.6371
  26   2.0000      -0.389407       -10.5963
  27   2.0000      -0.372323       -10.1314
  28   2.0000      -0.369590       -10.0571
  29   2.0000      -0.347459        -9.4549
  30   2.0000      -0.327328        -8.9070
  31   2.0000      -0.313388        -8.5277
  32   2.0000      -0.308904        -8.4057
  33   2.0000      -0.294324        -8.0090
  34   2.0000      -0.284237        -7.7345
  35   2.0000      -0.216395        -5.8884
  36   2.0000      -0.182357        -4.9622
  37   0.0000      -0.021944        -0.5971
  38   0.0000      -0.004948        -0.1346
  39   0.0000       0.049628         1.3504
  40   0.0000       0.073254         1.9933
  41   0.0000       0.083132         2.2621

MULLIKEN ATOMIC CHARGES
-----------------------
   0 C :   -0.543611
   1 C :    0.180961
   2 C :   -0.246840
   3 C :   -0.319875
   4 C :    0.314554
   5 C :    0.185831
   6 C :   -0.317628
   7 O :   -0.173871
   8 C :   -0.327623
   9 O :   -0.407820
  10 H :    0.149522
  11 H :    0.158853
  12 H :    0.158561
  13 H :    0.146455
  14 H :    0.135287
  15 H :    0.146095
  16 H :    0.154703
  17 H :    0.150007
  18 H :    0.150010
  19 H :    0.306428
Sum of atomic charges:    0.0000000

LOEWDIN ATOMIC CHARGES
----------------------
   0 C :   -0.390406
   1 C :   -0.109377
   2 C :   -0.179602
   3 C :   -0.164061
   4 C :    0.202270
   5 C :    0.207079
   6 C :   -0.162952
   7 O :   -0.660956
   8 C :   -0.051779
   9 O :   -0.476466
  10 H :    0.158526
  11 H :    0.161524
  12 H :    0.161479
  13 H :    0.167610
  14 H :    0.168938
  15 H :    0.177896
  16 H :    0.180417
  17 H :    0.163502
  18 H :    0.163510
  19 H :    0.282847

  Mayer bond orders larger than 0.100000
B(  0-C ,  1-C ) :   0.7837 B(  0-C , 10-H ) :   0.9954 B(  0-C , 11-H ) :   0.9784
B(  0-C , 12-H ) :   0.9787 B(  1-C ,  2-C ) :   1.4680 B(  1-C ,  6-C ) :   1.3592
B(  2-C ,  3-C ) :   1.3888 B(  2-C , 13-H ) :   0.9235 B(  3-C ,  4-C ) :   1.2847
B(  3-C , 14-H ) :   0.9549 B(  4-C ,  5-C ) :   1.4963 B(  4-C ,  9-O ) :   0.9001
B(  5-C ,  6-C ) :   1.3362 B(  5-C ,  7-O ) :   1.0736 B(  5-C ,  9-O ) :   0.1425
B(  6-C , 15-H ) :   0.9283 B(  7-O ,  8-C ) :   0.8614 B(  8-C , 16-H ) :   0.9680
B(  8-C , 17-H ) :   0.9628 B(  8-C , 18-H ) :   0.9628 B(  9-O , 19-H ) :   0.8862

Dispersion correction           -0.006542213
FINAL SINGLE POINT ENERGY      -461.199162639704

DIPOLE MOMENT
-------------

Method             : SCF
Type of density    : Electron Density
Multiplicity       :   1
Irrep              :   0
Energy             :  -461.2026312104761701 Eh
Relativity type    :
Basis              : AO
                                X                 Y                 Z
Electronic contribution:      5.088881545      -6.150786982       0.000178863
Nuclear contribution   :     -5.398104236       6.320204758      -0.000115414
                        -----------------------------------------
Total Dipole Moment    :     -0.309222691       0.169417776       0.000063449
                        -----------------------------------------
Magnitude (a.u.)       :      0.352591916
Magnitude (Debye)      :      0.896217428

Rotational constants in cm-1:             0.062036             0.039691             0.024427
Rotational constants in MHz :          1859.780405          1189.891502           732.300498

                             ****ORCA TERMINATED NORMALLY****
TOTAL RUN TIME: 0 days 0 hours 0 minutes 22 seconds 965 msec
