                         Program Version 6.0.1  -  RELEASE   -
|  1> ! pbe def2-sv(p) def2/J RI DEFGRID1 loosescf d4 GCP(DFT/SV(P)) printgap
|  2> %output
|  3>     printlevel normal
|  4> end
|  5> * xyz 0 1
|  6> C -2.0449313982 -1.3891389557 -0.1567901013
|  7> C -1.0237985016 -0.5106243741 0.5845551995
|  8> H -1.4955749465 -0.1529502411 1.5086880774
|  9> C -0.645542082 0.7123659158 -0.2604698304
| 10> H -0.5191166011 0.4219600059 -1.3168042545
| 11> C 0.7016698391 1.240654979 0.2399790964
| 12> H 0.6723519782 1.3429442651 1.3338406929
| 13> C 1.7671500457 0.1994575701 -0.13822607
| 14> H 1.9461604031 0.2607161893 -1.2204088016
| 15> C 1.2274861011 -1.2179751754 0.1527964753
| 16> H 2.0044100807 -1.7640572569 0.7089909704
| 17> O 0.1225212518 -1.2388462511 1.0063171785
| 18> O 0.959465463 -1.8202995132 -1.0789640501
| 19> O 2.9643256789 0.3704392019 0.5826586118
| 20> O 0.9261068386 2.4960034211 -0.3705768259
| 21> O -1.6666286675 1.6716240402 -0.1516559967
| 22> O -3.2976433499 -0.7650892696 -0.2248674066
| 23> H -2.1848947709 -2.3246752523 0.3917730633
| 24> H -1.6682551571 -1.6197791342 -1.1655167946
| 25> H 0.6486971837 -2.7211546102 -0.9251140215
| 26> H 3.4529715949 1.11593435 0.2166916413
| 27> H 1.6775189258 2.9231191681 0.0526490536
| 28> H -1.2914131064 2.5156504331 -0.4369855112
| 29> H -3.158086237 0.1737977636 -0.4113262444
| 30> *
| 31>
| 32>                          ****END OF INPUT****

CARTESIAN COORDINATES (ANGSTROEM)
---------------------------------
  C     -2.044931   -1.389139   -0.156790
  C     -1.023799   -0.510624    0.584555
  H     -1.495575   -0.152950    1.508688
  C     -0.645542    0.712366   -0.260470
  H     -0.519117    0.421960   -1.316804
  C      0.701670    1.240655    0.239979
  H      0.672352    1.342944    1.333841
  C      1.767150    0.199458   -0.138226
  H      1.946160    0.260716   -1.220409
  C      1.227486   -1.217975    0.152796
  H      2.004410   -1.764057    0.708991
  O      0.122521   -1.238846    1.006317
  O      0.959465   -1.820300   -1.078964
  O      2.964326    0.370439    0.582659
  O      0.926107    2.496003   -0.370577
  O     -1.666629    1.671624   -0.151656
  O     -3.297643   -0.765089   -0.224867
  H     -2.184895   -2.324675    0.391773
  H     -1.668255   -1.619779   -1.165517
  H      0.648697   -2.721155   -0.925114
  H      3.452972    1.115934    0.216692
  H      1.677519    2.923119    0.052649
  H     -1.291413    2.515650   -0.436986
  H     -3.158086    0.173798   -0.411326

 Total Charge           Charge          ....    0
 Multiplicity           Mult            ....    1
 Number of Electrons    NEL             ....   96
 Basis Dimension        Dim             ....  192

ORBITAL ENERGIES
----------------

  NO   OCC          E(Eh)            E(eV)
   0   2.0000     -18.778045      -510.9766
   1   2.0000     -18.772660      -510.8301
   2   2.0000     -18.767712      -510.6954
   3   2.0000     -18.767072      -510.6780
   4   2.0000     -18.763042      -510.5683
   5   2.0000     -18.730388      -509.6798
   6   2.0000      -9.989574      -271.8301
   7   2.0000      -9.950087      -270.7556
   8   2.0000      -9.948332      -270.7079
   9   2.0000      -9.948135      -270.7025
  10   2.0000      -9.942176      -270.5404
  11   2.0000      -9.920482      -269.9500
  12   2.0000      -0.987929       -26.8829
  13   2.0000      -0.962087       -26.1797
  14   2.0000      -0.943844       -25.6833
  15   2.0000      -0.932186       -25.3661
  16   2.0000      -0.917792       -24.9744
  17   2.0000      -0.908254       -24.7149
  18   2.0000      -0.714555       -19.4440
  19   2.0000      -0.695943       -18.9376
  20   2.0000      -0.618100       -16.8194
  21   2.0000      -0.586287       -15.9537
  22   2.0000      -0.570243       -15.5171
  23   2.0000      -0.527982       -14.3671
  24   2.0000      -0.512287       -13.9401
  25   2.0000      -0.497964       -13.5503
  26   2.0000      -0.474679       -12.9167
  27   2.0000      -0.467516       -12.7218
  28   2.0000      -0.453932       -12.3521
  29   2.0000      -0.422393       -11.4939
  30   2.0000      -0.414305       -11.2738
  31   2.0000      -0.399402       -10.8683
  32   2.0000      -0.392267       -10.6741
  33   2.0000      -0.378297       -10.2940
  34   2.0000      -0.364001        -9.9050
  35   2.0000      -0.350974        -9.5505
  36   2.0000      -0.334819        -9.1109
  37   2.0000      -0.327685        -8.9168
  38   2.0000      -0.322755        -8.7826
  39   2.0000      -0.298996        -8.1361
  40   2.0000      -0.281763        -7.6672
  41   2.0000      -0.271478        -7.3873
  42   2.0000      -0.259201        -7.0532
  43   2.0000      -0.248348        -6.7579
  44   2.0000      -0.236029        -6.4227
  45   2.0000      -0.228789        -6.2257
  46   2.0000      -0.220236        -5.9929
  47   2.0000      -0.199379        -5.4254
  48   0.0000      -0.014556        -0.3961
  49   0.0000       0.027349         0.7442
  50   0.0000       0.031757         0.8641
  51   0.0000       0.042858         1.1662
  52   0.0000       0.068297         1.8585

MULLIKEN ATOMIC CHARGES
-----------------------
   0 C :    0.077441
   1 C :    0.030148
   2 H :    0.082978
   3 C :   -0.007966
   4 H :    0.076830
   5 C :    0.039372
   6 H :    0.067193
   7 C :    0.054089
   8 H :    0.076726
   9 C :    0.169022
  10 H :    0.076184
  11 O :   -0.305988
  12 O :   -0.398309
  13 O :   -0.406300
  14 O :   -0.423621
  15 O :   -0.423599
  16 O :   -0.444670
  17 H :    0.080415
  18 H :    0.061512
  19 H :    0.306060
  20 H :    0.295893
  21 H :    0.301187
  22 H :    0.311833
  23 H :    0.303570
Sum of atomic charges:   -0.0000000

LOEWDIN ATOMIC CHARGES
----------------------
   0 C :   -0.132813
   1 C :   -0.067967
   2 H :    0.121778
   3 C :   -0.076248
   4 H :    0.108392
   5 C :   -0.082665
   6 H :    0.111949
   7 C :   -0.085587
   8 H :    0.114726
   9 C :    0.001230
  10 H :    0.105893
  11 O :   -0.135510
  12 O :   -0.309044
  13 O :   -0.315492
  14 O :   -0.322683
  15 O :   -0.314178
  16 O :   -0.339350
  17 H :    0.107959
  18 H :    0.090722
  19 H :    0.285944
  20 H :    0.283802
  21 H :    0.287348
  22 H :    0.286952
  23 H :    0.274841

  Mayer bond orders larger than 0.100000
B(  0-C ,  1-C ) :   1.0711 B(  0-C , 16-O ) :   1.0823 B(  0-C , 17-H ) :   0.9199
B(  0-C , 18-H ) :   0.8992 B(  1-C ,  2-H ) :   0.8824 B(  1-C ,  3-C ) :   0.9879
B(  1-C , 11-O ) :   0.9621 B(  3-C ,  4-H ) :   0.8815 B(  3-C ,  5-C ) :   1.0226
B(  3-C , 15-O ) :   1.0461 B(  5-C ,  6-H ) :   0.8665 B(  5-C ,  7-C ) :   1.0300
B(  5-C , 14-O ) :   1.0674 B(  7-C ,  8-H ) :   0.8831 B(  7-C ,  9-C ) :   0.9804
B(  7-C , 13-O ) :   1.0849 B(  9-C , 10-H ) :   0.8920 B(  9-C , 11-O ) :   1.0941
B(  9-C , 12-O ) :   1.0970 B( 12-O , 19-H ) :   0.8342 B( 13-O , 20-H ) :   0.8489
B( 14-O , 21-H ) :   0.8445 B( 15-O , 22-H ) :   0.8224 B( 16-O , 23-H ) :   0.8241

Dispersion correction           -0.024646884
FINAL SINGLE POINT ENERGY      -685.691987818601

DIPOLE MOMENT
-------------

Method             : SCF
Type of density    : Electron Density
Multiplicity       :   1
Irrep              :   0
Energy             :  -685.8239767248845737 Eh
Relativity type    :
Basis              : AO
                                X                 Y                 Z
Electronic contribution:      1.313738271       0.660401211       0.972431682
Nuclear contribution   :      0.079648766       0.171476557      -1.188911050
                        -----------------------------------------
Total Dipole Moment    :      1.393387036       0.831877767      -0.216479368
                        -----------------------------------------
Magnitude (a.u.)       :      1.637196192
Magnitude (Debye)      :      4.161422005

Rotational constants in cm-1:             0.043905             0.026407             0.018656
Rotational constants in MHz :          1316.223817           791.653143           559.303802

                             ****ORCA TERMINATED NORMALLY****
TOTAL RUN TIME: 0 days 0 hours 0 minutes 10 seconds 71 msec
