                         Program Version 6.0.1  -  RELEASE   -
|  1> ! pbe def2-sv(p) def2/J RI DEFGRID1 loosescf d4 GCP(DFT/SV(P)) printgap
|  2> %output
|  3>     printlevel normal
|  4> end
|  5> * xyz 0 1
|  6> C -2.0964029889 -0.8562420239 -0.448949688
|  7> C -1.2557008341 -0.3223623833 0.7292223216
|  8> H -1.9232377597 -0.3857299801 1.601292778
|  9> C -0.7924508544 1.1402952788 0.6328844747
| 10> H -1.631515694 1.7899426726 0.3500297075
| 11> C 0.3646497562 1.3325945855 -0.3727986156
| 12> H 0.829931528 2.3028451904 -0.1465358453
| 13> C 1.4718804788 0.2740317452 -0.1768773229
| 14> H 1.9945319389 0.1448460334 -1.1306352937
| 15> C 0.9859722734 -1.141242762 0.2622059144
| 16> H 1.7797345189 -1.5584717119 0.8977984289
| 17> O -0.1429220017 -1.1121010657 1.1183026816
| 18> O 0.85288918 -2.0188398133 -0.7909881303
| 19> O 2.4346930937 0.764083958 0.7233094881
| 20> O -0.0872865934 1.3287862969 -1.715009744
| 21> O -0.3548554265 1.5546414199 1.9092433589
| 22> O -1.4614327216 -0.9775157557 -1.692522013
| 23> H -2.9795139838 -0.2057925438 -0.5309444954
| 24> H -2.4291882436 -1.8647829413 -0.1898279489
| 25> H 0.0394403764 -1.8115304601 -1.2988083781
| 26> H 2.004169055 1.0038607956 1.5538979762
| 27> H -0.5038918797 2.1739323595 -1.9150274248
| 28> H -0.0785666638 0.7641660569 2.3945454399
| 29> H -1.0481728182 -0.1256322414 -1.9357863621
| 30> *
| 31>
| 32>                          ****END OF INPUT****

CARTESIAN COORDINATES (ANGSTROEM)
---------------------------------
  C     -2.096403   -0.856242   -0.448950
  C     -1.255701   -0.322362    0.729222
  H     -1.923238   -0.385730    1.601293
  C     -0.792451    1.140295    0.632884
  H     -1.631516    1.789943    0.350030
  C      0.364650    1.332595   -0.372799
  H      0.829932    2.302845   -0.146536
  C      1.471880    0.274032   -0.176877
  H      1.994532    0.144846   -1.130635
  C      0.985972   -1.141243    0.262206
  H      1.779735   -1.558472    0.897798
  O     -0.142922   -1.112101    1.118303
  O      0.852889   -2.018840   -0.790988
  O      2.434693    0.764084    0.723309
  O     -0.087287    1.328786   -1.715010
  O     -0.354855    1.554641    1.909243
  O     -1.461433   -0.977516   -1.692522
  H     -2.979514   -0.205793   -0.530944
  H     -2.429188   -1.864783   -0.189828
  H      0.039440   -1.811530   -1.298808
  H      2.004169    1.003861    1.553898
  H     -0.503892    2.173932   -1.915027
  H     -0.078567    0.764166    2.394545
  H     -1.048173   -0.125632   -1.935786

 Total Charge           Charge          ....    0
 Multiplicity           Mult            ....    1
 Number of Electrons    NEL             ....   96
 Basis Dimension        Dim             ....  192

ORBITAL ENERGIES
----------------

  NO   OCC          E(Eh)            E(eV)
   0   2.0000     -18.802764      -511.6492
   1   2.0000     -18.778050      -510.9767
   2   2.0000     -18.773057      -510.8409
   3   2.0000     -18.768100      -510.7060
   4   2.0000     -18.753582      -510.3109
   5   2.0000     -18.730715      -509.6887
   6   2.0000      -9.978221      -271.5212
   7   2.0000      -9.963557      -271.1222
   8   2.0000      -9.962952      -271.1057
   9   2.0000      -9.962232      -271.0861
  10   2.0000      -9.951199      -270.7859
  11   2.0000      -9.944528      -270.6044
  12   2.0000      -0.988246       -26.8915
  13   2.0000      -0.971186       -26.4273
  14   2.0000      -0.950760       -25.8715
  15   2.0000      -0.940376       -25.5889
  16   2.0000      -0.931339       -25.3430
  17   2.0000      -0.899658       -24.4809
  18   2.0000      -0.716575       -19.4990
  19   2.0000      -0.694300       -18.8929
  20   2.0000      -0.632284       -17.2053
  21   2.0000      -0.603802       -16.4303
  22   2.0000      -0.588306       -16.0086
  23   2.0000      -0.539193       -14.6722
  24   2.0000      -0.503028       -13.6881
  25   2.0000      -0.497546       -13.5389
  26   2.0000      -0.484693       -13.1892
  27   2.0000      -0.470912       -12.8142
  28   2.0000      -0.453010       -12.3270
  29   2.0000      -0.439905       -11.9704
  30   2.0000      -0.436797       -11.8859
  31   2.0000      -0.422465       -11.4959
  32   2.0000      -0.402537       -10.9536
  33   2.0000      -0.388937       -10.5835
  34   2.0000      -0.373763       -10.1706
  35   2.0000      -0.358292        -9.7496
  36   2.0000      -0.337218        -9.1762
  37   2.0000      -0.329648        -8.9702
  38   2.0000      -0.312329        -8.4989
  39   2.0000      -0.295955        -8.0533
  40   2.0000      -0.290834        -7.9140
  41   2.0000      -0.287380        -7.8200
  42   2.0000      -0.273887        -7.4528
  43   2.0000      -0.267461        -7.2780
  44   2.0000      -0.245832        -6.6894
  45   2.0000      -0.230068        -6.2605
  46   2.0000      -0.221626        -6.0308
  47   2.0000      -0.203448        -5.5361
  48   0.0000      -0.013909        -0.3785
  49   0.0000       0.010775         0.2932
  50   0.0000       0.037683         1.0254
  51   0.0000       0.043182         1.1751
  52   0.0000       0.067246         1.8299

MULLIKEN ATOMIC CHARGES
-----------------------
   0 C :    0.040334
   1 C :   -0.024139
   2 H :    0.088891
   3 C :    0.046560
   4 H :    0.059143
   5 C :    0.026951
   6 H :    0.091162
   7 C :    0.039478
   8 H :    0.092519
   9 C :    0.184270
  10 H :    0.071071
  11 O :   -0.315911
  12 O :   -0.402589
  13 O :   -0.414593
  14 O :   -0.416592
  15 O :   -0.415829
  16 O :   -0.441599
  17 H :    0.081515
  18 H :    0.106056
  19 H :    0.289129
  20 H :    0.283990
  21 H :    0.323127
  22 H :    0.305206
  23 H :    0.301850
Sum of atomic charges:   -0.0000000

LOEWDIN ATOMIC CHARGES
----------------------
   0 C :   -0.136116
   1 C :   -0.088046
   2 H :    0.126107
   3 C :   -0.078815
   4 H :    0.107120
   5 C :   -0.083416
   6 H :    0.117527
   7 C :   -0.082912
   8 H :    0.129556
   9 C :   -0.013513
  10 H :    0.110882
  11 O :   -0.150394
  12 O :   -0.319848
  13 O :   -0.307909
  14 O :   -0.300493
  15 O :   -0.313058
  16 O :   -0.331831
  17 H :    0.107722
  18 H :    0.124653
  19 H :    0.266752
  20 H :    0.269611
  21 H :    0.300444
  22 H :    0.277891
  23 H :    0.268086

  Mayer bond orders larger than 0.100000
B(  0-C ,  1-C ) :   1.0376 B(  0-C , 16-O ) :   1.0578 B(  0-C , 17-H ) :   0.9113
B(  0-C , 18-H ) :   0.9151 B(  1-C ,  2-H ) :   0.8838 B(  1-C ,  3-C ) :   1.0190
B(  1-C , 11-O ) :   1.0036 B(  3-C ,  4-H ) :   0.8955 B(  3-C ,  5-C ) :   0.9449
B(  3-C , 15-O ) :   1.0647 B(  5-C ,  6-H ) :   0.8987 B(  5-C ,  7-C ) :   0.9750
B(  5-C , 14-O ) :   0.9871 B(  7-C ,  8-H ) :   0.8864 B(  7-C ,  9-C ) :   0.9657
B(  7-C , 13-O ) :   1.0395 B(  9-C , 10-H ) :   0.9039 B(  9-C , 11-O ) :   0.9888
B(  9-C , 12-O ) :   1.1761 B( 12-O , 19-H ) :   0.7652 B( 13-O , 20-H ) :   0.8360
B( 14-O , 21-H ) :   0.8351 B( 14-O , 23-H ) :   0.1541 B( 15-O , 22-H ) :   0.8199
B( 16-O , 19-H ) :   0.1651 B( 16-O , 23-H ) :   0.7590

Dispersion correction           -0.026582011
FINAL SINGLE POINT ENERGY      -685.698358514241

DIPOLE MOMENT
-------------

Method             : SCF
Type of density    : Electron Density
Multiplicity       :   1
Irrep              :   0
Energy             :  -685.8349919194924951 Eh
Relativity type    :
Basis              : AO
                                X                 Y                 Z
Electronic contribution:      2.528175676      -0.776160684       0.464124785
Nuclear contribution   :     -3.683895571       2.083089028      -0.334992791
                        -----------------------------------------
Total Dipole Moment    :     -1.155719895       1.306928344       0.129131994
                        -----------------------------------------
Magnitude (a.u.)       :      1.749407112
Magnitude (Debye)      :      4.446639499

Rotational constants in cm-1:             0.038481             0.031241             0.028040
Rotational constants in MHz :          1153.620105           936.577475           840.611430

                             ****ORCA TERMINATED NORMALLY****
TOTAL RUN TIME: 0 days 0 hours 15 minutes 4 seconds 177 msec
