                         Program Version 6.0.1  -  RELEASE   -
|  1> ! pbe def2-sv(p) def2/J RI DEFGRID1 loosescf d4 GCP(DFT/SV(P)) printgap
|  2> %output
|  3>     printlevel normal
|  4> end
|  5> * xyz 0 1
|  6> C -2.3683319969 -0.8481249032 -0.1468786287
|  7> C -1.0539862667 -0.267879615 0.3943681238
|  8> H -1.2318290428 0.1261438059 1.408226422
|  9> C -0.5284252514 0.8612423599 -0.4936091669
| 10> H -0.4061476714 0.5095150419 -1.5233526662
| 11> C 0.8308341629 1.3439892679 0.0330652682
| 12> H 0.6735771747 1.8291594856 1.0133556526
| 13> C 1.7956443567 0.1731140835 0.2721238291
| 14> H 2.6458746638 0.2996869106 -0.4110560754
| 15> C 1.136515882 -1.1811798466 -0.0531711265
| 16> H 1.7356198127 -1.9882524314 0.4068792772
| 17> O -0.1238045176 -1.3456268309 0.5250058454
| 18> O 1.1116097172 -1.3280488613 -1.4417763731
| 19> O 2.1951401948 0.2247758622 1.6177420587
| 20> O 1.4155658664 2.2493317461 -0.8638381767
| 21> O -1.4332777872 1.9349408371 -0.5703500375
| 22> O -2.9340734141 -1.765767998 0.7471375742
| 23> H -2.1706626074 -1.3203822842 -1.1207986976
| 24> H -3.097068136 -0.0472490512 -0.2857425615
| 25> H 0.6679089563 -2.1564728638 -1.6627445136
| 26> H 2.8972486338 -0.4166240616 1.7729931472
| 27> H 0.7095351599 2.8022939225 -1.2247250941
| 28> H -1.6185601994 2.2557990429 0.3216706978
| 29> H -2.2375511691 -2.3783116852 1.0140250644
| 30> *
| 31>
| 32>                          ****END OF INPUT****

CARTESIAN COORDINATES (ANGSTROEM)
---------------------------------
  C     -2.368332   -0.848125   -0.146879
  C     -1.053986   -0.267880    0.394368
  H     -1.231829    0.126144    1.408226
  C     -0.528425    0.861242   -0.493609
  H     -0.406148    0.509515   -1.523353
  C      0.830834    1.343989    0.033065
  H      0.673577    1.829159    1.013356
  C      1.795644    0.173114    0.272124
  H      2.645875    0.299687   -0.411056
  C      1.136516   -1.181180   -0.053171
  H      1.735620   -1.988252    0.406879
  O     -0.123805   -1.345627    0.525006
  O      1.111610   -1.328049   -1.441776
  O      2.195140    0.224776    1.617742
  O      1.415566    2.249332   -0.863838
  O     -1.433278    1.934941   -0.570350
  O     -2.934073   -1.765768    0.747138
  H     -2.170663   -1.320382   -1.120799
  H     -3.097068   -0.047249   -0.285743
  H      0.667909   -2.156473   -1.662745
  H      2.897249   -0.416624    1.772993
  H      0.709535    2.802294   -1.224725
  H     -1.618560    2.255799    0.321671
  H     -2.237551   -2.378312    1.014025

 Total Charge           Charge          ....    0
 Multiplicity           Mult            ....    1
 Number of Electrons    NEL             ....   96
 Basis Dimension        Dim             ....  192

ORBITAL ENERGIES
----------------

  NO   OCC          E(Eh)            E(eV)
   0   2.0000     -18.781095      -511.0596
   1   2.0000     -18.770321      -510.7664
   2   2.0000     -18.769810      -510.7525
   3   2.0000     -18.759206      -510.4640
   4   2.0000     -18.745414      -510.0886
   5   2.0000     -18.743023      -510.0236
   6   2.0000      -9.994448      -271.9627
   7   2.0000      -9.948842      -270.7218
   8   2.0000      -9.946015      -270.6448
   9   2.0000      -9.945894      -270.6415
  10   2.0000      -9.942691      -270.5544
  11   2.0000      -9.930809      -270.2311
  12   2.0000      -0.991638       -26.9838
  13   2.0000      -0.953662       -25.9505
  14   2.0000      -0.938528       -25.5386
  15   2.0000      -0.929698       -25.2984
  16   2.0000      -0.919797       -25.0290
  17   2.0000      -0.914202       -24.8767
  18   2.0000      -0.709568       -19.3083
  19   2.0000      -0.695535       -18.9265
  20   2.0000      -0.619085       -16.8462
  21   2.0000      -0.601149       -16.3581
  22   2.0000      -0.565724       -15.3941
  23   2.0000      -0.526515       -14.3272
  24   2.0000      -0.515520       -14.0280
  25   2.0000      -0.490496       -13.3471
  26   2.0000      -0.476160       -12.9570
  27   2.0000      -0.471791       -12.8381
  28   2.0000      -0.453063       -12.3285
  29   2.0000      -0.416276       -11.3275
  30   2.0000      -0.413735       -11.2583
  31   2.0000      -0.402240       -10.9455
  32   2.0000      -0.385214       -10.4822
  33   2.0000      -0.379028       -10.3139
  34   2.0000      -0.373055       -10.1513
  35   2.0000      -0.357167        -9.7190
  36   2.0000      -0.349890        -9.5210
  37   2.0000      -0.313499        -8.5307
  38   2.0000      -0.303168        -8.2496
  39   2.0000      -0.298639        -8.1264
  40   2.0000      -0.288609        -7.8535
  41   2.0000      -0.274169        -7.4605
  42   2.0000      -0.256074        -6.9681
  43   2.0000      -0.242119        -6.5884
  44   2.0000      -0.240067        -6.5326
  45   2.0000      -0.228099        -6.2069
  46   2.0000      -0.217806        -5.9268
  47   2.0000      -0.204646        -5.5687
  48   0.0000       0.013543         0.3685
  49   0.0000       0.018012         0.4901
  50   0.0000       0.020320         0.5529
  51   0.0000       0.042704         1.1620
  52   0.0000       0.056261         1.5309

MULLIKEN ATOMIC CHARGES
-----------------------
   0 C :    0.108585
   1 C :   -0.020448
   2 H :    0.058783
   3 C :    0.036480
   4 H :    0.074384
   5 C :    0.071472
   6 H :    0.048600
   7 C :    0.095031
   8 H :    0.083470
   9 C :    0.128564
  10 H :    0.047755
  11 O :   -0.321367
  12 O :   -0.386376
  13 O :   -0.414084
  14 O :   -0.407544
  15 O :   -0.409391
  16 O :   -0.430243
  17 H :    0.053024
  18 H :    0.083788
  19 H :    0.301750
  20 H :    0.299641
  21 H :    0.299981
  22 H :    0.300245
  23 H :    0.297900
Sum of atomic charges:   -0.0000000

LOEWDIN ATOMIC CHARGES
----------------------
   0 C :   -0.127648
   1 C :   -0.075458
   2 H :    0.107756
   3 C :   -0.093663
   4 H :    0.123168
   5 C :   -0.063202
   6 H :    0.102977
   7 C :   -0.070611
   8 H :    0.119251
   9 C :   -0.013486
  10 H :    0.090468
  11 O :   -0.147907
  12 O :   -0.310324
  13 O :   -0.311597
  14 O :   -0.315916
  15 O :   -0.304188
  16 O :   -0.335429
  17 H :    0.093537
  18 H :    0.115546
  19 H :    0.284544
  20 H :    0.285829
  21 H :    0.281087
  22 H :    0.285290
  23 H :    0.279976

  Mayer bond orders larger than 0.100000
B(  0-C ,  1-C ) :   1.0590 B(  0-C , 16-O ) :   1.0798 B(  0-C , 17-H ) :   0.9010
B(  0-C , 18-H ) :   0.9110 B(  1-C ,  2-H ) :   0.8735 B(  1-C ,  3-C ) :   0.9918
B(  1-C , 11-O ) :   0.9477 B(  3-C ,  4-H ) :   0.8274 B(  3-C ,  5-C ) :   1.0918
B(  3-C , 15-O ) :   1.0059 B(  5-C ,  6-H ) :   0.8597 B(  5-C ,  7-C ) :   0.9794
B(  5-C , 14-O ) :   1.0980 B(  7-C ,  8-H ) :   0.8676 B(  7-C ,  9-C ) :   1.0285
B(  7-C , 13-O ) :   1.0587 B(  9-C , 10-H ) :   0.8959 B(  9-C , 11-O ) :   1.0729
B(  9-C , 12-O ) :   1.1128 B( 12-O , 19-H ) :   0.8382 B( 13-O , 20-H ) :   0.8485
B( 14-O , 21-H ) :   0.8352 B( 15-O , 22-H ) :   0.8450 B( 16-O , 23-H ) :   0.8448

Dispersion correction           -0.024378653
FINAL SINGLE POINT ENERGY      -685.690969409525

DIPOLE MOMENT
-------------

Method             : SCF
Type of density    : Electron Density
Multiplicity       :   1
Irrep              :   0
Energy             :  -685.8214586676696172 Eh
Relativity type    :
Basis              : AO
                                X                 Y                 Z
Electronic contribution:      1.734389855      -0.082185538       0.413229986
Nuclear contribution   :     -1.340086150      -0.455175875      -0.273053967
                        -----------------------------------------
Total Dipole Moment    :      0.394303705      -0.537361413       0.140176019
                        -----------------------------------------
Magnitude (a.u.)       :      0.681088847
Magnitude (Debye)      :      1.731190268

Rotational constants in cm-1:             0.040726             0.025618             0.020046
Rotational constants in MHz :          1220.932850           768.012799           600.973900

                             ****ORCA TERMINATED NORMALLY****
TOTAL RUN TIME: 0 days 0 hours 0 minutes 9 seconds 600 msec
