                         Program Version 6.0.1  -  RELEASE   -
|  1> ! r2scan-3c def2/J RI DEFGRID2 scfconv6 printgap
|  2> %output
|  3>     printlevel normal
|  4> end
|  5> * xyz 0 1
|  6> C -3.3966582996 -0.5606187424 -0.0358383491
|  7> C -1.9173618903 -0.5006985294 -0.3986064589
|  8> H -1.7931884467 -0.7251466085 -1.4644445224
|  9> C -1.0932098841 -1.5142741778 0.4085238329
| 10> C 0.3852526739 -1.4407648915 0.0457252526
| 11> C 0.9351858243 -0.0355704148 0.3055240732
| 12> H 0.7958299499 0.1936082207 1.3676587625
| 13> C 0.1250363311 0.9908906084 -0.5045782529
| 14> C -1.3400734802 0.8813817414 -0.1534378828
| 15> O -1.9752158365 1.7975588786 0.3032419974
| 16> C 2.4116864321 0.0574263716 -0.0146886514
| 17> C 2.8903570028 -0.1465970575 -1.2313380024
| 18> C 3.2983772563 0.3920542676 1.1446583922
| 19> H -3.5339224355 -0.3241170376 1.0164735262
| 20> H -3.9562632845 0.1661964512 -0.6190514538
| 21> H -3.7976201927 -1.5527951889 -0.2292282929
| 22> H -1.2220212653 -1.3061356154 1.473529788
| 23> H -1.4752562824 -2.5195325289 0.2178788842
| 24> H 0.9473367851 -2.1650059941 0.639357608
| 25> H 0.5205866773 -1.6985176697 -1.0062766009
| 26> H 0.4753378261 2.0025351372 -0.2928735371
| 27> H 0.2514940528 0.7939432464 -1.5702622812
| 28> H 3.9439780012 -0.0824020808 -1.442158849
| 29> H 2.2594668649 -0.3857673299 -2.0702821949
| 30> H 3.0135235328 1.3550063899 1.5678410711
| 31> H 3.192042556 -0.3583577197 1.9278195581
| 32> H 4.3412514601 0.4372561117 0.8429402152
| 33> *
| 34>
| 35>                          ****END OF INPUT****

CARTESIAN COORDINATES (ANGSTROEM)
---------------------------------
  C     -3.396658   -0.560619   -0.035838
  C     -1.917362   -0.500699   -0.398606
  H     -1.793188   -0.725147   -1.464445
  C     -1.093210   -1.514274    0.408524
  C      0.385253   -1.440765    0.045725
  C      0.935186   -0.035570    0.305524
  H      0.795830    0.193608    1.367659
  C      0.125036    0.990891   -0.504578
  C     -1.340073    0.881382   -0.153438
  O     -1.975216    1.797559    0.303242
  C      2.411686    0.057426   -0.014689
  C      2.890357   -0.146597   -1.231338
  C      3.298377    0.392054    1.144658
  H     -3.533922   -0.324117    1.016474
  H     -3.956263    0.166196   -0.619051
  H     -3.797620   -1.552795   -0.229228
  H     -1.222021   -1.306136    1.473530
  H     -1.475256   -2.519533    0.217879
  H      0.947337   -2.165006    0.639358
  H      0.520587   -1.698518   -1.006277
  H      0.475338    2.002535   -0.292874
  H      0.251494    0.793943   -1.570262
  H      3.943978   -0.082402   -1.442159
  H      2.259467   -0.385767   -2.070282
  H      3.013524    1.355006    1.567841
  H      3.192043   -0.358358    1.927820
  H      4.341251    0.437256    0.842940

 Total Charge           Charge          ....    0
 Multiplicity           Mult            ....    1
 Number of Electrons    NEL             ....   84
 Basis Dimension        Dim             ....  294

ORBITAL ENERGIES
----------------

  NO   OCC          E(Eh)            E(eV)
   0   2.0000     -18.936075      -515.2768
   1   2.0000     -10.112010      -275.1618
   2   2.0000     -10.052604      -273.5453
   3   2.0000     -10.046284      -273.3733
   4   2.0000     -10.044376      -273.3214
   5   2.0000     -10.040821      -273.2246
   6   2.0000     -10.037950      -273.1465
   7   2.0000     -10.036987      -273.1203
   8   2.0000     -10.031054      -272.9589
   9   2.0000     -10.018105      -272.6065
  10   2.0000     -10.017242      -272.5830
  11   2.0000      -1.007555       -27.4170
  12   2.0000      -0.822773       -22.3888
  13   2.0000      -0.778450       -21.1827
  14   2.0000      -0.729532       -19.8516
  15   2.0000      -0.705178       -19.1889
  16   2.0000      -0.660815       -17.9817
  17   2.0000      -0.644281       -17.5318
  18   2.0000      -0.581462       -15.8224
  19   2.0000      -0.571244       -15.5443
  20   2.0000      -0.508403       -13.8344
  21   2.0000      -0.490964       -13.3598
  22   2.0000      -0.453985       -12.3536
  23   2.0000      -0.444844       -12.1048
  24   2.0000      -0.427905       -11.6439
  25   2.0000      -0.416561       -11.3352
  26   2.0000      -0.411123       -11.1872
  27   2.0000      -0.400563       -10.8999
  28   2.0000      -0.390108       -10.6154
  29   2.0000      -0.383876       -10.4458
  30   2.0000      -0.371222       -10.1015
  31   2.0000      -0.352826        -9.6009
  32   2.0000      -0.348870        -9.4932
  33   2.0000      -0.343038        -9.3345
  34   2.0000      -0.331615        -9.0237
  35   2.0000      -0.327009        -8.8984
  36   2.0000      -0.317307        -8.6344
  37   2.0000      -0.308497        -8.3946
  38   2.0000      -0.296795        -8.0762
  39   2.0000      -0.287164        -7.8141
  40   2.0000      -0.232431        -6.3248
  41   2.0000      -0.206136        -5.6092
  42   0.0000      -0.047713        -1.2983
  43   0.0000      -0.011617        -0.3161
  44   0.0000       0.075771         2.0618
  45   0.0000       0.079422         2.1612
  46   0.0000       0.093959         2.5568

MULLIKEN ATOMIC CHARGES
-----------------------
   0 C :   -0.508244
   1 C :   -0.002677
   2 H :    0.161988
   3 C :   -0.324549
   4 C :   -0.361952
   5 C :   -0.034099
   6 H :    0.165511
   7 C :   -0.363889
   8 C :    0.195229
   9 O :   -0.334084
  10 C :    0.082921
  11 C :   -0.375574
  12 C :   -0.509571
  13 H :    0.162700
  14 H :    0.160771
  15 H :    0.143056
  16 H :    0.165103
  17 H :    0.152961
  18 H :    0.155209
  19 H :    0.166530
  20 H :    0.169821
  21 H :    0.179475
  22 H :    0.147798
  23 H :    0.136520
  24 H :    0.161546
  25 H :    0.158090
  26 H :    0.149408
Sum of atomic charges:   -0.0000000

LOEWDIN ATOMIC CHARGES
----------------------
   0 C :   -0.395362
   1 C :   -0.208541
   2 H :    0.174848
   3 C :   -0.275347
   4 C :   -0.274977
   5 C :   -0.192572
   6 H :    0.170336
   7 C :   -0.243723
   8 C :    0.229184
   9 O :   -0.446519
  10 C :   -0.119377
  11 C :   -0.321083
  12 C :   -0.389719
  13 H :    0.164597
  14 H :    0.164472
  15 H :    0.151899
  16 H :    0.163626
  17 H :    0.162013
  18 H :    0.164994
  19 H :    0.162673
  20 H :    0.181044
  21 H :    0.177749
  22 H :    0.159616
  23 H :    0.156489
  24 H :    0.163182
  25 H :    0.161771
  26 H :    0.158726

  Mayer bond orders larger than 0.100000
B(  0-C ,  1-C ) :   0.8870 B(  0-C , 13-H ) :   0.9884 B(  0-C , 14-H ) :   0.9717
B(  0-C , 15-H ) :   0.9777 B(  1-C ,  2-H ) :   0.9267 B(  1-C ,  3-C ) :   0.8640
B(  1-C ,  8-C ) :   0.8844 B(  1-C ,  9-O ) :  -0.1107 B(  3-C ,  4-C ) :   0.8779
B(  3-C , 16-H ) :   1.0013 B(  3-C , 17-H ) :   0.9448 B(  4-C ,  5-C ) :   0.9274
B(  4-C , 18-H ) :   0.9494 B(  4-C , 19-H ) :   1.0047 B(  5-C ,  6-H ) :   0.9817
B(  5-C ,  7-C ) :   0.9069 B(  5-C , 10-C ) :   0.8301 B(  7-C ,  8-C ) :   0.9168
B(  7-C , 20-H ) :   0.9476 B(  7-C , 21-H ) :   0.9889 B(  8-C ,  9-O ) :   2.0081
B( 10-C , 11-C ) :   1.8520 B( 10-C , 12-C ) :   0.9022 B( 11-C , 22-H ) :   0.9656
B( 11-C , 23-H ) :   0.9921 B( 12-C , 24-H ) :   0.9705 B( 12-C , 25-H ) :   0.9701
B( 12-C , 26-H ) :   0.9857

Dispersion correction           -0.009530630
FINAL SINGLE POINT ENERGY      -465.781572212145

DIPOLE MOMENT
-------------

Method             : SCF
Type of density    : Electron Density
Multiplicity       :   1
Irrep              :   0
Energy             :  -465.7829342833282453 Eh
Relativity type    :
Basis              : AO
                                X                 Y                 Z
Electronic contribution:     -3.057342145       4.843857908      -0.503722288
Nuclear contribution   :      3.688266016      -5.761111682       0.341225022
                        -----------------------------------------
Total Dipole Moment    :      0.630923872      -0.917253774      -0.162497266
                        -----------------------------------------
Magnitude (a.u.)       :      1.125088787
Magnitude (Debye)      :      2.859748429

Rotational constants in cm-1:             0.073634             0.021765             0.019467
Rotational constants in MHz :          2207.479351           652.490544           583.615584

                             ****ORCA TERMINATED NORMALLY****
TOTAL RUN TIME: 0 days 0 hours 0 minutes 44 seconds 752 msec
