                         Program Version 6.0.1  -  RELEASE   -
|  1> ! r2scan-3c def2/J RI DEFGRID2 scfconv6 printgap
|  2> %output
|  3>     printlevel normal
|  4> end
|  5> * xyz 0 1
|  6> C -0.8476150318 0.5913277858 -0.9515252931
|  7> C 0.5221119387 -0.0360512692 -0.7860417645
|  8> Cl 0.3805216901 -1.7243083232 -0.245964174
|  9> Cl 1.500571896 0.8860749704 0.3778861157
| 10> Cl -1.7389365316 0.6045774817 0.5899223894
| 11> H -0.7477290809 1.6257140453 -1.2822894571
| 12> H -1.4376501887 0.0176914582 -1.6672517315
| 13> H 1.0639620672 -0.0416837446 -1.7350794472
| 14> *
| 15>
| 16>                          ****END OF INPUT****

CARTESIAN COORDINATES (ANGSTROEM)
---------------------------------
  C     -0.847615    0.591328   -0.951525
  C      0.522112   -0.036051   -0.786042
  Cl     0.380522   -1.724308   -0.245964
  Cl     1.500572    0.886075    0.377886
  Cl    -1.738937    0.604577    0.589922
  H     -0.747729    1.625714   -1.282289
  H     -1.437650    0.017691   -1.667252
  H      1.063962   -0.041684   -1.735079

 Total Charge           Charge          ....    0
 Multiplicity           Mult            ....    1
 Number of Electrons    NEL             ....   66
 Basis Dimension        Dim             ....  134

ORBITAL ENERGIES
----------------

  NO   OCC          E(Eh)            E(eV)
   0   2.0000    -101.228747     -2754.5742
   1   2.0000    -101.228730     -2754.5738
   2   2.0000    -101.218246     -2754.2885
   3   2.0000     -10.179831      -277.0073
   4   2.0000     -10.125816      -275.5375
   5   2.0000      -9.384818      -255.3739
   6   2.0000      -9.384799      -255.3734
   7   2.0000      -9.374106      -255.0824
   8   2.0000      -7.131554      -194.0594
   9   2.0000      -7.131535      -194.0589
  10   2.0000      -7.120862      -193.7685
  11   2.0000      -7.120785      -193.7664
  12   2.0000      -7.120769      -193.7660
  13   2.0000      -7.120378      -193.7553
  14   2.0000      -7.120360      -193.7548
  15   2.0000      -7.109985      -193.4725
  16   2.0000      -7.109750      -193.4661
  17   2.0000      -0.897269       -24.4159
  18   2.0000      -0.823531       -22.4094
  19   2.0000      -0.795166       -21.6376
  20   2.0000      -0.701441       -19.0872
  21   2.0000      -0.589661       -16.0455
  22   2.0000      -0.487748       -13.2723
  23   2.0000      -0.476363       -12.9625
  24   2.0000      -0.441862       -12.0237
  25   2.0000      -0.403963       -10.9924
  26   2.0000      -0.395194       -10.7538
  27   2.0000      -0.316498        -8.6123
  28   2.0000      -0.305160        -8.3038
  29   2.0000      -0.288425        -7.8484
  30   2.0000      -0.285070        -7.7572
  31   2.0000      -0.283726        -7.7206
  32   2.0000      -0.277100        -7.5403
  33   0.0000      -0.047192        -1.2842
  34   0.0000      -0.003753        -0.1021
  35   0.0000       0.004896         0.1332
  36   0.0000       0.073921         2.0115
  37   0.0000       0.105468         2.8699

MULLIKEN ATOMIC CHARGES
-----------------------
   0 C :   -0.191895
   1 C :    0.023952
   2 Cl:   -0.116652
   3 Cl:   -0.116776
   4 Cl:   -0.144960
   5 H :    0.176059
   6 H :    0.176045
   7 H :    0.194226
Sum of atomic charges:    0.0000000

LOEWDIN ATOMIC CHARGES
----------------------
   0 C :   -0.360176
   1 C :   -0.350620
   2 Cl:    0.075815
   3 Cl:    0.075691
   4 Cl:    0.044121
   5 H :    0.171838
   6 H :    0.171835
   7 H :    0.171496

  Mayer bond orders larger than 0.100000
B(  0-C ,  1-C ) :   0.9381 B(  0-C ,  4-Cl) :   1.0173 B(  0-C ,  5-H ) :   0.9410
B(  0-C ,  6-H ) :   0.9410 B(  1-C ,  2-Cl) :   1.0159 B(  1-C ,  3-Cl) :   1.0157
B(  1-C ,  7-H ) :   0.9182

Dispersion correction           -0.002575365
FINAL SINGLE POINT ENERGY     -1458.519742959799

DIPOLE MOMENT
-------------

Method             : SCF
Type of density    : Electron Density
Multiplicity       :   1
Irrep              :   0
Energy             : -1458.5268364480230048 Eh
Relativity type    :
Basis              : AO
                                X                 Y                 Z
Electronic contribution:      1.227319199      -1.553148151       4.290625361
Nuclear contribution   :     -1.242892448       1.816313685      -5.363869693
                        -----------------------------------------
Total Dipole Moment    :     -0.015573250       0.263165535      -1.073244332
                        -----------------------------------------
Magnitude (a.u.)       :      1.105147963
Magnitude (Debye)      :      2.809062883

Rotational constants in cm-1:             0.089559             0.066177             0.045611
Rotational constants in MHz :          2684.924434          1983.923930          1367.373159

                             ****ORCA TERMINATED NORMALLY****
TOTAL RUN TIME: 0 days 0 hours 0 minutes 14 seconds 805 msec
