                         Program Version 6.0.1  -  RELEASE   -
|  1> ! r2scan-3c def2/J RI DEFGRID2 scfconv6 printgap
|  2> %output
|  3>     printlevel normal
|  4> end
|  5> * xyz 0 1
|  6> C -3.0650140601 -0.9171200577 0.2096749092
|  7> O -1.9062287898 -0.5660148656 -0.5316954475
|  8> C -1.0730463472 0.3073396561 0.0552140345
|  9> O -1.2870643151 0.785365461 1.1376435636
| 10> C 0.109004205 0.6215149252 -0.8437571705
| 11> C 0.7958500781 -0.6623050474 -1.3247936462
| 12> C 1.4924102812 -1.3697434349 -0.1665990288
| 13> C 2.5169818876 -0.4432089883 0.4801349518
| 14> C 1.8357036502 0.8226818252 0.9890889574
| 15> C 1.1093195207 1.5436107974 -0.1436535068
| 16> H -2.7840508579 -1.3973323815 1.1494414333
| 17> H -3.6304341796 -1.6035830969 -0.4152781218
| 18> H -3.6556481518 -0.026742478 0.4351875635
| 19> H -0.3136270772 1.1370328407 -1.7152181942
| 20> H 0.058477374 -1.3216272932 -1.7844352721
| 21> H 1.536381057 -0.3977317599 -2.0831896031
| 22> H 0.7507738336 -1.6656481428 0.5790486371
| 23> H 1.9818359611 -2.2756541029 -0.5309050199
| 24> H 3.0136050654 -0.955419826 1.3066006233
| 25> H 3.2796859399 -0.1779043369 -0.2565141578
| 26> H 1.114371889 0.563710798 1.7647631826
| 27> H 2.575724671 1.4935464208 1.4300286838
| 28> H 0.5819553821 2.4109292342 0.2564808396
| 29> H 1.8361518064 1.8931336299 -0.8804581608
| 30> *
| 31>
| 32>                          ****END OF INPUT****

CARTESIAN COORDINATES (ANGSTROEM)
---------------------------------
  C     -3.065014   -0.917120    0.209675
  O     -1.906229   -0.566015   -0.531695
  C     -1.073046    0.307340    0.055214
  O     -1.287064    0.785365    1.137644
  C      0.109004    0.621515   -0.843757
  C      0.795850   -0.662305   -1.324794
  C      1.492410   -1.369743   -0.166599
  C      2.516982   -0.443209    0.480135
  C      1.835704    0.822682    0.989089
  C      1.109320    1.543611   -0.143654
  H     -2.784051   -1.397332    1.149441
  H     -3.630434   -1.603583   -0.415278
  H     -3.655648   -0.026742    0.435188
  H     -0.313627    1.137033   -1.715218
  H      0.058477   -1.321627   -1.784435
  H      1.536381   -0.397732   -2.083190
  H      0.750774   -1.665648    0.579049
  H      1.981836   -2.275654   -0.530905
  H      3.013605   -0.955420    1.306601
  H      3.279686   -0.177904   -0.256514
  H      1.114372    0.563711    1.764763
  H      2.575725    1.493546    1.430029
  H      0.581955    2.410929    0.256481
  H      1.836152    1.893134   -0.880458

 Total Charge           Charge          ....    0
 Multiplicity           Mult            ....    1
 Number of Electrons    NEL             ....   78
 Basis Dimension        Dim             ....  270

ORBITAL ENERGIES
----------------

  NO   OCC          E(Eh)            E(eV)
   0   2.0000     -18.997529      -516.9490
   1   2.0000     -18.934068      -515.2222
   2   2.0000     -10.151721      -276.2424
   3   2.0000     -10.084925      -274.4248
   4   2.0000     -10.047046      -273.3940
   5   2.0000     -10.029726      -272.9227
   6   2.0000     -10.024381      -272.7773
   7   2.0000     -10.024089      -272.7693
   8   2.0000     -10.020334      -272.6671
   9   2.0000     -10.016035      -272.5502
  10   2.0000      -1.073993       -29.2248
  11   2.0000      -0.983295       -26.7568
  12   2.0000      -0.807285       -21.9673
  13   2.0000      -0.732673       -19.9371
  14   2.0000      -0.709434       -19.3047
  15   2.0000      -0.687207       -18.6999
  16   2.0000      -0.594253       -16.1704
  17   2.0000      -0.574645       -15.6369
  18   2.0000      -0.543950       -14.8016
  19   2.0000      -0.516083       -14.0433
  20   2.0000      -0.466372       -12.6906
  21   2.0000      -0.455716       -12.4007
  22   2.0000      -0.445621       -12.1260
  23   2.0000      -0.436299       -11.8723
  24   2.0000      -0.410776       -11.1778
  25   2.0000      -0.407223       -11.0811
  26   2.0000      -0.394815       -10.7435
  27   2.0000      -0.370780       -10.0894
  28   2.0000      -0.348232        -9.4759
  29   2.0000      -0.346076        -9.4172
  30   2.0000      -0.340764        -9.2727
  31   2.0000      -0.338368        -9.2075
  32   2.0000      -0.318693        -8.6721
  33   2.0000      -0.312218        -8.4959
  34   2.0000      -0.292744        -7.9660
  35   2.0000      -0.277033        -7.5384
  36   2.0000      -0.268117        -7.2958
  37   2.0000      -0.266748        -7.2586
  38   2.0000      -0.236980        -6.4486
  39   0.0000      -0.018046        -0.4911
  40   0.0000       0.063103         1.7171
  41   0.0000       0.087397         2.3782
  42   0.0000       0.101128         2.7518
  43   0.0000       0.112845         3.0707

MULLIKEN ATOMIC CHARGES
-----------------------
   0 C :   -0.301196
   1 O :   -0.170565
   2 C :    0.196109
   3 O :   -0.403697
   4 C :    0.101450
   5 C :   -0.361800
   6 C :   -0.266291
   7 C :   -0.310487
   8 C :   -0.326170
   9 C :   -0.334596
  10 H :    0.158589
  11 H :    0.149547
  12 H :    0.160697
  13 H :    0.159826
  14 H :    0.165920
  15 H :    0.152511
  16 H :    0.147183
  17 H :    0.150840
  18 H :    0.148167
  19 H :    0.141812
  20 H :    0.184454
  21 H :    0.145848
  22 H :    0.155372
  23 H :    0.156476
Sum of atomic charges:    0.0000000

LOEWDIN ATOMIC CHARGES
----------------------
   0 C :   -0.046993
   1 O :   -0.613633
   2 C :    0.358663
   3 O :   -0.422738
   4 C :   -0.155006
   5 C :   -0.273315
   6 C :   -0.294786
   7 C :   -0.302001
   8 C :   -0.296337
   9 C :   -0.278698
  10 H :    0.175220
  11 H :    0.175072
  12 H :    0.176504
  13 H :    0.185974
  14 H :    0.172288
  15 H :    0.159049
  16 H :    0.158759
  17 H :    0.156163
  18 H :    0.154891
  19 H :    0.153366
  20 H :    0.172356
  21 H :    0.154971
  22 H :    0.171636
  23 H :    0.158595

  Mayer bond orders larger than 0.100000
B(  0-C ,  1-O ) :   0.8579 B(  0-C , 10-H ) :   0.9632 B(  0-C , 11-H ) :   0.9700
B(  0-C , 12-H ) :   0.9644 B(  1-O ,  2-C ) :   1.0495 B(  2-C ,  3-O ) :   1.8618
B(  2-C ,  4-C ) :   0.9344 B(  4-C ,  5-C ) :   0.8892 B(  4-C ,  9-C ) :   0.9534
B(  4-C , 13-H ) :   0.8926 B(  5-C ,  6-C ) :   0.9104 B(  5-C , 14-H ) :   0.9409
B(  5-C , 15-H ) :   0.9878 B(  6-C ,  7-C ) :   0.9181 B(  6-C , 16-H ) :   0.9773
B(  6-C , 17-H ) :   0.9391 B(  7-C ,  8-C ) :   0.9048 B(  7-C , 18-H ) :   0.9457
B(  7-C , 19-H ) :   1.0024 B(  8-C ,  9-C ) :   0.9015 B(  8-C , 20-H ) :   0.9868
B(  8-C , 21-H ) :   0.9394 B(  9-C , 22-H ) :   0.9414 B(  9-C , 23-H ) :   0.9898

Dispersion correction           -0.007923513
FINAL SINGLE POINT ENERGY      -463.636411333434

DIPOLE MOMENT
-------------

Method             : SCF
Type of density    : Electron Density
Multiplicity       :   1
Irrep              :   0
Energy             :  -463.6417480549689571 Eh
Relativity type    :
Basis              : AO
                                X                 Y                 Z
Electronic contribution:     -5.972953406       1.769058514       0.150889665
Nuclear contribution   :      5.905515990      -2.176382678      -0.689432273
                        -----------------------------------------
Total Dipole Moment    :     -0.067437416      -0.407324165      -0.538542608
                        -----------------------------------------
Magnitude (a.u.)       :      0.678593340
Magnitude (Debye)      :      1.724847194

Rotational constants in cm-1:             0.078792             0.031942             0.028345
Rotational constants in MHz :          2362.126489           957.611409           849.773827

                             ****ORCA TERMINATED NORMALLY****
TOTAL RUN TIME: 0 days 0 hours 0 minutes 25 seconds 180 msec
