                         Program Version 6.0.1  -  RELEASE   -
|  1> ! pbe def2-sv(p) def2/J RI DEFGRID1 loosescf d4 GCP(DFT/SV(P)) printgap
|  2> %output
|  3>     printlevel normal
|  4> end
|  5> * xyz 0 1
|  6> C -2.1841446722 -1.2391870838 0.0818633445
|  7> C -0.8561310127 -0.570990481 0.4863030076
|  8> H -0.9406632104 -0.2660996177 1.5429622032
|  9> C -0.5844486527 0.6811971568 -0.3671816901
| 10> H -0.609000724 0.3976829367 -1.4264180779
| 11> C 0.7998458159 1.2912190324 -0.0550500608
| 12> H 0.7005544795 2.0311683961 0.7495276624
| 13> C 1.8026421574 0.2100830944 0.4265429927
| 14> H 2.7974186561 0.4955580596 0.069116768
| 15> C 1.3965042035 -1.14011517 -0.169697879
| 16> H 2.1064430075 -1.9243484058 0.1381502724
| 17> O 0.1697668329 -1.5588958338 0.3658585294
| 18> O 1.367988177 -1.0175348967 -1.5622332306
| 19> O 1.8830925266 0.1186964935 1.8226168721
| 20> O 1.3061464002 1.995012883 -1.1528159144
| 21> O -1.6264963471 1.6176526083 -0.2200049548
| 22> O -3.2987625053 -0.490735622 0.4653839749
| 23> H -2.2555071898 -2.2025712005 0.5921861577
| 24> H -2.1751670994 -1.418126437 -1.0035773072
| 25> H 1.087952733 -1.858132374 -1.9443492749
| 26> H 1.2244157828 -0.513900428 2.1362325285
| 27> H 1.4654454574 1.3655325169 -1.8680653947
| 28> H -1.5070926813 2.1067632103 0.6030845293
| 29> H -3.2076391006 0.3927195419 0.0749654929
| 30> *
| 31>
| 32>                          ****END OF INPUT****

CARTESIAN COORDINATES (ANGSTROEM)
---------------------------------
  C     -2.184145   -1.239187    0.081863
  C     -0.856131   -0.570990    0.486303
  H     -0.940663   -0.266100    1.542962
  C     -0.584449    0.681197   -0.367182
  H     -0.609001    0.397683   -1.426418
  C      0.799846    1.291219   -0.055050
  H      0.700554    2.031168    0.749528
  C      1.802642    0.210083    0.426543
  H      2.797419    0.495558    0.069117
  C      1.396504   -1.140115   -0.169698
  H      2.106443   -1.924348    0.138150
  O      0.169767   -1.558896    0.365859
  O      1.367988   -1.017535   -1.562233
  O      1.883093    0.118696    1.822617
  O      1.306146    1.995013   -1.152816
  O     -1.626496    1.617653   -0.220005
  O     -3.298763   -0.490736    0.465384
  H     -2.255507   -2.202571    0.592186
  H     -2.175167   -1.418126   -1.003577
  H      1.087953   -1.858132   -1.944349
  H      1.224416   -0.513900    2.136233
  H      1.465445    1.365533   -1.868065
  H     -1.507093    2.106763    0.603085
  H     -3.207639    0.392720    0.074965

 Total Charge           Charge          ....    0
 Multiplicity           Mult            ....    1
 Number of Electrons    NEL             ....   96
 Basis Dimension        Dim             ....  192

ORBITAL ENERGIES
----------------

  NO   OCC          E(Eh)            E(eV)
   0   2.0000     -18.792342      -511.3656
   1   2.0000     -18.788221      -511.2535
   2   2.0000     -18.775818      -510.9160
   3   2.0000     -18.762747      -510.5603
   4   2.0000     -18.748771      -510.1800
   5   2.0000     -18.737915      -509.8846
   6   2.0000     -10.003473      -272.2083
   7   2.0000      -9.953370      -270.8450
   8   2.0000      -9.953280      -270.8425
   9   2.0000      -9.950194      -270.7585
  10   2.0000      -9.948190      -270.7040
  11   2.0000      -9.932741      -270.2836
  12   2.0000      -1.003636       -27.3103
  13   2.0000      -0.957522       -26.0555
  14   2.0000      -0.944554       -25.7026
  15   2.0000      -0.936316       -25.4785
  16   2.0000      -0.925542       -25.1853
  17   2.0000      -0.916431       -24.9374
  18   2.0000      -0.711225       -19.3534
  19   2.0000      -0.699146       -19.0247
  20   2.0000      -0.623064       -16.9544
  21   2.0000      -0.604197       -16.4410
  22   2.0000      -0.573610       -15.6087
  23   2.0000      -0.545395       -14.8410
  24   2.0000      -0.516380       -14.0514
  25   2.0000      -0.503970       -13.7137
  26   2.0000      -0.479495       -13.0477
  27   2.0000      -0.466312       -12.6890
  28   2.0000      -0.453945       -12.3525
  29   2.0000      -0.436670       -11.8824
  30   2.0000      -0.422996       -11.5103
  31   2.0000      -0.405942       -11.0462
  32   2.0000      -0.391470       -10.6524
  33   2.0000      -0.379206       -10.3187
  34   2.0000      -0.372483       -10.1358
  35   2.0000      -0.361415        -9.8346
  36   2.0000      -0.351025        -9.5519
  37   2.0000      -0.329847        -8.9756
  38   2.0000      -0.311677        -8.4812
  39   2.0000      -0.298739        -8.1291
  40   2.0000      -0.288935        -7.8623
  41   2.0000      -0.285280        -7.7629
  42   2.0000      -0.268862        -7.3161
  43   2.0000      -0.258755        -7.0411
  44   2.0000      -0.246646        -6.7116
  45   2.0000      -0.231776        -6.3070
  46   2.0000      -0.215586        -5.8664
  47   2.0000      -0.203863        -5.5474
  48   0.0000       0.006039         0.1643
  49   0.0000       0.015144         0.4121
  50   0.0000       0.019084         0.5193
  51   0.0000       0.045930         1.2498
  52   0.0000       0.064851         1.7647

MULLIKEN ATOMIC CHARGES
-----------------------
   0 C :    0.097825
   1 C :   -0.030856
   2 H :    0.049307
   3 C :    0.073805
   4 H :    0.057025
   5 C :    0.099967
   6 H :    0.057134
   7 C :    0.027825
   8 H :    0.087038
   9 C :    0.124806
  10 H :    0.080676
  11 O :   -0.311463
  12 O :   -0.396623
  13 O :   -0.410390
  14 O :   -0.419093
  15 O :   -0.416339
  16 O :   -0.442904
  17 H :    0.090441
  18 H :    0.055062
  19 H :    0.311441
  20 H :    0.308612
  21 H :    0.304118
  22 H :    0.307430
  23 H :    0.295157
Sum of atomic charges:   -0.0000000

LOEWDIN ATOMIC CHARGES
----------------------
   0 C :   -0.122322
   1 C :   -0.086418
   2 H :    0.097359
   3 C :   -0.084308
   4 H :    0.117292
   5 C :   -0.074107
   6 H :    0.116055
   7 C :   -0.085388
   8 H :    0.124131
   9 C :   -0.014425
  10 H :    0.103167
  11 O :   -0.145881
  12 O :   -0.311161
  13 O :   -0.306339
  14 O :   -0.308420
  15 O :   -0.297310
  16 O :   -0.340876
  17 H :    0.114779
  18 H :    0.092180
  19 H :    0.291674
  20 H :    0.283241
  21 H :    0.280736
  22 H :    0.287557
  23 H :    0.268786

  Mayer bond orders larger than 0.100000
B(  0-C ,  1-C ) :   1.0269 B(  0-C , 16-O ) :   1.1008 B(  0-C , 17-H ) :   0.9223
B(  0-C , 18-H ) :   0.9059 B(  1-C ,  2-H ) :   0.8741 B(  1-C ,  3-C ) :   1.0111
B(  1-C , 11-O ) :   0.9377 B(  3-C ,  4-H ) :   0.8433 B(  3-C ,  5-C ) :   1.0197
B(  3-C , 15-O ) :   0.9953 B(  5-C ,  6-H ) :   0.8626 B(  5-C ,  7-C ) :   0.9590
B(  5-C , 14-O ) :   1.0475 B(  7-C ,  8-H ) :   0.8829 B(  7-C ,  9-C ) :   1.0539
B(  7-C , 13-O ) :   1.0632 B(  9-C , 10-H ) :   0.8977 B(  9-C , 11-O ) :   1.0576
B(  9-C , 12-O ) :   1.1070 B( 12-O , 19-H ) :   0.8361 B( 13-O , 20-H ) :   0.8343
B( 14-O , 21-H ) :   0.8403 B( 15-O , 22-H ) :   0.8383 B( 15-O , 23-H ) :   0.1033
B( 16-O , 23-H ) :   0.8131

Dispersion correction           -0.025124631
FINAL SINGLE POINT ENERGY      -685.692608963690

DIPOLE MOMENT
-------------

Method             : SCF
Type of density    : Electron Density
Multiplicity       :   1
Irrep              :   0
Energy             :  -685.8259353166681649 Eh
Relativity type    :
Basis              : AO
                                X                 Y                 Z
Electronic contribution:      1.603391803       0.635555076       0.009863931
Nuclear contribution   :     -1.234604348      -1.297738448      -0.319563953
                        -----------------------------------------
Total Dipole Moment    :      0.368787456      -0.662183372      -0.309700022
                        -----------------------------------------
Magnitude (a.u.)       :      0.818782699
Magnitude (Debye)      :      2.081180228

Rotational constants in cm-1:             0.042818             0.025656             0.021739
Rotational constants in MHz :          1283.642051           769.139925           651.730278

                             ****ORCA TERMINATED NORMALLY****
TOTAL RUN TIME: 0 days 0 hours 1 minutes 22 seconds 139 msec
