                         Program Version 6.0.1  -  RELEASE   -
|  1> ! r2scan-3c def2/J RI DEFGRID2 scfconv6 printgap
|  2> %output
|  3>     printlevel normal
|  4> end
|  5> * xyz 0 1
|  6> C -2.6476562031 -1.4994518758 -0.1086655413
|  7> C -1.953901049 -0.1502668709 0.010224238
|  8> C -0.4502916214 -0.1917796856 -0.012453289
|  9> C 0.2980475182 -1.3501370087 -0.1310250937
| 10> C 1.6842306293 -1.3149218499 -0.1449531885
| 11> C 2.3462126062 -0.1075809057 -0.0393151427
| 12> C 1.6192015511 1.0644997525 0.0802645097
| 13> C 0.2337043949 1.0266125225 0.0939317984
| 14> O -0.5104688006 2.1662489762 0.2106654222
| 15> H -2.3699421636 -2.1533133423 0.7150442534
| 16> H -2.391947766 -1.986723569 -1.0469285519
| 17> H -3.726197975 -1.3598229243 -0.0819873132
| 18> H -2.2613979182 0.3386632807 0.9394663868
| 19> H -2.2831350251 0.5033966521 -0.8030547656
| 20> H -0.2007656456 -2.3023677582 -0.2146364477
| 21> H 2.2434531867 -2.2336920156 -0.2385658011
| 22> H 3.4252501779 -0.0703640024 -0.0492191376
| 23> H 2.1280900809 2.0167209469 0.1637338946
| 24> H 0.0791127288 2.9270150596 0.27499465
| 25> *
| 26>
| 27>                          ****END OF INPUT****

CARTESIAN COORDINATES (ANGSTROEM)
---------------------------------
  C     -2.647656   -1.499452   -0.108666
  C     -1.953901   -0.150267    0.010224
  C     -0.450292   -0.191780   -0.012453
  C      0.298048   -1.350137   -0.131025
  C      1.684231   -1.314922   -0.144953
  C      2.346213   -0.107581   -0.039315
  C      1.619202    1.064500    0.080265
  C      0.233704    1.026613    0.093932
  O     -0.510469    2.166249    0.210665
  H     -2.369942   -2.153313    0.715044
  H     -2.391948   -1.986724   -1.046929
  H     -3.726198   -1.359823   -0.081987
  H     -2.261398    0.338663    0.939466
  H     -2.283135    0.503397   -0.803055
  H     -0.200766   -2.302368   -0.214636
  H      2.243453   -2.233692   -0.238566
  H      3.425250   -0.070364   -0.049219
  H      2.128090    2.016721    0.163734
  H      0.079113    2.927015    0.274995

 Total Charge           Charge          ....    0
 Multiplicity           Mult            ....    1
 Number of Electrons    NEL             ....   66
 Basis Dimension        Dim             ....  226

ORBITAL ENERGIES
----------------

  NO   OCC          E(Eh)            E(eV)
   0   2.0000     -18.985364      -516.6180
   1   2.0000     -10.091354      -274.5997
   2   2.0000     -10.036170      -273.0981
   3   2.0000     -10.031881      -272.9814
   4   2.0000     -10.031161      -272.9618
   5   2.0000     -10.029755      -272.9235
   6   2.0000     -10.028631      -272.8929
   7   2.0000     -10.023280      -272.7473
   8   2.0000     -10.018721      -272.6233
   9   2.0000      -1.029273       -28.0080
  10   2.0000      -0.822505       -22.3815
  11   2.0000      -0.755384       -20.5550
  12   2.0000      -0.706216       -19.2171
  13   2.0000      -0.691205       -18.8086
  14   2.0000      -0.610608       -16.6155
  15   2.0000      -0.583156       -15.8685
  16   2.0000      -0.542802       -14.7704
  17   2.0000      -0.512058       -13.9338
  18   2.0000      -0.460036       -12.5182
  19   2.0000      -0.433275       -11.7900
  20   2.0000      -0.422118       -11.4864
  21   2.0000      -0.403656       -10.9840
  22   2.0000      -0.399454       -10.8697
  23   2.0000      -0.376242       -10.2381
  24   2.0000      -0.360287        -9.8039
  25   2.0000      -0.345336        -9.3971
  26   2.0000      -0.338504        -9.2112
  27   2.0000      -0.318580        -8.6690
  28   2.0000      -0.309468        -8.4211
  29   2.0000      -0.308176        -8.3859
  30   2.0000      -0.295979        -8.0540
  31   2.0000      -0.228864        -6.2277
  32   2.0000      -0.200541        -5.4570
  33   0.0000      -0.025407        -0.6914
  34   0.0000      -0.013386        -0.3643
  35   0.0000       0.056675         1.5422
  36   0.0000       0.089225         2.4279
  37   0.0000       0.095807         2.6071

MULLIKEN ATOMIC CHARGES
-----------------------
   0 C :   -0.506123
   1 C :   -0.294535
   2 C :   -0.031203
   3 C :   -0.161203
   4 C :   -0.208841
   5 C :   -0.132728
   6 C :   -0.343843
   7 C :    0.414797
   8 O :   -0.407058
   9 H :    0.155227
  10 H :    0.155225
  11 H :    0.149944
  12 H :    0.167446
  13 H :    0.167398
  14 H :    0.145423
  15 H :    0.143840
  16 H :    0.145794
  17 H :    0.132444
  18 H :    0.307995
Sum of atomic charges:   -0.0000000

LOEWDIN ATOMIC CHARGES
----------------------
   0 C :   -0.419657
   1 C :   -0.271433
   2 C :   -0.069522
   3 C :   -0.154828
   4 C :   -0.187276
   5 C :   -0.162181
   6 C :   -0.172179
   7 C :    0.187874
   8 O :   -0.508335
   9 H :    0.153062
  10 H :    0.153063
  11 H :    0.153600
  12 H :    0.172186
  13 H :    0.172182
  14 H :    0.171836
  15 H :    0.165837
  16 H :    0.167117
  17 H :    0.167250
  18 H :    0.281404

  Mayer bond orders larger than 0.100000
B(  0-C ,  1-C ) :   0.8348 B(  0-C ,  9-H ) :   0.9832 B(  0-C , 10-H ) :   0.9833
B(  0-C , 11-H ) :   0.9716 B(  1-C ,  2-C ) :   0.8764 B(  1-C , 12-H ) :   0.9818
B(  1-C , 13-H ) :   0.9818 B(  2-C ,  3-C ) :   1.4431 B(  2-C ,  7-C ) :   1.4904
B(  3-C ,  4-C ) :   1.3989 B(  3-C , 14-H ) :   0.9417 B(  4-C ,  5-C ) :   1.4396
B(  4-C , 15-H ) :   0.9453 B(  5-C ,  6-C ) :   1.3853 B(  5-C , 16-H ) :   0.9419
B(  6-C ,  7-C ) :   1.2969 B(  6-C , 17-H ) :   0.9528 B(  7-C ,  8-O ) :   0.9410
B(  8-O , 18-H ) :   0.8852

Dispersion correction           -0.006161472
FINAL SINGLE POINT ENERGY      -386.001255275865

DIPOLE MOMENT
-------------

Method             : SCF
Type of density    : Electron Density
Multiplicity       :   1
Irrep              :   0
Energy             :  -386.0020188781717252 Eh
Relativity type    :
Basis              : AO
                                X                 Y                 Z
Electronic contribution:      5.214108021       4.358133529       0.346403337
Nuclear contribution   :     -5.033785659      -4.021242461      -0.316936842
                        -----------------------------------------
Total Dipole Moment    :      0.180322362       0.336891068       0.029466495
                        -----------------------------------------
Magnitude (a.u.)       :      0.383249292
Magnitude (Debye)      :      0.974142285

Rotational constants in cm-1:             0.084049             0.049477             0.031507
Rotational constants in MHz :          2519.715814          1483.292308           944.566793

                             ****ORCA TERMINATED NORMALLY****
TOTAL RUN TIME: 0 days 0 hours 0 minutes 25 seconds 105 msec
