                         Program Version 6.0.1  -  RELEASE   -
|  1> ! r2scan-3c def2/J RI DEFGRID2 scfconv6 printgap
|  2> %output
|  3>     printlevel normal
|  4> end
|  5> * xyz 0 1
|  6> C -2.3723952758 -1.1979738203 -0.2591778999
|  7> C -1.0557167921 -0.6200494489 0.269665786
|  8> H -1.1054279718 -0.5525032239 1.3695738253
|  9> C -0.7742272109 0.781795938 -0.2893470928
| 10> H -0.7762381766 0.730200127 -1.3914905127
| 11> C 0.6128881238 1.2316965934 0.1807019131
| 12> H 0.5834725264 1.3358785949 1.2789458036
| 13> C 1.6859504597 0.1999718837 -0.1821470407
| 14> H 1.8050013289 0.1703461191 -1.2751699271
| 15> C 1.2602541544 -1.19696865 0.288344272
| 16> H 1.310820224 -1.2178471061 1.397313534
| 17> O -0.0531316705 -1.52642702 -0.1251692658
| 18> O 2.1034553184 -2.1282231631 -0.2765027883
| 19> O 2.8969048134 0.5174750105 0.4448575837
| 20> O 0.9792804523 2.4585593542 -0.401966506
| 21> O -1.6971071646 1.7444160782 0.1573949937
| 22> O -3.4477186051 -0.4019516184 0.1942986383
| 23> H -2.4623423294 -2.2285941279 0.1031602987
| 24> H -2.3313015302 -1.2161817364 -1.3557370135
| 25> H 1.747980109 -3.0087388255 -0.1049660089
| 26> H 3.1090256742 1.4273744734 0.1996170757
| 27> H 0.219936284 3.0480661843 -0.3145718764
| 28> H -2.5681778177 1.3242903825 0.2060658922
| 29> H -4.2757060472 -0.7985326541 -0.0960474046
| 30> *
| 31>
| 32>                          ****END OF INPUT****

CARTESIAN COORDINATES (ANGSTROEM)
---------------------------------
  C     -2.372395   -1.197974   -0.259178
  C     -1.055717   -0.620049    0.269666
  H     -1.105428   -0.552503    1.369574
  C     -0.774227    0.781796   -0.289347
  H     -0.776238    0.730200   -1.391491
  C      0.612888    1.231697    0.180702
  H      0.583473    1.335879    1.278946
  C      1.685950    0.199972   -0.182147
  H      1.805001    0.170346   -1.275170
  C      1.260254   -1.196969    0.288344
  H      1.310820   -1.217847    1.397314
  O     -0.053132   -1.526427   -0.125169
  O      2.103455   -2.128223   -0.276503
  O      2.896905    0.517475    0.444858
  O      0.979280    2.458559   -0.401967
  O     -1.697107    1.744416    0.157395
  O     -3.447719   -0.401952    0.194299
  H     -2.462342   -2.228594    0.103160
  H     -2.331302   -1.216182   -1.355737
  H      1.747980   -3.008739   -0.104966
  H      3.109026    1.427374    0.199617
  H      0.219936    3.048066   -0.314572
  H     -2.568178    1.324290    0.206066
  H     -4.275706   -0.798533   -0.096047

 Total Charge           Charge          ....    0
 Multiplicity           Mult            ....    1
 Number of Electrons    NEL             ....   96
 Basis Dimension        Dim             ....  318

ORBITAL ENERGIES
----------------

  NO   OCC          E(Eh)            E(eV)
   0   2.0000     -18.988066      -516.6915
   1   2.0000     -18.975866      -516.3596
   2   2.0000     -18.963002      -516.0095
   3   2.0000     -18.956419      -515.8304
   4   2.0000     -18.953505      -515.7511
   5   2.0000     -18.949084      -515.6308
   6   2.0000     -10.139760      -275.9169
   7   2.0000     -10.102421      -274.9008
   8   2.0000     -10.101629      -274.8793
   9   2.0000     -10.089036      -274.5366
  10   2.0000     -10.085286      -274.4346
  11   2.0000     -10.084345      -274.4090
  12   2.0000      -1.054052       -28.6822
  13   2.0000      -1.026193       -27.9241
  14   2.0000      -1.010517       -27.4976
  15   2.0000      -0.995901       -27.0998
  16   2.0000      -0.983584       -26.7647
  17   2.0000      -0.979796       -26.6616
  18   2.0000      -0.753315       -20.4988
  19   2.0000      -0.741914       -20.1885
  20   2.0000      -0.667389       -18.1606
  21   2.0000      -0.611669       -16.6444
  22   2.0000      -0.594789       -16.1850
  23   2.0000      -0.556711       -15.1489
  24   2.0000      -0.533864       -14.5272
  25   2.0000      -0.514187       -13.9917
  26   2.0000      -0.498837       -13.5741
  27   2.0000      -0.484633       -13.1875
  28   2.0000      -0.482359       -13.1257
  29   2.0000      -0.462318       -12.5803
  30   2.0000      -0.434488       -11.8230
  31   2.0000      -0.425921       -11.5899
  32   2.0000      -0.413627       -11.2554
  33   2.0000      -0.405307       -11.0290
  34   2.0000      -0.378506       -10.2997
  35   2.0000      -0.373863       -10.1733
  36   2.0000      -0.363425        -9.8893
  37   2.0000      -0.348852        -9.4927
  38   2.0000      -0.331527        -9.0213
  39   2.0000      -0.328499        -8.9389
  40   2.0000      -0.303390        -8.2557
  41   2.0000      -0.294140        -8.0040
  42   2.0000      -0.273057        -7.4302
  43   2.0000      -0.270547        -7.3620
  44   2.0000      -0.256264        -6.9733
  45   2.0000      -0.244976        -6.6661
  46   2.0000      -0.233711        -6.3596
  47   2.0000      -0.230501        -6.2722
  48   0.0000       0.015545         0.4230
  49   0.0000       0.052654         1.4328
  50   0.0000       0.063672         1.7326
  51   0.0000       0.086635         2.3575
  52   0.0000       0.092390         2.5141

MULLIKEN ATOMIC CHARGES
-----------------------
   0 C :   -0.198643
   1 C :   -0.109310
   2 H :    0.182030
   3 C :    0.016969
   4 H :    0.170722
   5 C :   -0.017144
   6 H :    0.171486
   7 C :    0.038106
   8 H :    0.172492
   9 C :   -0.091673
  10 H :    0.144645
  11 O :   -0.197349
  12 O :   -0.372146
  13 O :   -0.423947
  14 O :   -0.449680
  15 O :   -0.441551
  16 O :   -0.429747
  17 H :    0.139167
  18 H :    0.138627
  19 H :    0.305819
  20 H :    0.314183
  21 H :    0.316763
  22 H :    0.313495
  23 H :    0.306684
Sum of atomic charges:   -0.0000000

LOEWDIN ATOMIC CHARGES
----------------------
   0 C :    0.057347
   1 C :    0.122731
   2 H :    0.185901
   3 C :    0.104390
   4 H :    0.181535
   5 C :    0.107376
   6 H :    0.186162
   7 C :    0.126246
   8 H :    0.190929
   9 C :    0.310932
  10 H :    0.182044
  11 O :   -0.687964
  12 O :   -0.477396
  13 O :   -0.553822
  14 O :   -0.572638
  15 O :   -0.587377
  16 O :   -0.624028
  17 H :    0.172815
  18 H :    0.170729
  19 H :    0.280211
  20 H :    0.281554
  21 H :    0.283117
  22 H :    0.285061
  23 H :    0.274143

  Mayer bond orders larger than 0.100000
B(  0-C ,  1-C ) :   0.9766 B(  0-C , 16-O ) :   0.9696 B(  0-C , 17-H ) :   0.9571
B(  0-C , 18-H ) :   0.9705 B(  1-C ,  2-H ) :   0.9498 B(  1-C ,  3-C ) :   0.8176
B(  1-C , 11-O ) :   0.8145 B(  3-C ,  4-H ) :   0.9591 B(  3-C ,  5-C ) :   0.8551
B(  3-C , 15-O ) :   0.8580 B(  5-C ,  6-H ) :   0.9878 B(  5-C ,  7-C ) :   0.8554
B(  5-C , 14-O ) :   0.9012 B(  7-C ,  8-H ) :   0.9690 B(  7-C ,  9-C ) :   0.8805
B(  7-C , 13-O ) :   0.8993 B(  9-C , 10-H ) :   1.0063 B(  9-C , 11-O ) :   0.8973
B(  9-C , 12-O ) :   1.0816 B( 12-O , 19-H ) :   0.8811 B( 13-O , 20-H ) :   0.8797
B( 14-O , 21-H ) :   0.8749 B( 15-O , 22-H ) :   0.8450 B( 16-O , 23-H ) :   0.8929

Dispersion correction           -0.007966747
FINAL SINGLE POINT ENERGY      -687.074527838278

DIPOLE MOMENT
-------------

Method             : SCF
Type of density    : Electron Density
Multiplicity       :   1
Irrep              :   0
Energy             :  -687.0866480773718195 Eh
Relativity type    :
Basis              : AO
                                X                 Y                 Z
Electronic contribution:      2.765608660       0.234413571      -0.058271149
Nuclear contribution   :     -4.438120972      -0.915427999       0.015556522
                        -----------------------------------------
Total Dipole Moment    :     -1.672512311      -0.681014428      -0.042714627
                        -----------------------------------------
Magnitude (a.u.)       :      1.806350636
Magnitude (Debye)      :      4.591378435

Rotational constants in cm-1:             0.043841             0.024672             0.016526
Rotational constants in MHz :          1314.306986           739.634655           495.429560

                             ****ORCA TERMINATED NORMALLY****
TOTAL RUN TIME: 0 days 0 hours 0 minutes 36 seconds 862 msec
