                         Program Version 6.0.1  -  RELEASE   -
|  1> ! pbe def2-sv(p) def2/J RI DEFGRID1 loosescf d4 GCP(DFT/SV(P)) printgap
|  2> %output
|  3>     printlevel normal
|  4> end
|  5> * xyz 0 1
|  6> C -2.9806952261 -0.4985965354 -0.7513344323
|  7> C -2.2857476589 0.4279925844 0.2457827725
|  8> H -3.0610867788 0.9025277896 0.8568241341
|  9> C -1.4730115205 1.5207443674 -0.4802574848
| 10> C 0.0244715501 1.4401351181 -0.1865042836
| 11> C 0.5347604505 0.0217306456 -0.4223564886
| 12> H 0.2792515924 -0.2657260003 -1.451501669
| 13> C -0.1978681749 -0.967468644 0.466754999
| 14> O 0.1480942465 -2.1172039459 0.5863849202
| 15> C -1.396981067 -0.3981389133 1.1834046051
| 16> C 2.0591544886 -0.1679516524 -0.2744867595
| 17> C 2.8272177177 0.510723964 -1.4052257445
| 18> C 2.5669082661 0.3142614126 1.0824532326
| 19> H -3.5851916034 -1.2370713808 -0.2291955708
| 20> H -3.6328384305 0.0706400948 -1.4104127273
| 21> H -2.249351506 -1.0284204102 -1.3577943992
| 22> H -1.6223557595 1.4205315671 -1.5571865902
| 23> H -1.8365925713 2.5098352742 -0.195933895
| 24> H 0.5513243329 2.1380031643 -0.8389536952
| 25> H 0.2160201161 1.7417360079 0.8435799754
| 26> H -1.9671674151 -1.2143598601 1.6303769264
| 27> H -1.0254389187 0.2338752018 1.9939624485
| 28> H 2.2359523166 -1.2475945709 -0.3366607279
| 29> H 2.7128921504 1.5915572052 -1.3617763834
| 30> H 2.4775455022 0.1638363625 -2.37513369
| 31> H 3.8871675986 0.2815305484 -1.3237189796
| 32> H 3.6129394194 0.0418400899 1.2031093007
| 33> H 2.001802916 -0.1478736007 1.8889548931
| 34> H 2.4890190006 1.3956304749 1.1693796709
| 35> *
| 36>
| 37>                          ****END OF INPUT****

CARTESIAN COORDINATES (ANGSTROEM)
---------------------------------
  C     -2.980695   -0.498597   -0.751334
  C     -2.285748    0.427993    0.245783
  H     -3.061087    0.902528    0.856824
  C     -1.473012    1.520744   -0.480257
  C      0.024472    1.440135   -0.186504
  C      0.534760    0.021731   -0.422356
  H      0.279252   -0.265726   -1.451502
  C     -0.197868   -0.967469    0.466755
  O      0.148094   -2.117204    0.586385
  C     -1.396981   -0.398139    1.183405
  C      2.059154   -0.167952   -0.274487
  C      2.827218    0.510724   -1.405226
  C      2.566908    0.314261    1.082453
  H     -3.585192   -1.237071   -0.229196
  H     -3.632838    0.070640   -1.410413
  H     -2.249352   -1.028420   -1.357794
  H     -1.622356    1.420532   -1.557187
  H     -1.836593    2.509835   -0.195934
  H      0.551324    2.138003   -0.838954
  H      0.216020    1.741736    0.843580
  H     -1.967167   -1.214360    1.630377
  H     -1.025439    0.233875    1.993962
  H      2.235952   -1.247595   -0.336661
  H      2.712892    1.591557   -1.361776
  H      2.477546    0.163836   -2.375134
  H      3.887168    0.281531   -1.323719
  H      3.612939    0.041840    1.203109
  H      2.001803   -0.147874    1.888955
  H      2.489019    1.395630    1.169380

 Total Charge           Charge          ....    0
 Multiplicity           Mult            ....    1
 Number of Electrons    NEL             ....   86
 Basis Dimension        Dim             ....  190

ORBITAL ENERGIES
----------------

  NO   OCC          E(Eh)            E(eV)
   0   2.0000     -18.739044      -509.9153
   1   2.0000      -9.967772      -271.2369
   2   2.0000      -9.905103      -269.5316
   3   2.0000      -9.897355      -269.3207
   4   2.0000      -9.895397      -269.2675
   5   2.0000      -9.891523      -269.1620
   6   2.0000      -9.890797      -269.1423
   7   2.0000      -9.890540      -269.1353
   8   2.0000      -9.880986      -268.8753
   9   2.0000      -9.875637      -268.7297
  10   2.0000      -9.875259      -268.7195
  11   2.0000      -0.938568       -25.5397
  12   2.0000      -0.768583       -20.9142
  13   2.0000      -0.729343       -19.8464
  14   2.0000      -0.676499       -18.4085
  15   2.0000      -0.652005       -17.7420
  16   2.0000      -0.616346       -16.7716
  17   2.0000      -0.612785       -16.6747
  18   2.0000      -0.560065       -15.2402
  19   2.0000      -0.519757       -14.1433
  20   2.0000      -0.499160       -13.5828
  21   2.0000      -0.460346       -12.5267
  22   2.0000      -0.438135       -11.9223
  23   2.0000      -0.424021       -11.5382
  24   2.0000      -0.416912       -11.3447
  25   2.0000      -0.394381       -10.7316
  26   2.0000      -0.391417       -10.6510
  27   2.0000      -0.383205       -10.4275
  28   2.0000      -0.370216       -10.0741
  29   2.0000      -0.357784        -9.7358
  30   2.0000      -0.351697        -9.5702
  31   2.0000      -0.347035        -9.4433
  32   2.0000      -0.338773        -9.2185
  33   2.0000      -0.332654        -9.0520
  34   2.0000      -0.319370        -8.6905
  35   2.0000      -0.313084        -8.5195
  36   2.0000      -0.301691        -8.2094
  37   2.0000      -0.295371        -8.0375
  38   2.0000      -0.290458        -7.9038
  39   2.0000      -0.281279        -7.6540
  40   2.0000      -0.272971        -7.4279
  41   2.0000      -0.266732        -7.2582
  42   2.0000      -0.190593        -5.1863
  43   0.0000      -0.050351        -1.3701
  44   0.0000       0.022495         0.6121
  45   0.0000       0.044746         1.2176
  46   0.0000       0.047029         1.2797
  47   0.0000       0.062754         1.7076

MULLIKEN ATOMIC CHARGES
-----------------------
   0 C :   -0.259195
   1 C :   -0.203894
   2 H :    0.072139
   3 C :   -0.086504
   4 C :   -0.119528
   5 C :   -0.173871
   6 H :    0.087379
   7 C :   -0.020414
   8 O :   -0.154943
   9 C :   -0.033378
  10 C :   -0.127603
  11 C :   -0.235196
  12 C :   -0.266821
  13 H :    0.103118
  14 H :    0.107336
  15 H :    0.114795
  16 H :    0.072974
  17 H :    0.081266
  18 H :    0.088983
  19 H :    0.081601
  20 H :    0.084688
  21 H :    0.096419
  22 H :    0.086424
  23 H :    0.096907
  24 H :    0.095076
  25 H :    0.099971
  26 H :    0.102621
  27 H :    0.108908
  28 H :    0.100745
Sum of atomic charges:    0.0000000

LOEWDIN ATOMIC CHARGES
----------------------
   0 C :   -0.330222
   1 C :   -0.148106
   2 H :    0.120090
   3 C :   -0.216103
   4 C :   -0.219897
   5 C :   -0.163939
   6 H :    0.137929
   7 C :    0.050808
   8 O :   -0.120552
   9 C :   -0.238479
  10 C :   -0.143937
  11 C :   -0.328871
  12 C :   -0.330535
  13 H :    0.120307
  14 H :    0.119718
  15 H :    0.118648
  16 H :    0.117274
  17 H :    0.120494
  18 H :    0.121228
  19 H :    0.117773
  20 H :    0.128359
  21 H :    0.138276
  22 H :    0.123194
  23 H :    0.113634
  24 H :    0.116643
  25 H :    0.120284
  26 H :    0.121872
  27 H :    0.118975
  28 H :    0.115134

  Mayer bond orders larger than 0.100000
B(  0-C ,  1-C ) :   1.1056 B(  0-C , 13-H ) :   0.9471 B(  0-C , 14-H ) :   0.9469
B(  0-C , 15-H ) :   0.9441 B(  1-C ,  2-H ) :   0.8931 B(  1-C ,  3-C ) :   1.0535
B(  1-C ,  9-C ) :   1.1127 B(  3-C ,  4-C ) :   1.1864 B(  3-C , 16-H ) :   0.9138
B(  3-C , 17-H ) :   0.9086 B(  4-C ,  5-C ) :   1.1045 B(  4-C , 18-H ) :   0.9055
B(  4-C , 19-H ) :   0.8746 B(  5-C ,  6-H ) :   0.8508 B(  5-C ,  7-C ) :   0.9109
B(  5-C , 10-C ) :   1.0483 B(  7-C ,  8-O ) :   2.1811 B(  7-C ,  9-C ) :   1.0630
B(  9-C , 20-H ) :   0.8926 B(  9-C , 21-H ) :   0.8596 B( 10-C , 11-C ) :   1.1189
B( 10-C , 12-C ) :   1.1113 B( 10-C , 22-H ) :   0.8844 B( 11-C , 23-H ) :   0.9410
B( 11-C , 24-H ) :   0.9485 B( 11-C , 25-H ) :   0.9489 B( 12-C , 26-H ) :   0.9483
B( 12-C , 27-H ) :   0.9467 B( 12-C , 28-H ) :   0.9401

Dispersion correction           -0.030569989
FINAL SINGLE POINT ENERGY      -466.030492304054

DIPOLE MOMENT
-------------

Method             : SCF
Type of density    : Electron Density
Multiplicity       :   1
Irrep              :   0
Energy             :  -466.1264927630625152 Eh
Relativity type    :
Basis              : AO
                                X                 Y                 Z
Electronic contribution:     -1.682361622      -5.901838090       2.536759447
Nuclear contribution   :      1.394332884       6.864578535      -2.667025938
                        -----------------------------------------
Total Dipole Moment    :     -0.288028737       0.962740446      -0.130266491
                        -----------------------------------------
Magnitude (a.u.)       :      1.013310948
Magnitude (Debye)      :      2.575631742

Rotational constants in cm-1:             0.059510             0.026045             0.022296
Rotational constants in MHz :          1784.062089           780.821768           668.407290

                             ****ORCA TERMINATED NORMALLY****
TOTAL RUN TIME: 0 days 0 hours 0 minutes 19 seconds 241 msec
