                         Program Version 6.0.1  -  RELEASE   -
|  1> ! pbe def2-sv(p) def2/J RI DEFGRID1 loosescf d4 GCP(DFT/SV(P)) printgap
|  2> %output
|  3>     printlevel normal
|  4> end
|  5> * xyz 0 1
|  6> C -2.1681242606 -0.0693096655 0.0090665242
|  7> O -0.9948726287 0.1742305022 0.7538836359
|  8> S 0.4015755259 0.1065568765 -0.0426246274
|  9> O 1.3540509035 0.8174395789 0.7382564776
| 10> O 0.1833980641 0.4857221789 -1.405090257
| 11> C 0.7796715071 -1.6546547558 0.0239722451
| 12> H -2.9536607859 0.5731144025 0.4061137039
| 13> H -2.4668037107 -1.1164539959 0.1080918497
| 14> H -1.9852335618 0.1711687377 -1.0400982162
| 15> H 0.0369539751 -2.1829670886 -0.5573013408
| 16> H 1.7648458968 -1.7921840623 -0.3999123646
| 17> H 0.7634366174 -1.9499957029 1.0633935214
| 18> *
| 19>
| 20>                          ****END OF INPUT****

CARTESIAN COORDINATES (ANGSTROEM)
---------------------------------
  C     -2.168124   -0.069310    0.009067
  O     -0.994873    0.174231    0.753884
  S      0.401576    0.106557   -0.042625
  O      1.354051    0.817440    0.738256
  O      0.183398    0.485722   -1.405090
  C      0.779672   -1.654655    0.023972
  H     -2.953661    0.573114    0.406114
  H     -2.466804   -1.116454    0.108092
  H     -1.985234    0.171169   -1.040098
  H      0.036954   -2.182967   -0.557301
  H      1.764846   -1.792184   -0.399912
  H      0.763437   -1.949996    1.063394

 Total Charge           Charge          ....    0
 Multiplicity           Mult            ....    1
 Number of Electrons    NEL             ....   58
 Basis Dimension        Dim             ....  100

ORBITAL ENERGIES
----------------

  NO   OCC          E(Eh)            E(eV)
   0   2.0000     -88.255358     -2401.5504
   1   2.0000     -18.808347      -511.8011
   2   2.0000     -18.750239      -510.2199
   3   2.0000     -18.747331      -510.1408
   4   2.0000      -9.952222      -270.8137
   5   2.0000      -9.928024      -270.1553
   6   2.0000      -7.869445      -214.1385
   7   2.0000      -5.897925      -160.4907
   8   2.0000      -5.894832      -160.4065
   9   2.0000      -5.893570      -160.3722
  10   2.0000      -1.062507       -28.9123
  11   2.0000      -0.957530       -26.0557
  12   2.0000      -0.923068       -25.1180
  13   2.0000      -0.711630       -19.3644
  14   2.0000      -0.663256       -18.0481
  15   2.0000      -0.545243       -14.8368
  16   2.0000      -0.492112       -13.3911
  17   2.0000      -0.451501       -12.2860
  18   2.0000      -0.446561       -12.1515
  19   2.0000      -0.421903       -11.4806
  20   2.0000      -0.411531       -11.1983
  21   2.0000      -0.404485       -11.0066
  22   2.0000      -0.380765       -10.3611
  23   2.0000      -0.334879        -9.1125
  24   2.0000      -0.307983        -8.3807
  25   2.0000      -0.277858        -7.5609
  26   2.0000      -0.275246        -7.4898
  27   2.0000      -0.274092        -7.4584
  28   2.0000      -0.259193        -7.0530
  29   0.0000       0.020858         0.5676
  30   0.0000       0.027478         0.7477
  31   0.0000       0.052981         1.4417
  32   0.0000       0.065526         1.7831
  33   0.0000       0.067344         1.8325

MULLIKEN ATOMIC CHARGES
-----------------------
   0 C :   -0.141975
   1 O :   -0.385049
   2 S :    0.759037
   3 O :   -0.373021
   4 O :   -0.393962
   5 C :   -0.321671
   6 H :    0.135327
   7 H :    0.112200
   8 H :    0.143244
   9 H :    0.142510
  10 H :    0.166871
  11 H :    0.156489
Sum of atomic charges:   -0.0000000

LOEWDIN ATOMIC CHARGES
----------------------
   0 C :   -0.237630
   1 O :   -0.285640
   2 S :    1.105417
   3 O :   -0.439576
   4 O :   -0.454384
   5 C :   -0.474101
   6 H :    0.126947
   7 H :    0.107709
   8 H :    0.119355
   9 H :    0.138221
  10 H :    0.149094
  11 H :    0.144590

  Mayer bond orders larger than 0.100000
B(  0-C ,  1-O ) :   0.9360 B(  0-C ,  6-H ) :   0.9555 B(  0-C ,  7-H ) :   0.9508
B(  0-C ,  8-H ) :   0.9282 B(  1-O ,  2-S ) :   0.9419 B(  2-S ,  3-O ) :   1.8259
B(  2-S ,  4-O ) :   1.7471 B(  2-S ,  5-C ) :   0.9185 B(  5-C ,  9-H ) :   0.9288
B(  5-C , 10-H ) :   0.9317 B(  5-C , 11-H ) :   0.9288

Dispersion correction           -0.010199358
FINAL SINGLE POINT ENERGY      -702.676775675117

DIPOLE MOMENT
-------------

Method             : SCF
Type of density    : Electron Density
Multiplicity       :   1
Irrep              :   0
Energy             :  -702.7270102404582985 Eh
Relativity type    :
Basis              : AO
                                X                 Y                 Z
Electronic contribution:      3.731895166       4.543366286       0.404522823
Nuclear contribution   :     -4.544771948      -5.889167545      -0.391239401
                        -----------------------------------------
Total Dipole Moment    :     -0.812876781      -1.345801259       0.013283422
                        -----------------------------------------
Magnitude (a.u.)       :      1.572299634
Magnitude (Debye)      :      3.996468065

Rotational constants in cm-1:             0.147749             0.088904             0.084705
Rotational constants in MHz :          4429.411131          2665.278783          2539.385630

                             ****ORCA TERMINATED NORMALLY****
TOTAL RUN TIME: 0 days 0 hours 0 minutes 5 seconds 78 msec
