                         Program Version 6.0.1  -  RELEASE   -
|  1> ! pbe def2-sv(p) def2/J RI DEFGRID1 loosescf d4 GCP(DFT/SV(P)) printgap
|  2> %output
|  3>     printlevel normal
|  4> end
|  5> * xyz 0 1
|  6> C 1.5933695135 -0.5136659761 0.1363954076
|  7> C 0.6045808344 0.5756973427 -0.3120583343
|  8> O -0.6476737783 0.504480713 0.3341260302
|  9> C -1.4851416827 -0.5158989189 -0.1448618232
| 10> H 2.4224486843 -0.0818326549 0.6888319193
| 11> H 1.0893215031 -1.2178149636 0.7938490379
| 12> H 1.9925054998 -1.0612382848 -0.7130904056
| 13> H 0.4555906139 0.5319354191 -1.4011256541
| 14> H 0.9892049732 1.5666651329 -0.0603043177
| 15> H -1.6794182139 -0.3947209394 -1.2186436991
| 16> H -2.421035672 -0.4292633157 0.4036996774
| 17> H -1.061885599 -1.5131802873 0.0225159183
| 18> *
| 19>
| 20>                          ****END OF INPUT****

CARTESIAN COORDINATES (ANGSTROEM)
---------------------------------
  C      1.593370   -0.513666    0.136395
  C      0.604581    0.575697   -0.312058
  O     -0.647674    0.504481    0.334126
  C     -1.485142   -0.515899   -0.144862
  H      2.422449   -0.081833    0.688832
  H      1.089322   -1.217815    0.793849
  H      1.992505   -1.061238   -0.713090
  H      0.455591    0.531935   -1.401126
  H      0.989205    1.566665   -0.060304
  H     -1.679418   -0.394721   -1.218644
  H     -2.421036   -0.429263    0.403700
  H     -1.061886   -1.513180    0.022516

 Total Charge           Charge          ....    0
 Multiplicity           Mult            ....    1
 Number of Electrons    NEL             ....   34
 Basis Dimension        Dim             ....   72

ORBITAL ENERGIES
----------------

  NO   OCC          E(Eh)            E(eV)
   0   2.0000     -18.746817      -510.1268
   1   2.0000      -9.928185      -270.1597
   2   2.0000      -9.921133      -269.9677
   3   2.0000      -9.875381      -268.7228
   4   2.0000      -0.929900       -25.3039
   5   2.0000      -0.677838       -18.4449
   6   2.0000      -0.612358       -16.6631
   7   2.0000      -0.531313       -14.4578
   8   2.0000      -0.436071       -11.8661
   9   2.0000      -0.429089       -11.6761
  10   2.0000      -0.399828       -10.8799
  11   2.0000      -0.362601        -9.8669
  12   2.0000      -0.348666        -9.4877
  13   2.0000      -0.330628        -8.9969
  14   2.0000      -0.306866        -8.3502
  15   2.0000      -0.255561        -6.9542
  16   2.0000      -0.201382        -5.4799
  17   0.0000       0.038948         1.0598
  18   0.0000       0.068884         1.8744
  19   0.0000       0.072179         1.9641
  20   0.0000       0.083191         2.2638
  21   0.0000       0.110798         3.0150

MULLIKEN ATOMIC CHARGES
-----------------------
   0 C :   -0.315176
   1 C :   -0.007002
   2 O :   -0.336856
   3 C :   -0.112478
   4 H :    0.108315
   5 H :    0.117557
   6 H :    0.103025
   7 H :    0.068267
   8 H :    0.093801
   9 H :    0.081449
  10 H :    0.114412
  11 H :    0.084687
Sum of atomic charges:   -0.0000000

LOEWDIN ATOMIC CHARGES
----------------------
   0 C :   -0.371628
   1 C :   -0.118819
   2 O :   -0.178700
   3 C :   -0.211234
   4 H :    0.124657
   5 H :    0.128734
   6 H :    0.121163
   7 H :    0.092966
   8 H :    0.111629
   9 H :    0.094112
  10 H :    0.115068
  11 H :    0.092052

  Mayer bond orders larger than 0.100000
B(  0-C ,  1-C ) :   1.1054 B(  0-C ,  4-H ) :   0.9568 B(  0-C ,  5-H ) :   0.9524
B(  0-C ,  6-H ) :   0.9540 B(  1-C ,  2-O ) :   1.0410 B(  1-C ,  7-H ) :   0.9306
B(  1-C ,  8-H ) :   0.9472 B(  2-O ,  3-C ) :   1.0327 B(  3-C ,  9-H ) :   0.9396
B(  3-C , 10-H ) :   0.9648 B(  3-C , 11-H ) :   0.9362

Dispersion correction           -0.006343477
FINAL SINGLE POINT ENERGY      -193.865696717582

DIPOLE MOMENT
-------------

Method             : SCF
Type of density    : Electron Density
Multiplicity       :   1
Irrep              :   0
Energy             :  -193.9143157620515865 Eh
Relativity type    :
Basis              : AO
                                X                 Y                 Z
Electronic contribution:     -1.519083243       2.123131295       1.088282630
Nuclear contribution   :      1.666636209      -2.431223890      -1.387527999
                        -----------------------------------------
Total Dipole Moment    :      0.147552966      -0.308092595      -0.299245368
                        -----------------------------------------
Magnitude (a.u.)       :      0.454137331
Magnitude (Debye)      :      1.154325359

Rotational constants in cm-1:             0.541077             0.170310             0.149494
Rotational constants in MHz :         16221.086893          5105.768376          4481.724218

                             ****ORCA TERMINATED NORMALLY****
TOTAL RUN TIME: 0 days 0 hours 0 minutes 11 seconds 526 msec
