                         Program Version 6.0.0  -   RELEASE  -
|  1> ! r2SCAN-3c DEF2-TZVP FREQ
|  2> * xyzfile 0 1 censo.xyz
|  3>
|  4>                          ****END OF INPUT****

CARTESIAN COORDINATES (ANGSTROEM)
---------------------------------
  C      1.233582   -0.010531   -0.000002
  S     -0.605541    0.046622    0.000001
  H      1.577000    1.026276   -0.000032
  H      1.606377   -0.509744   -0.896153
  H      1.606382   -0.509694    0.896176
  H     -0.809466   -1.283825    0.000020

 Total Charge           Charge          ....    0
 Multiplicity           Mult            ....    1
 Number of Electrons    NEL             ....   26
 Basis Dimension        Dim             ....   92

ORBITAL ENERGIES
----------------

  NO   OCC          E(Eh)            E(eV)
   0   2.0000     -88.528473     -2408.9822
   1   2.0000     -10.064147      -273.8594
   2   2.0000      -7.842259      -213.3987
   3   2.0000      -5.787905      -157.4969
   4   2.0000      -5.784152      -157.3948
   5   2.0000      -5.779020      -157.2551
   6   2.0000      -0.740458       -20.1489
   7   2.0000      -0.612075       -16.6554
   8   2.0000      -0.419196       -11.4069
   9   2.0000      -0.398975       -10.8567
  10   2.0000      -0.365119        -9.9354
  11   2.0000      -0.307456        -8.3663
  12   2.0000      -0.212276        -5.7763
  13   0.0000      -0.002055        -0.0559
  14   0.0000       0.033888         0.9221
  15   0.0000       0.083896         2.2829
  16   0.0000       0.109233         2.9724
  17   0.0000       0.112022         3.0483

MULLIKEN ATOMIC CHARGES
-----------------------
   0 C :   -0.286009
   1 S :   -0.229150
   2 H :    0.127334
   3 H :    0.126281
   4 H :    0.126281
   5 H :    0.135263
Sum of atomic charges:    0.0000000

LOEWDIN ATOMIC CHARGES
----------------------
   0 C :   -0.526432
   1 S :    0.173488
   2 H :    0.112159
   3 H :    0.103329
   4 H :    0.103329
   5 H :    0.034127

  Mayer bond orders larger than 0.100000
B(  0-C ,  1-S ) :   1.0403 B(  0-C ,  2-H ) :   0.9620 B(  0-C ,  3-H ) :   0.9639
B(  0-C ,  4-H ) :   0.9639 B(  1-S ,  5-H ) :   0.9677

Dispersion correction           -0.000780126
FINAL SINGLE POINT ENERGY      -438.665619321376

DIPOLE MOMENT
-------------

Method             : SCF
Type of density    : Electron Density
Multiplicity       :   1
Irrep              :   0
Energy             :  -438.6714015902951473 Eh
Relativity type    :
Basis              : AO
                                X                 Y                 Z
Electronic contribution:     -3.233891605       0.882496796      -0.000004901
Nuclear contribution   :      3.797029550      -1.205660496       0.000007616
                        -----------------------------------------
Total Dipole Moment    :      0.563137945      -0.323163700       0.000002715
                        -----------------------------------------
Magnitude (a.u.)       :      0.649275845
Magnitude (Debye)      :      1.650328044

VIBRATIONAL FREQUENCIES
-----------------------

Scaling factor for frequencies =  1.000000000  (already applied!)

     0:       0.00 cm**-1
     1:       0.00 cm**-1
     2:       0.00 cm**-1
     3:       0.00 cm**-1
     4:       0.00 cm**-1
     5:       0.00 cm**-1
     6:     275.16 cm**-1
     7:     671.35 cm**-1
     8:     812.15 cm**-1
     9:     978.22 cm**-1
    10:    1100.73 cm**-1
    11:    1348.43 cm**-1
    12:    1467.73 cm**-1
    13:    1482.91 cm**-1
    14:    2657.66 cm**-1
    15:    3028.18 cm**-1
    16:    3124.21 cm**-1
    17:    3127.55 cm**-1

IR SPECTRUM
-----------

 Mode   freq       eps      Int      T**2         TX        TY        TZ
       cm**-1   L/(mol*cm) km/mol    a.u.
----------------------------------------------------------------------------
  6:    275.16   0.002930   14.81  0.003323  (-0.000001  0.000001  0.057649)
  7:    671.35   0.000432    2.19  0.000201  ( 0.014086 -0.001607  0.000000)
  8:    812.15   0.000146    0.74  0.000056  (-0.007449 -0.000781 -0.000000)
  9:    978.22   0.001156    5.84  0.000369  (-0.000000  0.000000  0.019203)
 10:   1100.73   0.002213   11.18  0.000627  ( 0.012673 -0.021604  0.000000)
 11:   1348.43   0.001273    6.43  0.000295  (-0.017115  0.001288 -0.000000)
 12:   1467.73   0.000989    5.00  0.000210  (-0.000001  0.000000  0.014501)
 13:   1482.91   0.001623    8.20  0.000342  (-0.009580 -0.015807  0.000000)
 14:   2657.66   0.000486    2.46  0.000057  ( 0.002650  0.007076 -0.000000)
 15:   3028.18   0.004915   24.84  0.000506  ( 0.022467 -0.001315  0.000000)
 16:   3124.21   0.001776    8.98  0.000177  ( 0.000000 -0.000000  0.013320)
 17:   3127.55   0.001299    6.56  0.000130  ( 0.004382 -0.010507 -0.000001)

--------------------------
THERMOCHEMISTRY AT 298.15K
--------------------------

Temperature         ...   298.15 K
Pressure            ...     1.00 atm
Total Mass          ...    48.10 AMU
Quasi RRHO          ...     True
Cut-Off Frequency   ...     1.00 cm^-1

Throughout the following assumptions are being made:
  (1) The electronic state is orbitally nondegenerate
  (2) There are no thermally accessible electronically excited states
  (3) Hindered rotations indicated by low frequency modes are not
      treated as such but are treated as vibrations and this may
      cause some error
  (4) All equations used are the standard statistical mechanics
      equations for an ideal gas
  (5) All vibrations are strictly harmonic

freq.     275.16  E(vib)   ...       0.28
freq.     671.35  E(vib)   ...       0.08
freq.     812.15  E(vib)   ...       0.05
freq.     978.22  E(vib)   ...       0.03
freq.    1100.73  E(vib)   ...       0.02
freq.    1348.43  E(vib)   ...       0.01
freq.    1467.73  E(vib)   ...       0.00
freq.    1482.91  E(vib)   ...       0.00
freq.    2657.66  E(vib)   ...       0.00
freq.    3028.18  E(vib)   ...       0.00
freq.    3124.21  E(vib)   ...       0.00
freq.    3127.55  E(vib)   ...       0.00

------------
INNER ENERGY
------------

The inner energy is: U= E(el) + E(ZPE) + E(vib) + E(rot) + E(trans)
    E(el)   - is the total energy from the electronic structure calculation
              = E(kin-el) + E(nuc-el) + E(el-el) + E(nuc-nuc)
    E(ZPE)  - the the zero temperature vibrational energy from the frequency calculation
    E(vib)  - the the finite temperature correction to E(ZPE) due to population
              of excited vibrational states
    E(rot)  - is the rotational thermal energy
    E(trans)- is the translational thermal energy

Summary of contributions to the inner energy U:
Electronic energy                ...   -438.66561932 Eh
Zero point energy                ...      0.04573257 Eh      28.70 kcal/mol
Thermal vibrational correction   ...      0.00073694 Eh       0.46 kcal/mol
Thermal rotational correction    ...      0.00141627 Eh       0.89 kcal/mol
Thermal translational correction ...      0.00141627 Eh       0.89 kcal/mol
-----------------------------------------------------------------------
Total thermal energy                   -438.61631728 Eh

Summary of corrections to the electronic energy:
(perhaps to be used in another calculation)
Total thermal correction                  0.00356948 Eh       2.24 kcal/mol
Non-thermal (ZPE) correction              0.04573257 Eh      28.70 kcal/mol
-----------------------------------------------------------------------
Total correction                          0.04930204 Eh      30.94 kcal/mol

--------
ENTHALPY
--------

The enthalpy is H = U + kB*T
                kB is Boltzmann's constant
Total thermal energy              ...   -438.61631728 Eh
Thermal Enthalpy correction       ...      0.00094421 Eh       0.59 kcal/mol
-----------------------------------------------------------------------
Total Enthalpy                    ...   -438.61537307 Eh

Note: Rotational entropy computed according to Herzberg
Infrared and Raman Spectra, Chapter V,1, Van Nostrand Reinhold, 1945
Point Group:  Cs, Symmetry Number:   1
Rotational constants in cm-1:     3.414713     0.421287     0.404131

Vibrational entropy computed according to the QRRHO of S. Grimme
Chem.Eur.J. 2012 18 9955 using a reference frequency of 100.0 cm-1

-------
ENTROPY
-------

The entropy contributions are T*S = T*(S(el)+S(vib)+S(rot)+S(trans))
     S(el)   - electronic entropy
     S(vib)  - vibrational entropy
     S(rot)  - rotational entropy
     S(trans)- translational entropy
The entropies will be listed as multiplied by the temperature to get
units of energy

Electronic entropy                ...      0.00000000 Eh      0.00 kcal/mol
Vibrational entropy               ...      0.00110299 Eh      0.69 kcal/mol
Rotational entropy                ...      0.00976686 Eh      6.13 kcal/mol
Translational entropy             ...      0.01783478 Eh     11.19 kcal/mol
-----------------------------------------------------------------------
Final entropy term                ...      0.02870462 Eh     18.01 kcal/mol

In case the symmetry of your molecule has not been determined correctly
or in case you have a reason to use a different symmetry number we print
out the resulting rotational entropy values for sn=1,12:

 non-linear molecules -----------------------------------
|  sn= 1 | S(rot)=       0.00976686 Eh      6.13 kcal/mol|
|  sn= 2 | S(rot)=       0.00911240 Eh      5.72 kcal/mol|
|  sn= 3 | S(rot)=       0.00872957 Eh      5.48 kcal/mol|
|  sn= 4 | S(rot)=       0.00845794 Eh      5.31 kcal/mol|
|  sn= 5 | S(rot)=       0.00824725 Eh      5.18 kcal/mol|
|  sn= 6 | S(rot)=       0.00807511 Eh      5.07 kcal/mol|
|  sn= 7 | S(rot)=       0.00792956 Eh      4.98 kcal/mol|
|  sn= 8 | S(rot)=       0.00780349 Eh      4.90 kcal/mol|
|  sn= 9 | S(rot)=       0.00769228 Eh      4.83 kcal/mol|
|  sn=10 | S(rot)=       0.00759280 Eh      4.76 kcal/mol|
|  sn=11 | S(rot)=       0.00750281 Eh      4.71 kcal/mol|
|  sn=12 | S(rot)=       0.00742065 Eh      4.66 kcal/mol|
 linear molecules ---------------------------------------
|  Dinfh | S(rot)=       0.00618125 Eh      3.88 kcal/mol|
|  Cinfv | S(rot)=       0.00683571 Eh      4.29 kcal/mol|
 --------------------------------------------------------

-------------------
GIBBS FREE ENERGY
-------------------

The Gibbs free energy is G = H - T*S

Total enthalpy                    ...   -438.61537307 Eh
Total entropy correction          ...     -0.02870462 Eh    -18.01 kcal/mol
-----------------------------------------------------------------------
Final Gibbs free energy         ...   -438.64407769 Eh

For completeness - the Gibbs free energy minus the electronic energy
G-E(el)                           ...      0.02154163 Eh     13.52 kcal/mol

                             ****ORCA TERMINATED NORMALLY****
TOTAL RUN TIME: 0 days 0 hours 0 minutes 40 seconds 259 msec
