                         Program Version 6.0.0  -   RELEASE  -
|  1> ! r2SCAN-3c DEF2-TZVP FREQ
|  2> * xyzfile 0 1 vacuum_censo.xyz
|  3>
|  4>                          ****END OF INPUT****

CARTESIAN COORDINATES (ANGSTROEM)
---------------------------------
  C      1.232589   -0.014423    0.000010
  S     -0.604734    0.045057   -0.000015
  H      1.571754    1.023599    0.000027
  H      1.611236   -0.508249   -0.896883
  H      1.611210   -0.508269    0.896902
  H     -0.804883   -1.284089   -0.000019

 Total Charge           Charge          ....    0
 Multiplicity           Mult            ....    1
 Number of Electrons    NEL             ....   26
 Basis Dimension        Dim             ....   92

ORBITAL ENERGIES
----------------

  NO   OCC          E(Eh)            E(eV)
   0   2.0000     -88.528478     -2408.9824
   1   2.0000     -10.063936      -273.8536
   2   2.0000      -7.842310      -213.4001
   3   2.0000      -5.787952      -157.4982
   4   2.0000      -5.784195      -157.3959
   5   2.0000      -5.779080      -157.2567
   6   2.0000      -0.740800       -20.1582
   7   2.0000      -0.612204       -16.6589
   8   2.0000      -0.419299       -11.4097
   9   2.0000      -0.399028       -10.8581
  10   2.0000      -0.364355        -9.9146
  11   2.0000      -0.308083        -8.3834
  12   2.0000      -0.212452        -5.7811
  13   0.0000      -0.002189        -0.0596
  14   0.0000       0.034678         0.9436
  15   0.0000       0.084085         2.2881
  16   0.0000       0.109019         2.9666
  17   0.0000       0.112210         3.0534

MULLIKEN ATOMIC CHARGES
-----------------------
   0 C :   -0.286690
   1 S :   -0.227640
   2 H :    0.126703
   3 H :    0.126280
   4 H :    0.126280
   5 H :    0.135067
Sum of atomic charges:   -0.0000000

LOEWDIN ATOMIC CHARGES
----------------------
   0 C :   -0.527790
   1 S :    0.175328
   2 H :    0.112129
   3 H :    0.103312
   4 H :    0.103312
   5 H :    0.033710

  Mayer bond orders larger than 0.100000
B(  0-C ,  1-S ) :   1.0418 B(  0-C ,  2-H ) :   0.9622 B(  0-C ,  3-H ) :   0.9636
B(  0-C ,  4-H ) :   0.9636 B(  1-S ,  5-H ) :   0.9680

Dispersion correction           -0.000780212
FINAL SINGLE POINT ENERGY      -438.665661161371

DIPOLE MOMENT
-------------

Method             : SCF
Type of density    : Electron Density
Multiplicity       :   1
Irrep              :   0
Energy             :  -438.6714442040470203 Eh
Relativity type    :
Basis              : AO
                                X                 Y                 Z
Electronic contribution:     -3.242904809       0.877038869      -0.000043889
Nuclear contribution   :      3.803688840      -1.198128426       0.000051770
                        -----------------------------------------
Total Dipole Moment    :      0.560784031      -0.321089556       0.000007880
                        -----------------------------------------
Magnitude (a.u.)       :      0.646202161
Magnitude (Debye)      :      1.642515360

VIBRATIONAL FREQUENCIES
-----------------------

Scaling factor for frequencies =  1.000000000  (already applied!)

     0:       0.00 cm**-1
     1:       0.00 cm**-1
     2:       0.00 cm**-1
     3:       0.00 cm**-1
     4:       0.00 cm**-1
     5:       0.00 cm**-1
     6:     266.90 cm**-1
     7:     673.58 cm**-1
     8:     810.06 cm**-1
     9:     978.28 cm**-1
    10:    1100.27 cm**-1
    11:    1350.62 cm**-1
    12:    1468.88 cm**-1
    13:    1482.12 cm**-1
    14:    2671.20 cm**-1
    15:    3027.88 cm**-1
    16:    3122.84 cm**-1
    17:    3126.46 cm**-1

IR SPECTRUM
-----------

 Mode   freq       eps      Int      T**2         TX        TY        TZ
       cm**-1   L/(mol*cm) km/mol    a.u.
----------------------------------------------------------------------------
  6:    266.90   0.002948   14.90  0.003446  (-0.000000 -0.000000  0.058706)
  7:    673.58   0.000427    2.16  0.000198  ( 0.013964 -0.001641  0.000000)
  8:    810.06   0.000145    0.73  0.000056  (-0.007440 -0.000648 -0.000000)
  9:    978.28   0.001161    5.87  0.000370  (-0.000000 -0.000000  0.019242)
 10:   1100.27   0.002275   11.50  0.000645  (-0.012864  0.021903 -0.000000)
 11:   1350.62   0.001288    6.51  0.000298  ( 0.017167 -0.001672  0.000000)
 12:   1468.88   0.000969    4.89  0.000206  (-0.000000 -0.000000 -0.014345)
 13:   1482.12   0.001676    8.47  0.000353  ( 0.009946  0.015933  0.000000)
 14:   2671.20   0.000486    2.46  0.000057  ( 0.002819  0.006988  0.000000)
 15:   3027.88   0.005034   25.44  0.000519  (-0.022737  0.001370 -0.000000)
 16:   3122.84   0.001796    9.08  0.000179  ( 0.000001 -0.000003 -0.013397)
 17:   3126.46   0.001321    6.68  0.000132  (-0.003983  0.010772 -0.000004)

--------------------------
THERMOCHEMISTRY AT 298.15K
--------------------------

Temperature         ...   298.15 K
Pressure            ...     1.00 atm
Total Mass          ...    48.10 AMU
Quasi RRHO          ...     True
Cut-Off Frequency   ...     1.00 cm^-1

Throughout the following assumptions are being made:
  (1) The electronic state is orbitally nondegenerate
  (2) There are no thermally accessible electronically excited states
  (3) Hindered rotations indicated by low frequency modes are not
      treated as such but are treated as vibrations and this may
      cause some error
  (4) All equations used are the standard statistical mechanics
      equations for an ideal gas
  (5) All vibrations are strictly harmonic

freq.     266.90  E(vib)   ...       0.29
freq.     673.58  E(vib)   ...       0.08
freq.     810.06  E(vib)   ...       0.05
freq.     978.28  E(vib)   ...       0.03
freq.    1100.27  E(vib)   ...       0.02
freq.    1350.62  E(vib)   ...       0.01
freq.    1468.88  E(vib)   ...       0.00
freq.    1482.12  E(vib)   ...       0.00
freq.    2671.20  E(vib)   ...       0.00
freq.    3027.88  E(vib)   ...       0.00
freq.    3122.84  E(vib)   ...       0.00
freq.    3126.46  E(vib)   ...       0.00

------------
INNER ENERGY
------------

The inner energy is: U= E(el) + E(ZPE) + E(vib) + E(rot) + E(trans)
    E(el)   - is the total energy from the electronic structure calculation
              = E(kin-el) + E(nuc-el) + E(el-el) + E(nuc-nuc)
    E(ZPE)  - the the zero temperature vibrational energy from the frequency calculation
    E(vib)  - the the finite temperature correction to E(ZPE) due to population
              of excited vibrational states
    E(rot)  - is the rotational thermal energy
    E(trans)- is the translational thermal energy

Summary of contributions to the inner energy U:
Electronic energy                ...   -438.66566116 Eh
Zero point energy                ...      0.04574355 Eh      28.70 kcal/mol
Thermal vibrational correction   ...      0.00074753 Eh       0.47 kcal/mol
Thermal rotational correction    ...      0.00141627 Eh       0.89 kcal/mol
Thermal translational correction ...      0.00141627 Eh       0.89 kcal/mol
-----------------------------------------------------------------------
Total thermal energy                   -438.61633753 Eh

Summary of corrections to the electronic energy:
(perhaps to be used in another calculation)
Total thermal correction                  0.00358008 Eh       2.25 kcal/mol
Non-thermal (ZPE) correction              0.04574355 Eh      28.70 kcal/mol
-----------------------------------------------------------------------
Total correction                          0.04932363 Eh      30.95 kcal/mol

--------
ENTHALPY
--------

The enthalpy is H = U + kB*T
                kB is Boltzmann's constant
Total thermal energy              ...   -438.61633753 Eh
Thermal Enthalpy correction       ...      0.00094421 Eh       0.59 kcal/mol
-----------------------------------------------------------------------
Total Enthalpy                    ...   -438.61539332 Eh

Note: Rotational entropy computed according to Herzberg
Infrared and Raman Spectra, Chapter V,1, Van Nostrand Reinhold, 1945
Point Group:  Cs, Symmetry Number:   1
Rotational constants in cm-1:     3.420705     0.421815     0.404752

Vibrational entropy computed according to the QRRHO of S. Grimme
Chem.Eur.J. 2012 18 9955 using a reference frequency of 100.0 cm-1

-------
ENTROPY
-------

The entropy contributions are T*S = T*(S(el)+S(vib)+S(rot)+S(trans))
     S(el)   - electronic entropy
     S(vib)  - vibrational entropy
     S(rot)  - rotational entropy
     S(trans)- translational entropy
The entropies will be listed as multiplied by the temperature to get
units of energy

Electronic entropy                ...      0.00000000 Eh      0.00 kcal/mol
Vibrational entropy               ...      0.00112740 Eh      0.71 kcal/mol
Rotational entropy                ...      0.00976471 Eh      6.13 kcal/mol
Translational entropy             ...      0.01783478 Eh     11.19 kcal/mol
-----------------------------------------------------------------------
Final entropy term                ...      0.02872689 Eh     18.03 kcal/mol

In case the symmetry of your molecule has not been determined correctly
or in case you have a reason to use a different symmetry number we print
out the resulting rotational entropy values for sn=1,12:

 non-linear molecules -----------------------------------
|  sn= 1 | S(rot)=       0.00976471 Eh      6.13 kcal/mol|
|  sn= 2 | S(rot)=       0.00911026 Eh      5.72 kcal/mol|
|  sn= 3 | S(rot)=       0.00872742 Eh      5.48 kcal/mol|
|  sn= 4 | S(rot)=       0.00845580 Eh      5.31 kcal/mol|
|  sn= 5 | S(rot)=       0.00824511 Eh      5.17 kcal/mol|
|  sn= 6 | S(rot)=       0.00807297 Eh      5.07 kcal/mol|
|  sn= 7 | S(rot)=       0.00792742 Eh      4.97 kcal/mol|
|  sn= 8 | S(rot)=       0.00780134 Eh      4.90 kcal/mol|
|  sn= 9 | S(rot)=       0.00769013 Eh      4.83 kcal/mol|
|  sn=10 | S(rot)=       0.00759065 Eh      4.76 kcal/mol|
|  sn=11 | S(rot)=       0.00750066 Eh      4.71 kcal/mol|
|  sn=12 | S(rot)=       0.00741851 Eh      4.66 kcal/mol|
 linear molecules ---------------------------------------
|  Dinfh | S(rot)=       0.00617980 Eh      3.88 kcal/mol|
|  Cinfv | S(rot)=       0.00683426 Eh      4.29 kcal/mol|
 --------------------------------------------------------

-------------------
GIBBS FREE ENERGY
-------------------

The Gibbs free energy is G = H - T*S

Total enthalpy                    ...   -438.61539332 Eh
Total entropy correction          ...     -0.02872689 Eh    -18.03 kcal/mol
-----------------------------------------------------------------------
Final Gibbs free energy         ...   -438.64412021 Eh

For completeness - the Gibbs free energy minus the electronic energy
G-E(el)                           ...      0.02154095 Eh     13.52 kcal/mol

                             ****ORCA TERMINATED NORMALLY****
TOTAL RUN TIME: 0 days 0 hours 0 minutes 40 seconds 629 msec
