                         Program Version 6.0.1  -  RELEASE   -
|  1> ! pbe def2-sv(p) def2/J RI DEFGRID1 loosescf d4 GCP(DFT/SV(P)) printgap
|  2> %output
|  3>     printlevel normal
|  4> end
|  5> * xyz 0 1
|  6> C -3.181769746 -0.0084832124 0.8418782971
|  7> C -2.4793599192 0.0124108855 -0.5172110811
|  8> C -0.9872533008 0.0072847091 -0.3407023231
|  9> C -0.2875834775 -1.1891799026 -0.2364484214
| 10> C 1.0773335038 -1.2041075476 -0.0323427929
| 11> C 1.7755514171 -0.0060474546 0.074952885
| 12> C 1.0873648216 1.1958965746 -0.0255306095
| 13> C -0.2804807568 1.1960805107 -0.2297848796
| 14> O 3.1228731628 -0.0567603178 0.2746562924
| 15> H -2.8991085732 -0.8986903479 1.3992276692
| 16> H -4.2619243867 -0.0062796008 0.7137859421
| 17> H -2.899064373 0.8639923841 1.4267105353
| 18> H -2.7843874635 0.9058701759 -1.0658761482
| 19> H -2.7861887527 -0.8627505895 -1.0935043633
| 20> H -0.8203397911 -2.12554302 -0.3199067961
| 21> H 1.6225720264 -2.1312853729 0.0459117438
| 22> H 1.6249946203 2.1322149139 0.0556036524
| 23> H -0.8037038677 2.1385645105 -0.3072131813
| 24> H 3.4766522818 0.8389857007 0.3289580375
| 25> *
| 26>
| 27>                          ****END OF INPUT****

CARTESIAN COORDINATES (ANGSTROEM)
---------------------------------
  C     -3.181770   -0.008483    0.841878
  C     -2.479360    0.012411   -0.517211
  C     -0.987253    0.007285   -0.340702
  C     -0.287583   -1.189180   -0.236448
  C      1.077334   -1.204108   -0.032343
  C      1.775551   -0.006047    0.074953
  C      1.087365    1.195897   -0.025531
  C     -0.280481    1.196081   -0.229785
  O      3.122873   -0.056760    0.274656
  H     -2.899109   -0.898690    1.399228
  H     -4.261924   -0.006280    0.713786
  H     -2.899064    0.863992    1.426711
  H     -2.784387    0.905870   -1.065876
  H     -2.786189   -0.862751   -1.093504
  H     -0.820340   -2.125543   -0.319907
  H      1.622572   -2.131285    0.045912
  H      1.624995    2.132215    0.055604
  H     -0.803704    2.138565   -0.307213
  H      3.476652    0.838986    0.328958

 Total Charge           Charge          ....    0
 Multiplicity           Mult            ....    1
 Number of Electrons    NEL             ....   66
 Basis Dimension        Dim             ....  146

ORBITAL ENERGIES
----------------

  NO   OCC          E(Eh)            E(eV)
   0   2.0000     -18.777541      -510.9629
   1   2.0000      -9.947497      -270.6852
   2   2.0000      -9.891072      -269.1498
   3   2.0000      -9.889714      -269.1128
   4   2.0000      -9.889171      -269.0980
   5   2.0000      -9.888132      -269.0698
   6   2.0000      -9.887610      -269.0555
   7   2.0000      -9.883300      -268.9383
   8   2.0000      -9.875352      -268.7220
   9   2.0000      -0.960226       -26.1291
  10   2.0000      -0.773625       -21.0514
  11   2.0000      -0.705108       -19.1870
  12   2.0000      -0.670313       -18.2401
  13   2.0000      -0.641525       -17.4568
  14   2.0000      -0.569367       -15.4933
  15   2.0000      -0.551916       -15.0184
  16   2.0000      -0.519097       -14.1254
  17   2.0000      -0.492904       -13.4126
  18   2.0000      -0.436144       -11.8681
  19   2.0000      -0.419316       -11.4102
  20   2.0000      -0.391287       -10.6475
  21   2.0000      -0.380790       -10.3618
  22   2.0000      -0.373573       -10.1654
  23   2.0000      -0.367573       -10.0022
  24   2.0000      -0.356434        -9.6991
  25   2.0000      -0.334731        -9.1085
  26   2.0000      -0.327470        -8.9109
  27   2.0000      -0.301544        -8.2054
  28   2.0000      -0.293169        -7.9775
  29   2.0000      -0.287318        -7.8183
  30   2.0000      -0.282711        -7.6930
  31   2.0000      -0.226943        -6.1754
  32   2.0000      -0.187713        -5.1079
  33   0.0000      -0.032499        -0.8843
  34   0.0000      -0.015073        -0.4102
  35   0.0000       0.025699         0.6993
  36   0.0000       0.042942         1.1685
  37   0.0000       0.066358         1.8057

MULLIKEN ATOMIC CHARGES
-----------------------
   0 C :   -0.266324
   1 C :   -0.133092
   2 C :    0.087114
   3 C :   -0.120590
   4 C :   -0.119835
   5 C :    0.245719
   6 C :   -0.156900
   7 C :   -0.128277
   8 O :   -0.336676
   9 H :    0.100566
  10 H :    0.102846
  11 H :    0.099058
  12 H :    0.084112
  13 H :    0.085286
  14 H :    0.038819
  15 H :    0.042584
  16 H :    0.025005
  17 H :    0.036410
  18 H :    0.314176
Sum of atomic charges:    0.0000000

LOEWDIN ATOMIC CHARGES
----------------------
   0 C :   -0.334151
   1 C :   -0.216611
   2 C :   -0.059278
   3 C :   -0.113838
   4 C :   -0.146779
   5 C :    0.019220
   6 C :   -0.175256
   7 C :   -0.116449
   8 O :   -0.239158
   9 H :    0.119021
  10 H :    0.116870
  11 H :    0.118457
  12 H :    0.119720
  13 H :    0.120402
  14 H :    0.121957
  15 H :    0.129926
  16 H :    0.118774
  17 H :    0.121042
  18 H :    0.296131

  Mayer bond orders larger than 0.100000
B(  0-C ,  1-C ) :   1.1468 B(  0-C ,  9-H ) :   0.9552 B(  0-C , 10-H ) :   0.9483
B(  0-C , 11-H ) :   0.9552 B(  1-C ,  2-C ) :   1.0644 B(  1-C , 12-H ) :   0.9123
B(  1-C , 13-H ) :   0.9118 B(  2-C ,  3-C ) :   1.3708 B(  2-C ,  7-C ) :   1.3934
B(  3-C ,  4-C ) :   1.3651 B(  3-C , 14-H ) :   0.9629 B(  4-C ,  5-C ) :   1.3580
B(  4-C , 15-H ) :   0.9657 B(  5-C ,  6-C ) :   1.3138 B(  5-C ,  8-O ) :   1.1816
B(  6-C ,  7-C ) :   1.3538 B(  6-C , 16-H ) :   0.9563 B(  7-C , 17-H ) :   0.9589
B(  8-O , 18-H ) :   0.8448

Dispersion correction           -0.018693698
FINAL SINGLE POINT ENERGY      -385.235626153778

DIPOLE MOMENT
-------------

Method             : SCF
Type of density    : Electron Density
Multiplicity       :   1
Irrep              :   0
Energy             :  -385.2948838874383455 Eh
Relativity type    :
Basis              : AO
                                X                 Y                 Z
Electronic contribution:      9.847025741      -0.276985202      -1.089575154
Nuclear contribution   :     -9.833102961       0.801366953       1.114578015
                        -----------------------------------------
Total Dipole Moment    :      0.013922779       0.524381751       0.025002860
                        -----------------------------------------
Magnitude (a.u.)       :      0.525162077
Magnitude (Debye)      :      1.334855917

Rotational constants in cm-1:             0.147981             0.032186             0.028484
Rotational constants in MHz :          4436.358059           964.917357           853.931636

                             ****ORCA TERMINATED NORMALLY****
TOTAL RUN TIME: 0 days 0 hours 0 minutes 9 seconds 459 msec
