                         Program Version 6.0.1  -  RELEASE   -
|  1> ! pbe def2-sv(p) def2/J RI DEFGRID1 loosescf d4 GCP(DFT/SV(P)) printgap
|  2> %output
|  3>     printlevel normal
|  4> end
|  5> * xyz 0 1
|  6> C -2.3393453125 0.1529814221 -1.2586693587
|  7> C -1.6950775038 -0.432911278 -0.0004763124
|  8> C -2.3376118377 0.1497918969 1.2601189539
|  9> C -0.2042552882 -0.1971730029 -0.0007192208
| 10> C 0.3208741581 1.0897987219 0.000153507
| 11> C 1.68802879 1.2972446371 0.0007390666
| 12> C 2.5565957508 0.2191528722 0.0004206735
| 13> C 2.0465746699 -1.0668766336 -0.0006875756
| 14> C 0.6775576188 -1.270017229 -0.0012548625
| 15> H -1.8763719366 -0.2640283208 -2.1504833888
| 16> H -2.2228664487 1.2335770013 -1.2856631683
| 17> H -3.4023602457 -0.0778600808 -1.2797499518
| 18> H -1.8688203244 -1.5150624741 -0.0017776511
| 19> H -1.8736954347 -0.2699148457 2.1502161232
| 20> H -3.4006950484 -0.0805397007 1.2818936146
| 21> H -2.2204351475 1.2301956381 1.2899604613
| 22> H -0.3421107984 1.9425991205 0.00048148
| 23> H 2.0781937193 2.3050198669 0.0015406509
| 24> H 3.6245488282 0.3812437937 0.0010703936
| 25> H 2.7159173323 -1.9151535661 -0.0009936379
| 26> H 0.2879123941 -2.278796333 -0.0020245657
| 27> *
| 28>
| 29>                          ****END OF INPUT****

CARTESIAN COORDINATES (ANGSTROEM)
---------------------------------
  C     -2.339345    0.152981   -1.258669
  C     -1.695078   -0.432911   -0.000476
  C     -2.337612    0.149792    1.260119
  C     -0.204255   -0.197173   -0.000719
  C      0.320874    1.089799    0.000154
  C      1.688029    1.297245    0.000739
  C      2.556596    0.219153    0.000421
  C      2.046575   -1.066877   -0.000688
  C      0.677558   -1.270017   -0.001255
  H     -1.876372   -0.264028   -2.150483
  H     -2.222866    1.233577   -1.285663
  H     -3.402360   -0.077860   -1.279750
  H     -1.868820   -1.515062   -0.001778
  H     -1.873695   -0.269915    2.150216
  H     -3.400695   -0.080540    1.281894
  H     -2.220435    1.230196    1.289960
  H     -0.342111    1.942599    0.000481
  H      2.078194    2.305020    0.001541
  H      3.624549    0.381244    0.001070
  H      2.715917   -1.915154   -0.000994
  H      0.287912   -2.278796   -0.002025

 Total Charge           Charge          ....    0
 Multiplicity           Mult            ....    1
 Number of Electrons    NEL             ....   66
 Basis Dimension        Dim             ....  150

ORBITAL ENERGIES
----------------

  NO   OCC          E(Eh)            E(eV)
   0   2.0000      -9.899863      -269.3890
   1   2.0000      -9.897751      -269.3315
   2   2.0000      -9.887581      -269.0548
   3   2.0000      -9.887067      -269.0408
   4   2.0000      -9.886947      -269.0375
   5   2.0000      -9.886498      -269.0253
   6   2.0000      -9.885137      -268.9883
   7   2.0000      -9.875727      -268.7322
   8   2.0000      -9.875719      -268.7320
   9   2.0000      -0.777395       -21.1540
  10   2.0000      -0.723925       -19.6990
  11   2.0000      -0.666093       -18.1253
  12   2.0000      -0.652640       -17.7592
  13   2.0000      -0.612360       -16.6632
  14   2.0000      -0.553527       -15.0622
  15   2.0000      -0.538235       -14.6461
  16   2.0000      -0.501183       -13.6379
  17   2.0000      -0.459121       -12.4933
  18   2.0000      -0.419931       -11.4269
  19   2.0000      -0.401521       -10.9259
  20   2.0000      -0.385809       -10.4984
  21   2.0000      -0.380558       -10.3555
  22   2.0000      -0.372176       -10.1274
  23   2.0000      -0.368294       -10.0218
  24   2.0000      -0.343742        -9.3537
  25   2.0000      -0.330002        -8.9798
  26   2.0000      -0.321787        -8.7563
  27   2.0000      -0.305661        -8.3175
  28   2.0000      -0.298519        -8.1231
  29   2.0000      -0.284359        -7.7378
  30   2.0000      -0.279556        -7.6071
  31   2.0000      -0.225685        -6.1412
  32   2.0000      -0.217204        -5.9104
  33   0.0000      -0.031736        -0.8636
  34   0.0000      -0.028193        -0.7672
  35   0.0000       0.037133         1.0104
  36   0.0000       0.054454         1.4818
  37   0.0000       0.059901         1.6300

MULLIKEN ATOMIC CHARGES
-----------------------
   0 C :   -0.242563
   1 C :   -0.140944
   2 C :   -0.242505
   3 C :    0.132540
   4 C :   -0.136515
   5 C :   -0.049418
   6 C :   -0.049484
   7 C :   -0.047641
   8 C :   -0.127826
   9 H :    0.106501
  10 H :    0.099314
  11 H :    0.099092
  12 H :    0.062171
  13 H :    0.106487
  14 H :    0.099090
  15 H :    0.099291
  16 H :    0.045558
  17 H :    0.049109
  18 H :    0.051090
  19 H :    0.049164
  20 H :    0.037489
Sum of atomic charges:   -0.0000000

LOEWDIN ATOMIC CHARGES
----------------------
   0 C :   -0.323285
   1 C :   -0.142089
   2 C :   -0.323269
   3 C :   -0.026939
   4 C :   -0.121302
   5 C :   -0.121182
   6 C :   -0.129500
   7 C :   -0.122055
   8 C :   -0.126302
   9 H :    0.121596
  10 H :    0.116757
  11 H :    0.117703
  12 H :    0.116915
  13 H :    0.121596
  14 H :    0.117689
  15 H :    0.116767
  16 H :    0.119913
  17 H :    0.122266
  18 H :    0.122166
  19 H :    0.122405
  20 H :    0.120150

  Mayer bond orders larger than 0.100000
B(  0-C ,  1-C ) :   1.1023 B(  0-C ,  9-H ) :   0.9518 B(  0-C , 10-H ) :   0.9467
B(  0-C , 11-H ) :   0.9486 B(  1-C ,  2-C ) :   1.1023 B(  1-C ,  3-C ) :   1.0110
B(  1-C , 12-H ) :   0.8894 B(  2-C , 13-H ) :   0.9518 B(  2-C , 14-H ) :   0.9486
B(  2-C , 15-H ) :   0.9467 B(  3-C ,  4-C ) :   1.3664 B(  3-C ,  8-C ) :   1.4038
B(  4-C ,  5-C ) :   1.3865 B(  4-C , 16-H ) :   0.9588 B(  5-C ,  6-C ) :   1.3742
B(  5-C , 17-H ) :   0.9633 B(  6-C ,  7-C ) :   1.3852 B(  6-C , 18-H ) :   0.9651
B(  7-C ,  8-C ) :   1.3640 B(  7-C , 19-H ) :   0.9633 B(  8-C , 20-H ) :   0.9599

Dispersion correction           -0.021366102
FINAL SINGLE POINT ENERGY      -349.368630539978

DIPOLE MOMENT
-------------

Method             : SCF
Type of density    : Electron Density
Multiplicity       :   1
Irrep              :   0
Energy             :  -349.4281638773506984 Eh
Relativity type    :
Basis              : AO
                                X                 Y                 Z
Electronic contribution:      7.838175437      -0.669082099      -0.003976441
Nuclear contribution   :     -7.975154612       0.648536212       0.004193944
                        -----------------------------------------
Total Dipole Moment    :     -0.136979175      -0.020545887       0.000217503
                        -----------------------------------------
Magnitude (a.u.)       :      0.138511643
Magnitude (Debye)      :      0.352068616

Rotational constants in cm-1:             0.112981             0.036698             0.033687
Rotational constants in MHz :          3387.082001          1100.191794          1009.917016

                             ****ORCA TERMINATED NORMALLY****
TOTAL RUN TIME: 0 days 0 hours 0 minutes 11 seconds 946 msec
