                         Program Version 6.0.1  -  RELEASE   -
|  1> ! pbe def2-sv(p) def2/J RI DEFGRID1 loosescf d4 GCP(DFT/SV(P)) printgap
|  2> %output
|  3>     printlevel normal
|  4> end
|  5> * xyz 0 1
|  6> C -2.3305069506 -0.9698385064 -0.3511149686
|  7> C -0.9521767702 -0.5227898184 0.1455915002
|  8> H -0.9125194867 -0.6987867873 1.2334957093
|  9> C -0.7153505486 0.9825587971 -0.1065106315
| 10> H -1.3060133033 1.3155094619 -0.9741682598
| 11> C 0.7756721869 1.2428510055 -0.4468615131
| 12> H 1.0074182558 2.2923780044 -0.2207643663
| 13> C 1.6539790224 0.335392098 0.4274307254
| 14> H 2.7096872199 0.4775346755 0.1736615769
| 15> C 1.3174344831 -1.1428617636 0.0981519411
| 16> H 1.3466392559 -1.7241044093 1.0420355996
| 17> O 0.0371366182 -1.2930542883 -0.4955071146
| 18> O 2.2464640708 -1.6029320654 -0.818152217
| 19> O 1.5211068979 0.6296358385 1.7892920223
| 20> O 1.0250448177 1.0758674111 -1.8109144945
| 21> O -1.1243103281 1.6653581958 1.0641878683
| 22> O -3.3589038911 -0.4494827537 0.4443359133
| 23> H -2.4014731095 -2.057907856 -0.2882609086
| 24> H -2.4496673731 -0.6734133874 -1.4037869922
| 25> H 1.9928018227 -2.489908202 -1.101814344
| 26> H 0.5938366528 0.8266973425 1.9892458115
| 27> H 1.0699642903 0.1293457024 -2.0039553924
| 28> H -0.9942104118 2.6136158279 0.9442754545
| 29> H -3.1668911216 0.4760102103 0.6403507237
| 30> *
| 31>
| 32>                          ****END OF INPUT****

CARTESIAN COORDINATES (ANGSTROEM)
---------------------------------
  C     -2.330507   -0.969839   -0.351115
  C     -0.952177   -0.522790    0.145592
  H     -0.912519   -0.698787    1.233496
  C     -0.715351    0.982559   -0.106511
  H     -1.306013    1.315509   -0.974168
  C      0.775672    1.242851   -0.446862
  H      1.007418    2.292378   -0.220764
  C      1.653979    0.335392    0.427431
  H      2.709687    0.477535    0.173662
  C      1.317434   -1.142862    0.098152
  H      1.346639   -1.724104    1.042036
  O      0.037137   -1.293054   -0.495507
  O      2.246464   -1.602932   -0.818152
  O      1.521107    0.629636    1.789292
  O      1.025045    1.075867   -1.810914
  O     -1.124310    1.665358    1.064188
  O     -3.358904   -0.449483    0.444336
  H     -2.401473   -2.057908   -0.288261
  H     -2.449667   -0.673413   -1.403787
  H      1.992802   -2.489908   -1.101814
  H      0.593837    0.826697    1.989246
  H      1.069964    0.129346   -2.003955
  H     -0.994210    2.613616    0.944275
  H     -3.166891    0.476010    0.640351

 Total Charge           Charge          ....    0
 Multiplicity           Mult            ....    1
 Number of Electrons    NEL             ....   96
 Basis Dimension        Dim             ....  192

ORBITAL ENERGIES
----------------

  NO   OCC          E(Eh)            E(eV)
   0   2.0000     -18.792956      -511.3823
   1   2.0000     -18.787096      -511.2229
   2   2.0000     -18.777992      -510.9751
   3   2.0000     -18.753014      -510.2955
   4   2.0000     -18.752561      -510.2831
   5   2.0000     -18.749950      -510.2121
   6   2.0000      -9.995077      -271.9799
   7   2.0000      -9.958759      -270.9916
   8   2.0000      -9.957903      -270.9683
   9   2.0000      -9.952394      -270.8184
  10   2.0000      -9.945639      -270.6346
  11   2.0000      -9.938064      -270.4285
  12   2.0000      -1.001244       -27.2452
  13   2.0000      -0.967722       -26.3330
  14   2.0000      -0.938078       -25.5264
  15   2.0000      -0.935492       -25.4560
  16   2.0000      -0.928491       -25.2655
  17   2.0000      -0.926089       -25.2002
  18   2.0000      -0.711272       -19.3547
  19   2.0000      -0.691606       -18.8196
  20   2.0000      -0.630294       -17.1512
  21   2.0000      -0.602432       -16.3930
  22   2.0000      -0.573564       -15.6075
  23   2.0000      -0.529263       -14.4020
  24   2.0000      -0.518670       -14.1137
  25   2.0000      -0.507455       -13.8086
  26   2.0000      -0.495780       -13.4908
  27   2.0000      -0.471355       -12.8262
  28   2.0000      -0.451022       -12.2729
  29   2.0000      -0.450793       -12.2667
  30   2.0000      -0.418476       -11.3873
  31   2.0000      -0.406323       -11.0566
  32   2.0000      -0.390877       -10.6363
  33   2.0000      -0.378318       -10.2946
  34   2.0000      -0.365256        -9.9391
  35   2.0000      -0.357400        -9.7254
  36   2.0000      -0.343311        -9.3420
  37   2.0000      -0.334556        -9.1037
  38   2.0000      -0.321068        -8.7367
  39   2.0000      -0.315001        -8.5716
  40   2.0000      -0.289208        -7.8698
  41   2.0000      -0.278178        -7.5696
  42   2.0000      -0.269294        -7.3279
  43   2.0000      -0.258791        -7.0421
  44   2.0000      -0.246767        -6.7149
  45   2.0000      -0.226886        -6.1739
  46   2.0000      -0.215856        -5.8737
  47   2.0000      -0.211391        -5.7522
  48   0.0000      -0.002829        -0.0770
  49   0.0000       0.020077         0.5463
  50   0.0000       0.033247         0.9047
  51   0.0000       0.047401         1.2898
  52   0.0000       0.052491         1.4284

MULLIKEN ATOMIC CHARGES
-----------------------
   0 C :    0.090902
   1 C :   -0.015122
   2 H :    0.069312
   3 C :   -0.008916
   4 H :    0.075252
   5 C :    0.031131
   6 H :    0.065617
   7 C :    0.035837
   8 H :    0.096824
   9 C :    0.170180
  10 H :    0.067572
  11 O :   -0.313187
  12 O :   -0.378631
  13 O :   -0.418760
  14 O :   -0.404249
  15 O :   -0.414972
  16 O :   -0.435441
  17 H :    0.090557
  18 H :    0.075198
  19 H :    0.308626
  20 H :    0.299996
  21 H :    0.297259
  22 H :    0.313503
  23 H :    0.301514
Sum of atomic charges:    0.0000000

LOEWDIN ATOMIC CHARGES
----------------------
   0 C :   -0.116480
   1 C :   -0.076117
   2 H :    0.106907
   3 C :   -0.093561
   4 H :    0.108773
   5 C :   -0.078952
   6 H :    0.111457
   7 C :   -0.085039
   8 H :    0.127882
   9 C :   -0.006151
  10 H :    0.091943
  11 O :   -0.159095
  12 O :   -0.289095
  13 O :   -0.311909
  14 O :   -0.307169
  15 O :   -0.309229
  16 O :   -0.330699
  17 H :    0.115045
  18 H :    0.096487
  19 H :    0.291481
  20 H :    0.270148
  21 H :    0.273428
  22 H :    0.292248
  23 H :    0.277697

  Mayer bond orders larger than 0.100000
B(  0-C ,  1-C ) :   1.0560 B(  0-C , 16-O ) :   1.0809 B(  0-C , 17-H ) :   0.9190
B(  0-C , 18-H ) :   0.9066 B(  1-C ,  2-H ) :   0.8696 B(  1-C ,  3-C ) :   0.9829
B(  1-C , 11-O ) :   1.0325 B(  3-C ,  4-H ) :   0.8792 B(  3-C ,  5-C ) :   0.9642
B(  3-C , 15-O ) :   1.0041 B(  5-C ,  6-H ) :   0.8951 B(  5-C ,  7-C ) :   1.0124
B(  5-C , 14-O ) :   1.0826 B(  7-C ,  8-H ) :   0.8902 B(  7-C ,  9-C ) :   0.9342
B(  7-C , 13-O ) :   1.0765 B(  9-C , 10-H ) :   0.8978 B(  9-C , 11-O ) :   0.9929
B(  9-C , 12-O ) :   1.1414 B( 12-O , 19-H ) :   0.8397 B( 13-O , 20-H ) :   0.8145
B( 14-O , 21-H ) :   0.8304 B( 15-O , 22-H ) :   0.8365 B( 16-O , 23-H ) :   0.8366

Dispersion correction           -0.025144058
FINAL SINGLE POINT ENERGY      -685.692044753063

DIPOLE MOMENT
-------------

Method             : SCF
Type of density    : Electron Density
Multiplicity       :   1
Irrep              :   0
Energy             :  -685.8257522576803922 Eh
Relativity type    :
Basis              : AO
                                X                 Y                 Z
Electronic contribution:      2.169399415      -0.315428443      -0.168275187
Nuclear contribution   :     -2.350074097       0.457237424       0.031006755
                        -----------------------------------------
Total Dipole Moment    :     -0.180674683       0.141808981      -0.137268432
                        -----------------------------------------
Magnitude (a.u.)       :      0.267573822
Magnitude (Debye)      :      0.680118607

Rotational constants in cm-1:             0.043428             0.025381             0.021736
Rotational constants in MHz :          1301.941107           760.917514           651.635568

                             ****ORCA TERMINATED NORMALLY****
TOTAL RUN TIME: 0 days 0 hours 0 minutes 33 seconds 702 msec
