                         Program Version 6.0.1  -  RELEASE   -
|  1> ! r2scan-3c def2/J RI DEFGRID2 scfconv6 printgap
|  2> %output
|  3>     printlevel normal
|  4> end
|  5> * xyz 0 1
|  6> C -3.6975840254 0.1508739904 -0.2907395125
|  7> C -2.2608141007 0.1106879597 0.2203880014
|  8> H -2.2772581344 -0.0611548347 1.302518872
|  9> C -1.533627667 1.424661593 -0.0563105259
| 10> C -0.0867684455 1.3783657143 0.4262602827
| 11> C 0.6898613406 0.2351559017 -0.2506891726
| 12> H 0.6399359102 0.3872480294 -1.3348295856
| 13> C -0.0691490688 -1.0349585832 0.0900981965
| 14> O 0.3722318114 -1.9229023272 0.7751923819
| 15> C -1.484604722 -1.0406867287 -0.435493576
| 16> C 2.1652348346 0.1408704301 0.1722914163
| 17> C 2.8828810391 -0.8868148265 -0.7033945132
| 18> C 2.8889564843 1.482630745 0.0783540597
| 19> H -4.2500721106 0.9533701308 0.1926367858
| 20> H -3.7152979443 0.3205026164 -1.3654402014
| 21> H -4.2045449037 -0.7882303832 -0.0827263702
| 22> H -1.5523912073 1.6273121763 -1.1303981166
| 23> H -2.0553664804 2.2431057073 0.4445817177
| 24> H 0.3926396601 2.3308414386 0.2002630655
| 25> H -0.061238191 1.2336208481 1.5089635269
| 26> H -1.4779134024 -0.9011201601 -1.5182404799
| 27> H -1.9542131865 -1.9977138412 -0.2031083603
| 28> H 2.1964742236 -0.2084054642 1.209324052
| 29> H 2.8760496373 -0.5704725374 -1.7453916877
| 30> H 2.4011525405 -1.8573783884 -0.6289521114
| 31> H 3.9171011456 -0.9962386011 -0.3859362541
| 32> H 3.9529279715 1.3368673317 0.250307609
| 33> H 2.5263415987 2.1880483453 0.8210653177
| 34> H 2.7622003875 1.9175319828 -0.9115077911
| 35> *
| 36>
| 37>                          ****END OF INPUT****

CARTESIAN COORDINATES (ANGSTROEM)
---------------------------------
  C     -3.697584    0.150874   -0.290740
  C     -2.260814    0.110688    0.220388
  H     -2.277258   -0.061155    1.302519
  C     -1.533628    1.424662   -0.056311
  C     -0.086768    1.378366    0.426260
  C      0.689861    0.235156   -0.250689
  H      0.639936    0.387248   -1.334830
  C     -0.069149   -1.034959    0.090098
  O      0.372232   -1.922902    0.775192
  C     -1.484605   -1.040687   -0.435494
  C      2.165235    0.140870    0.172291
  C      2.882881   -0.886815   -0.703395
  C      2.888956    1.482631    0.078354
  H     -4.250072    0.953370    0.192637
  H     -3.715298    0.320503   -1.365440
  H     -4.204545   -0.788230   -0.082726
  H     -1.552391    1.627312   -1.130398
  H     -2.055366    2.243106    0.444582
  H      0.392640    2.330841    0.200263
  H     -0.061238    1.233621    1.508964
  H     -1.477913   -0.901120   -1.518240
  H     -1.954213   -1.997714   -0.203108
  H      2.196474   -0.208405    1.209324
  H      2.876050   -0.570473   -1.745392
  H      2.401153   -1.857378   -0.628952
  H      3.917101   -0.996239   -0.385936
  H      3.952928    1.336867    0.250308
  H      2.526342    2.188048    0.821065
  H      2.762200    1.917532   -0.911508

 Total Charge           Charge          ....    0
 Multiplicity           Mult            ....    1
 Number of Electrons    NEL             ....   86
 Basis Dimension        Dim             ....  304

ORBITAL ENERGIES
----------------

  NO   OCC          E(Eh)            E(eV)
   0   2.0000     -18.936395      -515.2855
   1   2.0000     -10.110742      -275.1273
   2   2.0000     -10.048413      -273.4312
   3   2.0000     -10.039984      -273.2019
   4   2.0000     -10.038821      -273.1702
   5   2.0000     -10.034776      -273.0601
   6   2.0000     -10.033050      -273.0132
   7   2.0000     -10.031816      -272.9796
   8   2.0000     -10.025227      -272.8003
   9   2.0000     -10.015778      -272.5432
  10   2.0000     -10.008059      -272.3331
  11   2.0000      -1.007305       -27.4102
  12   2.0000      -0.816685       -22.2231
  13   2.0000      -0.775419       -21.1002
  14   2.0000      -0.722860       -19.6700
  15   2.0000      -0.698622       -19.0105
  16   2.0000      -0.653608       -17.7856
  17   2.0000      -0.646557       -17.5937
  18   2.0000      -0.582344       -15.8464
  19   2.0000      -0.552212       -15.0265
  20   2.0000      -0.532681       -14.4950
  21   2.0000      -0.501954       -13.6589
  22   2.0000      -0.459581       -12.5058
  23   2.0000      -0.436365       -11.8741
  24   2.0000      -0.417497       -11.3607
  25   2.0000      -0.415942       -11.3184
  26   2.0000      -0.408287       -11.1100
  27   2.0000      -0.401196       -10.9171
  28   2.0000      -0.387987       -10.5577
  29   2.0000      -0.368204       -10.0193
  30   2.0000      -0.366992        -9.9864
  31   2.0000      -0.364196        -9.9103
  32   2.0000      -0.350248        -9.5307
  33   2.0000      -0.347182        -9.4473
  34   2.0000      -0.331500        -9.0206
  35   2.0000      -0.320249        -8.7144
  36   2.0000      -0.318728        -8.6730
  37   2.0000      -0.306387        -8.3372
  38   2.0000      -0.302273        -8.2253
  39   2.0000      -0.293817        -7.9952
  40   2.0000      -0.284507        -7.7418
  41   2.0000      -0.277768        -7.5584
  42   2.0000      -0.205633        -5.5956
  43   0.0000      -0.043249        -1.1769
  44   0.0000       0.076153         2.0722
  45   0.0000       0.083348         2.2680
  46   0.0000       0.098623         2.6837
  47   0.0000       0.107186         2.9167

MULLIKEN ATOMIC CHARGES
-----------------------
   0 C :   -0.489229
   1 C :   -0.013450
   2 H :    0.168206
   3 C :   -0.374505
   4 C :   -0.339473
   5 C :   -0.083245
   6 H :    0.176873
   7 C :    0.201240
   8 O :   -0.351161
   9 C :   -0.385583
  10 C :    0.034449
  11 C :   -0.570942
  12 C :   -0.509112
  13 H :    0.150026
  14 H :    0.150743
  15 H :    0.152893
  16 H :    0.156881
  17 H :    0.152088
  18 H :    0.160425
  19 H :    0.172114
  20 H :    0.172522
  21 H :    0.168083
  22 H :    0.170800
  23 H :    0.143734
  24 H :    0.179883
  25 H :    0.147472
  26 H :    0.148927
  27 H :    0.153799
  28 H :    0.155541
Sum of atomic charges:   -0.0000000

LOEWDIN ATOMIC CHARGES
----------------------
   0 C :   -0.409292
   1 C :   -0.216260
   2 H :    0.163804
   3 C :   -0.291500
   4 C :   -0.268984
   5 C :   -0.195593
   6 H :    0.177994
   7 C :    0.232515
   8 O :   -0.464808
   9 C :   -0.260711
  10 C :   -0.223827
  11 C :   -0.406410
  12 C :   -0.415570
  13 H :    0.155502
  14 H :    0.154474
  15 H :    0.156111
  16 H :    0.159656
  17 H :    0.161796
  18 H :    0.164287
  19 H :    0.165857
  20 H :    0.173052
  21 H :    0.177971
  22 H :    0.173815
  23 H :    0.150059
  24 H :    0.170588
  25 H :    0.153439
  26 H :    0.155883
  27 H :    0.152272
  28 H :    0.153882

  Mayer bond orders larger than 0.100000
B(  0-C ,  1-C ) :   0.8957 B(  0-C , 13-H ) :   0.9744 B(  0-C , 14-H ) :   0.9967
B(  0-C , 15-H ) :   0.9749 B(  1-C ,  2-H ) :   0.9445 B(  1-C ,  3-C ) :   0.9231
B(  1-C ,  9-C ) :   0.8884 B(  3-C ,  4-C ) :   0.8840 B(  3-C , 16-H ) :   1.0070
B(  3-C , 17-H ) :   0.9478 B(  4-C ,  5-C ) :   0.8315 B(  4-C , 18-H ) :   0.9431
B(  4-C , 19-H ) :   1.0020 B(  5-C ,  6-H ) :   0.9545 B(  5-C ,  7-C ) :   0.8575
B(  5-C ,  8-O ) :  -0.1247 B(  5-C , 10-C ) :   0.8796 B(  7-C ,  8-O ) :   1.9849
B(  7-C ,  9-C ) :   0.9191 B(  9-C , 20-H ) :   1.0017 B(  9-C , 21-H ) :   0.9515
B( 10-C , 11-C ) :   0.8826 B( 10-C , 12-C ) :   0.8333 B( 10-C , 22-H ) :   0.9723
B( 11-C , 23-H ) :   0.9889 B( 11-C , 24-H ) :   0.9692 B( 11-C , 25-H ) :   0.9748
B( 12-C , 26-H ) :   0.9745 B( 12-C , 27-H ) :   0.9766 B( 12-C , 28-H ) :   0.9907

Dispersion correction           -0.010106099
FINAL SINGLE POINT ENERGY      -467.009260397408

DIPOLE MOMENT
-------------

Method             : SCF
Type of density    : Electron Density
Multiplicity       :   1
Irrep              :   0
Energy             :  -467.0120366842272688 Eh
Relativity type    :
Basis              : AO
                                X                 Y                 Z
Electronic contribution:     -0.634966820      -5.773055991       2.689875425
Nuclear contribution   :      0.114843451       6.686616521      -3.156564277
                        -----------------------------------------
Total Dipole Moment    :     -0.520123369       0.913560529      -0.466688853
                        -----------------------------------------
Magnitude (a.u.)       :      1.150182440
Magnitude (Debye)      :      2.923531425

Rotational constants in cm-1:             0.068193             0.023451             0.019078
Rotational constants in MHz :          2044.369691           703.037809           571.954931

                             ****ORCA TERMINATED NORMALLY****
TOTAL RUN TIME: 0 days 0 hours 0 minutes 41 seconds 347 msec
