                         Program Version 6.0.1  -  RELEASE   -
|  1> ! pbe def2-sv(p) def2/J RI DEFGRID1 loosescf d4 GCP(DFT/SV(P)) printgap
|  2> %output
|  3>     printlevel normal
|  4> end
|  5> * xyz 0 1
|  6> C 0.0001547241 -2.5113650054 0.0003567967
|  7> C 1.2053840564 -1.8286296306 8.30472e-05
|  8> C 1.2061167998 -0.4438525451 -3.98372e-05
|  9> C 4.08525e-05 0.2669024551 3.13877e-05
| 10> C -1.2059995091 -0.4439584538 1.70657e-05
| 11> C -1.2051065062 -1.8287261359 0.0002084462
| 12> Cl -2.6934454962 0.4247323166 -0.0003134747
| 13> C -0.0001133864 1.6819671008 0.0003859556
| 14> N -0.0005517545 2.8270764113 0.0005383035
| 15> Cl 2.6934883048 0.4250748773 -0.0002814669
| 16> H 0.0001593481 -3.5902135214 0.0006324461
| 17> H 2.1425989679 -2.3610041924 9.7506e-05
| 18> H -2.1422811363 -2.3612088662 0.0002887917
| 19> *
| 20>
| 21>                          ****END OF INPUT****

CARTESIAN COORDINATES (ANGSTROEM)
---------------------------------
  C      0.000155   -2.511365    0.000357
  C      1.205384   -1.828630    0.000083
  C      1.206117   -0.443853   -0.000040
  C      0.000041    0.266902    0.000031
  C     -1.206000   -0.443958    0.000017
  C     -1.205107   -1.828726    0.000208
  Cl    -2.693445    0.424732   -0.000313
  C     -0.000113    1.681967    0.000386
  N     -0.000552    2.827076    0.000538
  Cl     2.693488    0.425075   -0.000281
  H      0.000159   -3.590214    0.000632
  H      2.142599   -2.361004    0.000098
  H     -2.142281   -2.361209    0.000289

 Total Charge           Charge          ....    0
 Multiplicity           Mult            ....    1
 Number of Electrons    NEL             ....   86
 Basis Dimension        Dim             ....  154

ORBITAL ENERGIES
----------------

  NO   OCC          E(Eh)            E(eV)
   0   2.0000    -100.666076     -2739.2632
   1   2.0000    -100.666073     -2739.2631
   2   2.0000     -13.987452      -380.6179
   3   2.0000      -9.989420      -271.8259
   4   2.0000      -9.989409      -271.8256
   5   2.0000      -9.962870      -271.1035
   6   2.0000      -9.940420      -270.4926
   7   2.0000      -9.937054      -270.4010
   8   2.0000      -9.933242      -270.2973
   9   2.0000      -9.933237      -270.2971
  10   2.0000      -9.201876      -250.3958
  11   2.0000      -9.201873      -250.3957
  12   2.0000      -7.033376      -191.3879
  13   2.0000      -7.033373      -191.3878
  14   2.0000      -7.021930      -191.0764
  15   2.0000      -7.021927      -191.0764
  16   2.0000      -7.021003      -191.0512
  17   2.0000      -7.020999      -191.0511
  18   2.0000      -0.862430       -23.4679
  19   2.0000      -0.825556       -22.4645
  20   2.0000      -0.819103       -22.2889
  21   2.0000      -0.777152       -21.1474
  22   2.0000      -0.722476       -19.6596
  23   2.0000      -0.686553       -18.6821
  24   2.0000      -0.609473       -16.5846
  25   2.0000      -0.572828       -15.5874
  26   2.0000      -0.526747       -14.3335
  27   2.0000      -0.474743       -12.9184
  28   2.0000      -0.467712       -12.7271
  29   2.0000      -0.431780       -11.7493
  30   2.0000      -0.422837       -11.5060
  31   2.0000      -0.409104       -11.1323
  32   2.0000      -0.370702       -10.0873
  33   2.0000      -0.365866        -9.9557
  34   2.0000      -0.348067        -9.4714
  35   2.0000      -0.329855        -8.9758
  36   2.0000      -0.309797        -8.4300
  37   2.0000      -0.305606        -8.3160
  38   2.0000      -0.305200        -8.3049
  39   2.0000      -0.294735        -8.0201
  40   2.0000      -0.283353        -7.7104
  41   2.0000      -0.250422        -6.8143
  42   2.0000      -0.243479        -6.6254
  43   0.0000      -0.098253        -2.6736
  44   0.0000      -0.075053        -2.0423
  45   0.0000      -0.026672        -0.7258
  46   0.0000      -0.005061        -0.1377
  47   0.0000       0.018176         0.4946

MULLIKEN ATOMIC CHARGES
-----------------------
   0 C :   -0.014237
   1 C :   -0.111591
   2 C :    0.127329
   3 C :   -0.083541
   4 C :    0.127332
   5 C :   -0.111590
   6 Cl:   -0.024671
   7 C :   -0.217167
   8 N :    0.126145
   9 Cl:   -0.024701
  10 H :    0.080520
  11 H :    0.063083
  12 H :    0.063089
Sum of atomic charges:    0.0000000

LOEWDIN ATOMIC CHARGES
----------------------
   0 C :   -0.094763
   1 C :   -0.138296
   2 C :   -0.105317
   3 C :   -0.113755
   4 C :   -0.105335
   5 C :   -0.138299
   6 Cl:    0.182903
   7 C :   -0.060030
   8 N :   -0.026187
   9 Cl:    0.182856
  10 H :    0.138220
  11 H :    0.139003
  12 H :    0.139001

  Mayer bond orders larger than 0.100000
B(  0-C ,  1-C ) :   1.3367 B(  0-C ,  3-C ) :   0.1041 B(  0-C ,  5-C ) :   1.3368
B(  0-C , 10-H ) :   0.9607 B(  1-C ,  2-C ) :   1.3605 B(  1-C , 11-H ) :   0.9689
B(  2-C ,  3-C ) :   1.3947 B(  2-C ,  9-Cl) :   1.0729 B(  3-C ,  4-C ) :   1.3947
B(  3-C ,  7-C ) :   1.1531 B(  4-C ,  5-C ) :   1.3605 B(  4-C ,  6-Cl) :   1.0729
B(  5-C , 12-H ) :   0.9689 B(  7-C ,  8-N ) :   2.9809

Dispersion correction           -0.019291261
FINAL SINGLE POINT ENERGY     -1242.357988185798

DIPOLE MOMENT
-------------

Method             : SCF
Type of density    : Electron Density
Multiplicity       :   1
Irrep              :   0
Energy             : -1242.3789393384727191 Eh
Relativity type    :
Basis              : AO
                                X                 Y                 Z
Electronic contribution:     -0.000187134       6.982836212      -0.001822857
Nuclear contribution   :      0.000387182      -8.923572407       0.001757260
                        -----------------------------------------
Total Dipole Moment    :      0.000200048      -1.940736195      -0.000065596
                        -----------------------------------------
Magnitude (a.u.)       :      1.940736207
Magnitude (Debye)      :      4.932959409

Rotational constants in cm-1:             0.048915             0.028404             0.017969
Rotational constants in MHz :          1466.421211           851.529099           538.708861

                             ****ORCA TERMINATED NORMALLY****
TOTAL RUN TIME: 0 days 0 hours 0 minutes 13 seconds 947 msec
