                         Program Version 6.0.1  -  RELEASE   -
|  1> ! pbe def2-sv(p) def2/J RI DEFGRID1 loosescf d4 GCP(DFT/SV(P)) printgap
|  2> %output
|  3>     printlevel normal
|  4> end
|  5> * xyz 0 1
|  6> C 1.5137469564 -0.1688136547 -1.1468451419
|  7> C 0.7181125351 0.1471948834 0.0919830995
|  8> C 1.3053415609 0.6904962873 1.153046113
|  9> C -0.725274882 -0.1546281918 0.0944471047
| 10> C -1.3160091025 -0.69896656 1.1523266359
| 11> C -1.5012378556 0.1835681899 -1.1474526916
| 12> H 2.0822953832 0.7013309663 -1.4706376942
| 13> H 0.8796208671 -0.4940436061 -1.96484839
| 14> H 2.2235499833 -0.96657935 -0.9300465183
| 15> H 0.7544705353 0.9393486192 2.0430346319
| 16> H 2.3587051398 0.9169302166 1.1601941079
| 17> H -2.3731908676 -0.9054243602 1.1674505271
| 18> H -0.7621611753 -0.9726249026 2.0334704416
| 19> H -1.1492461203 1.1186427906 -1.5789299311
| 20> H -1.3911022674 -0.600732021 -1.8966888662
| 21> H -2.5595344124 0.2768446615 -0.9166385439
| 22> *
| 23>
| 24>                          ****END OF INPUT****

CARTESIAN COORDINATES (ANGSTROEM)
---------------------------------
  C      1.513747   -0.168814   -1.146845
  C      0.718113    0.147195    0.091983
  C      1.305342    0.690496    1.153046
  C     -0.725275   -0.154628    0.094447
  C     -1.316009   -0.698967    1.152327
  C     -1.501238    0.183568   -1.147453
  H      2.082295    0.701331   -1.470638
  H      0.879621   -0.494044   -1.964848
  H      2.223550   -0.966579   -0.930047
  H      0.754471    0.939349    2.043035
  H      2.358705    0.916930    1.160194
  H     -2.373191   -0.905424    1.167451
  H     -0.762161   -0.972625    2.033470
  H     -1.149246    1.118643   -1.578930
  H     -1.391102   -0.600732   -1.896689
  H     -2.559534    0.276845   -0.916639

 Total Charge           Charge          ....    0
 Multiplicity           Mult            ....    1
 Number of Electrons    NEL             ....   46
 Basis Dimension        Dim             ....  104

ORBITAL ENERGIES
----------------

  NO   OCC          E(Eh)            E(eV)
   0   2.0000      -9.899365      -269.3754
   1   2.0000      -9.899184      -269.3705
   2   2.0000      -9.883026      -268.9308
   3   2.0000      -9.881910      -268.9004
   4   2.0000      -9.872383      -268.6412
   5   2.0000      -9.871668      -268.6218
   6   2.0000      -0.747318       -20.3356
   7   2.0000      -0.678624       -18.4663
   8   2.0000      -0.625502       -17.0208
   9   2.0000      -0.598303       -16.2807
  10   2.0000      -0.527153       -14.3446
  11   2.0000      -0.442206       -12.0330
  12   2.0000      -0.424753       -11.5581
  13   2.0000      -0.400077       -10.8867
  14   2.0000      -0.386501       -10.5172
  15   2.0000      -0.365281        -9.9398
  16   2.0000      -0.364487        -9.9182
  17   2.0000      -0.343980        -9.3602
  18   2.0000      -0.332034        -9.0351
  19   2.0000      -0.310747        -8.4559
  20   2.0000      -0.289932        -7.8895
  21   2.0000      -0.245511        -6.6807
  22   2.0000      -0.200106        -5.4452
  23   0.0000      -0.044467        -1.2100
  24   0.0000       0.018868         0.5134
  25   0.0000       0.043655         1.1879
  26   0.0000       0.073726         2.0062
  27   0.0000       0.086828         2.3627

MULLIKEN ATOMIC CHARGES
-----------------------
   0 C :   -0.231201
   1 C :   -0.053752
   2 C :   -0.226333
   3 C :   -0.051814
   4 C :   -0.226043
   5 C :   -0.234052
   6 H :    0.113308
   7 H :    0.099575
   8 H :    0.120844
   9 H :    0.094238
  10 H :    0.082343
  11 H :    0.081581
  12 H :    0.091953
  13 H :    0.111019
  14 H :    0.122851
  15 H :    0.105483
Sum of atomic charges:   -0.0000000

LOEWDIN ATOMIC CHARGES
----------------------
   0 C :   -0.326575
   1 C :   -0.051858
   2 C :   -0.248113
   3 C :   -0.052046
   4 C :   -0.250868
   5 C :   -0.323451
   6 H :    0.131713
   7 H :    0.121921
   8 H :    0.136913
   9 H :    0.121256
  10 H :    0.116267
  11 H :    0.116549
  12 H :    0.120748
  13 H :    0.127034
  14 H :    0.131931
  15 H :    0.128580

  Mayer bond orders larger than 0.100000
B(  0-C ,  1-C ) :   1.0965 B(  0-C ,  6-H ) :   0.9387 B(  0-C ,  7-H ) :   0.9393
B(  0-C ,  8-H ) :   0.9361 B(  1-C ,  2-C ) :   1.9906 B(  1-C ,  3-C ) :   1.0357
B(  2-C ,  9-H ) :   0.9098 B(  2-C , 10-H ) :   0.9175 B(  3-C ,  4-C ) :   2.0006
B(  3-C ,  5-C ) :   1.1020 B(  4-C , 11-H ) :   0.9075 B(  4-C , 12-H ) :   0.9102
B(  5-C , 13-H ) :   0.9383 B(  5-C , 14-H ) :   0.9227 B(  5-C , 15-H ) :   0.9389

Dispersion correction           -0.012812128
FINAL SINGLE POINT ENERGY      -234.037127730552

DIPOLE MOMENT
-------------

Method             : SCF
Type of density    : Electron Density
Multiplicity       :   1
Irrep              :   0
Energy             :  -234.0841019461114740 Eh
Relativity type    :
Basis              : AO
                                X                 Y                 Z
Electronic contribution:     -0.034662797      -0.030529604       1.918047797
Nuclear contribution   :      0.059486289       0.012846307      -2.208102880
                        -----------------------------------------
Total Dipole Moment    :      0.024823492      -0.017683297      -0.290055083
                        -----------------------------------------
Magnitude (a.u.)       :      0.291651944
Magnitude (Debye)      :      0.741320327

Rotational constants in cm-1:             0.160831             0.104947             0.072240
Rotational constants in MHz :          4821.579258          3146.231685          2165.698754

                             ****ORCA TERMINATED NORMALLY****
TOTAL RUN TIME: 0 days 0 hours 0 minutes 11 seconds 531 msec
