                         Program Version 6.0.0  -   RELEASE  -
|  1> ! r2SCAN-3c DEF2-TZVP FREQ
|  2> * xyzfile 0 1 censo.xyz
|  3>
|  4>                          ****END OF INPUT****

CARTESIAN COORDINATES (ANGSTROEM)
---------------------------------
  C     -0.591531   -0.641409    0.000033
  F     -1.534503    0.358236   -0.000061
  Cl     1.065957    0.100597    0.000001
  H     -0.689854   -1.227833   -0.914179
  H     -0.689887   -1.227687    0.914336

 Total Charge           Charge          ....    0
 Multiplicity           Mult            ....    1
 Number of Electrons    NEL             ....   34
 Basis Dimension        Dim             ....  111

ORBITAL ENERGIES
----------------

  NO   OCC          E(Eh)            E(eV)
   0   2.0000    -101.192600     -2753.5906
   1   2.0000     -24.505077      -666.8171
   2   2.0000     -10.183338      -277.1027
   3   2.0000      -9.368888      -254.9404
   4   2.0000      -7.113638      -193.5719
   5   2.0000      -7.103910      -193.3072
   6   2.0000      -7.103438      -193.2944
   7   2.0000      -1.189395       -32.3651
   8   2.0000      -0.819292       -22.2941
   9   2.0000      -0.656985       -17.8775
  10   2.0000      -0.496905       -13.5215
  11   2.0000      -0.494754       -13.4629
  12   2.0000      -0.456686       -12.4271
  13   2.0000      -0.353418        -9.6170
  14   2.0000      -0.350023        -9.5246
  15   2.0000      -0.298536        -8.1236
  16   2.0000      -0.284354        -7.7377
  17   0.0000      -0.018861        -0.5132
  18   0.0000       0.045423         1.2360
  19   0.0000       0.068977         1.8770
  20   0.0000       0.102471         2.7884
  21   0.0000       0.170897         4.6503

MULLIKEN ATOMIC CHARGES
-----------------------
   0 C :    0.099203
   1 F :   -0.201079
   2 Cl:   -0.145763
   3 H :    0.123820
   4 H :    0.123819
Sum of atomic charges:    0.0000000

LOEWDIN ATOMIC CHARGES
----------------------
   0 C :   -0.548168
   1 F :    0.098771
   2 Cl:    0.239810
   3 H :    0.104793
   4 H :    0.104793

  Mayer bond orders larger than 0.100000
B(  0-C ,  1-F ) :   1.0254 B(  0-C ,  2-Cl) :   1.0955 B(  0-C ,  3-H ) :   0.9582
B(  0-C ,  4-H ) :   0.9582

Dispersion correction           -0.000638940
FINAL SINGLE POINT ENERGY      -599.314908355718

DIPOLE MOMENT
-------------

Method             : SCF
Type of density    : Electron Density
Multiplicity       :   1
Irrep              :   0
Energy             :  -599.3207182304746539 Eh
Relativity type    :
Basis              : AO
                                X                 Y                 Z
Electronic contribution:      1.099636044       2.042661392      -0.000145595
Nuclear contribution   :     -1.302586491      -2.769544296       0.000199901
                        -----------------------------------------
Total Dipole Moment    :     -0.202950447      -0.726882904       0.000054306
                        -----------------------------------------
Magnitude (a.u.)       :      0.754683803
Magnitude (Debye)      :      1.918253782

VIBRATIONAL FREQUENCIES
-----------------------

Scaling factor for frequencies =  1.000000000  (already applied!)

     0:       0.00 cm**-1
     1:       0.00 cm**-1
     2:       0.00 cm**-1
     3:       0.00 cm**-1
     4:       0.00 cm**-1
     5:       0.00 cm**-1
     6:     374.78 cm**-1
     7:     681.04 cm**-1
     8:    1001.12 cm**-1
     9:    1032.48 cm**-1
    10:    1235.07 cm**-1
    11:    1352.29 cm**-1
    12:    1484.87 cm**-1
    13:    3067.07 cm**-1
    14:    3158.94 cm**-1

IR SPECTRUM
-----------

 Mode   freq       eps      Int      T**2         TX        TY        TZ
       cm**-1   L/(mol*cm) km/mol    a.u.
----------------------------------------------------------------------------
  6:    374.78   0.000208    1.05  0.000173  ( 0.008314 -0.010190  0.000001)
  7:    681.04   0.023412  118.32  0.010728  (-0.099867 -0.027467  0.000001)
  8:   1001.12   0.000053    0.27  0.000017  ( 0.000003 -0.000002 -0.004063)
  9:   1032.48   0.033328  168.42  0.010073  (-0.087037  0.049977 -0.000006)
 10:   1235.07   0.000483    2.44  0.000122  ( 0.000000  0.000000  0.011042)
 11:   1352.29   0.006320   31.94  0.001458  (-0.034943 -0.015407  0.000001)
 12:   1484.87   0.000024    0.12  0.000005  ( 0.000789  0.002094 -0.000000)
 13:   3067.07   0.004045   20.44  0.000412  ( 0.005209  0.019608 -0.000002)
 14:   3158.94   0.001574    7.95  0.000155  ( 0.000000 -0.000001 -0.012470)

--------------------------
THERMOCHEMISTRY AT 298.15K
--------------------------

Temperature         ...   298.15 K
Pressure            ...     1.00 atm
Total Mass          ...    68.48 AMU
Quasi RRHO          ...     True
Cut-Off Frequency   ...     1.00 cm^-1

Throughout the following assumptions are being made:
  (1) The electronic state is orbitally nondegenerate
  (2) There are no thermally accessible electronically excited states
  (3) Hindered rotations indicated by low frequency modes are not
      treated as such but are treated as vibrations and this may
      cause some error
  (4) All equations used are the standard statistical mechanics
      equations for an ideal gas
  (5) All vibrations are strictly harmonic

freq.     374.78  E(vib)   ...       0.21
freq.     681.04  E(vib)   ...       0.08
freq.    1001.12  E(vib)   ...       0.02
freq.    1032.48  E(vib)   ...       0.02
freq.    1235.07  E(vib)   ...       0.01
freq.    1352.29  E(vib)   ...       0.01
freq.    1484.87  E(vib)   ...       0.00
freq.    3067.07  E(vib)   ...       0.00
freq.    3158.94  E(vib)   ...       0.00

------------
INNER ENERGY
------------

The inner energy is: U= E(el) + E(ZPE) + E(vib) + E(rot) + E(trans)
    E(el)   - is the total energy from the electronic structure calculation
              = E(kin-el) + E(nuc-el) + E(el-el) + E(nuc-nuc)
    E(ZPE)  - the the zero temperature vibrational energy from the frequency calculation
    E(vib)  - the the finite temperature correction to E(ZPE) due to population
              of excited vibrational states
    E(rot)  - is the rotational thermal energy
    E(trans)- is the translational thermal energy

Summary of contributions to the inner energy U:
Electronic energy                ...   -599.31490836 Eh
Zero point energy                ...      0.03049930 Eh      19.14 kcal/mol
Thermal vibrational correction   ...      0.00055328 Eh       0.35 kcal/mol
Thermal rotational correction    ...      0.00141627 Eh       0.89 kcal/mol
Thermal translational correction ...      0.00141627 Eh       0.89 kcal/mol
-----------------------------------------------------------------------
Total thermal energy                   -599.28102324 Eh

Summary of corrections to the electronic energy:
(perhaps to be used in another calculation)
Total thermal correction                  0.00338582 Eh       2.12 kcal/mol
Non-thermal (ZPE) correction              0.03049930 Eh      19.14 kcal/mol
-----------------------------------------------------------------------
Total correction                          0.03388512 Eh      21.26 kcal/mol

--------
ENTHALPY
--------

The enthalpy is H = U + kB*T
                kB is Boltzmann's constant
Total thermal energy              ...   -599.28102324 Eh
Thermal Enthalpy correction       ...      0.00094421 Eh       0.59 kcal/mol
-----------------------------------------------------------------------
Total Enthalpy                    ...   -599.28007903 Eh

Note: Rotational entropy computed according to Herzberg
Infrared and Raman Spectra, Chapter V,1, Van Nostrand Reinhold, 1945
Point Group:  Cs, Symmetry Number:   1
Rotational constants in cm-1:     1.352950     0.183500     0.166978

Vibrational entropy computed according to the QRRHO of S. Grimme
Chem.Eur.J. 2012 18 9955 using a reference frequency of 100.0 cm-1

-------
ENTROPY
-------

The entropy contributions are T*S = T*(S(el)+S(vib)+S(rot)+S(trans))
     S(el)   - electronic entropy
     S(vib)  - vibrational entropy
     S(rot)  - rotational entropy
     S(trans)- translational entropy
The entropies will be listed as multiplied by the temperature to get
units of energy

Electronic entropy                ...      0.00000000 Eh      0.00 kcal/mol
Vibrational entropy               ...      0.00077821 Eh      0.49 kcal/mol
Rotational entropy                ...      0.01101354 Eh      6.91 kcal/mol
Translational entropy             ...      0.01833496 Eh     11.51 kcal/mol
-----------------------------------------------------------------------
Final entropy term                ...      0.03012671 Eh     18.90 kcal/mol

In case the symmetry of your molecule has not been determined correctly
or in case you have a reason to use a different symmetry number we print
out the resulting rotational entropy values for sn=1,12:

 non-linear molecules -----------------------------------
|  sn= 1 | S(rot)=       0.01101354 Eh      6.91 kcal/mol|
|  sn= 2 | S(rot)=       0.01035909 Eh      6.50 kcal/mol|
|  sn= 3 | S(rot)=       0.00997625 Eh      6.26 kcal/mol|
|  sn= 4 | S(rot)=       0.00970463 Eh      6.09 kcal/mol|
|  sn= 5 | S(rot)=       0.00949394 Eh      5.96 kcal/mol|
|  sn= 6 | S(rot)=       0.00932180 Eh      5.85 kcal/mol|
|  sn= 7 | S(rot)=       0.00917625 Eh      5.76 kcal/mol|
|  sn= 8 | S(rot)=       0.00905017 Eh      5.68 kcal/mol|
|  sn= 9 | S(rot)=       0.00893897 Eh      5.61 kcal/mol|
|  sn=10 | S(rot)=       0.00883949 Eh      5.55 kcal/mol|
|  sn=11 | S(rot)=       0.00874950 Eh      5.49 kcal/mol|
|  sn=12 | S(rot)=       0.00866734 Eh      5.44 kcal/mol|
 linear molecules ---------------------------------------
|  Dinfh | S(rot)=       0.00701579 Eh      4.40 kcal/mol|
|  Cinfv | S(rot)=       0.00767024 Eh      4.81 kcal/mol|
 --------------------------------------------------------

-------------------
GIBBS FREE ENERGY
-------------------

The Gibbs free energy is G = H - T*S

Total enthalpy                    ...   -599.28007903 Eh
Total entropy correction          ...     -0.03012671 Eh    -18.90 kcal/mol
-----------------------------------------------------------------------
Final Gibbs free energy         ...   -599.31020574 Eh

For completeness - the Gibbs free energy minus the electronic energy
G-E(el)                           ...      0.00470262 Eh      2.95 kcal/mol

                             ****ORCA TERMINATED NORMALLY****
TOTAL RUN TIME: 0 days 0 hours 0 minutes 41 seconds 522 msec
