                         Program Version 6.0.0  -   RELEASE  -
|  1> ! r2SCAN-3c DEF2-TZVP FREQ
|  2> * xyzfile 0 1 vacuum_censo.xyz
|  3>
|  4>                          ****END OF INPUT****

CARTESIAN COORDINATES (ANGSTROEM)
---------------------------------
  C     -0.586670   -0.631052    0.000001
  F     -1.537724    0.351313   -0.000005
  Cl     1.064591    0.096219    0.000005
  H     -0.685413   -1.224814   -0.911610
  H     -0.685420   -1.224810    0.911614

 Total Charge           Charge          ....    0
 Multiplicity           Mult            ....    1
 Number of Electrons    NEL             ....   34
 Basis Dimension        Dim             ....  111

ORBITAL ENERGIES
----------------

  NO   OCC          E(Eh)            E(eV)
   0   2.0000    -101.192990     -2753.6013
   1   2.0000     -24.505566      -666.8304
   2   2.0000     -10.182155      -277.0705
   3   2.0000      -9.369447      -254.9556
   4   2.0000      -7.114157      -193.5861
   5   2.0000      -7.104477      -193.3227
   6   2.0000      -7.103982      -193.3092
   7   2.0000      -1.192178       -32.4408
   8   2.0000      -0.821917       -22.3655
   9   2.0000      -0.655913       -17.8483
  10   2.0000      -0.498353       -13.5609
  11   2.0000      -0.494854       -13.4657
  12   2.0000      -0.458769       -12.4837
  13   2.0000      -0.353376        -9.6159
  14   2.0000      -0.350522        -9.5382
  15   2.0000      -0.299606        -8.1527
  16   2.0000      -0.283778        -7.7220
  17   0.0000      -0.014858        -0.4043
  18   0.0000       0.047134         1.2826
  19   0.0000       0.071073         1.9340
  20   0.0000       0.101603         2.7648
  21   0.0000       0.170162         4.6303

MULLIKEN ATOMIC CHARGES
-----------------------
   0 C :    0.099359
   1 F :   -0.200055
   2 Cl:   -0.141885
   3 H :    0.121290
   4 H :    0.121290
Sum of atomic charges:   -0.0000000

LOEWDIN ATOMIC CHARGES
----------------------
   0 C :   -0.566359
   1 F :    0.106437
   2 Cl:    0.250707
   3 H :    0.104608
   4 H :    0.104608

  Mayer bond orders larger than 0.100000
B(  0-C ,  1-F ) :   1.0259 B(  0-C ,  2-Cl) :   1.1001 B(  0-C ,  3-H ) :   0.9590
B(  0-C ,  4-H ) :   0.9590

Dispersion correction           -0.000639024
FINAL SINGLE POINT ENERGY      -599.315182063298

DIPOLE MOMENT
-------------

Method             : SCF
Type of density    : Electron Density
Multiplicity       :   1
Irrep              :   0
Energy             :  -599.3210723430715916 Eh
Relativity type    :
Basis              : AO
                                X                 Y                 Z
Electronic contribution:      1.098472226       2.045408382      -0.000000994
Nuclear contribution   :     -1.289652729      -2.752618256       0.000002003
                        -----------------------------------------
Total Dipole Moment    :     -0.191180503      -0.707209874       0.000001009
                        -----------------------------------------
Magnitude (a.u.)       :      0.732595243
Magnitude (Debye)      :      1.862109124

VIBRATIONAL FREQUENCIES
-----------------------

Scaling factor for frequencies =  1.000000000  (already applied!)

     0:       0.00 cm**-1
     1:       0.00 cm**-1
     2:       0.00 cm**-1
     3:       0.00 cm**-1
     4:       0.00 cm**-1
     5:       0.00 cm**-1
     6:     374.81 cm**-1
     7:     698.88 cm**-1
     8:    1008.69 cm**-1
     9:    1056.18 cm**-1
    10:    1249.13 cm**-1
    11:    1366.54 cm**-1
    12:    1491.04 cm**-1
    13:    3050.82 cm**-1
    14:    3135.85 cm**-1

IR SPECTRUM
-----------

 Mode   freq       eps      Int      T**2         TX        TY        TZ
       cm**-1   L/(mol*cm) km/mol    a.u.
----------------------------------------------------------------------------
  6:    374.81   0.000181    0.91  0.000150  ( 0.005724 -0.010843  0.000000)
  7:    698.88   0.022740  114.92  0.010154  ( 0.096902  0.027634  0.000000)
  8:   1008.69   0.000058    0.30  0.000018  (-0.000000  0.000000  0.004251)
  9:   1056.18   0.034481  174.25  0.010188  (-0.088162  0.049146 -0.000000)
 10:   1249.13   0.000484    2.44  0.000121  ( 0.000000 -0.000000 -0.010991)
 11:   1366.54   0.006443   32.56  0.001471  ( 0.035227  0.015183  0.000000)
 12:   1491.04   0.000031    0.16  0.000006  (-0.001438 -0.002093 -0.000000)
 13:   3050.82   0.004474   22.61  0.000458  ( 0.005659  0.020632 -0.000000)
 14:   3135.85   0.001913    9.67  0.000190  ( 0.000000 -0.000000 -0.013796)

--------------------------
THERMOCHEMISTRY AT 298.15K
--------------------------

Temperature         ...   298.15 K
Pressure            ...     1.00 atm
Total Mass          ...    68.48 AMU
Quasi RRHO          ...     True
Cut-Off Frequency   ...     1.00 cm^-1

Throughout the following assumptions are being made:
  (1) The electronic state is orbitally nondegenerate
  (2) There are no thermally accessible electronically excited states
  (3) Hindered rotations indicated by low frequency modes are not
      treated as such but are treated as vibrations and this may
      cause some error
  (4) All equations used are the standard statistical mechanics
      equations for an ideal gas
  (5) All vibrations are strictly harmonic

freq.     374.81  E(vib)   ...       0.21
freq.     698.88  E(vib)   ...       0.07
freq.    1008.69  E(vib)   ...       0.02
freq.    1056.18  E(vib)   ...       0.02
freq.    1249.13  E(vib)   ...       0.01
freq.    1366.54  E(vib)   ...       0.01
freq.    1491.04  E(vib)   ...       0.00
freq.    3050.82  E(vib)   ...       0.00
freq.    3135.85  E(vib)   ...       0.00

------------
INNER ENERGY
------------

The inner energy is: U= E(el) + E(ZPE) + E(vib) + E(rot) + E(trans)
    E(el)   - is the total energy from the electronic structure calculation
              = E(kin-el) + E(nuc-el) + E(el-el) + E(nuc-nuc)
    E(ZPE)  - the the zero temperature vibrational energy from the frequency calculation
    E(vib)  - the the finite temperature correction to E(ZPE) due to population
              of excited vibrational states
    E(rot)  - is the rotational thermal energy
    E(trans)- is the translational thermal energy

Summary of contributions to the inner energy U:
Electronic energy                ...   -599.31518206 Eh
Zero point energy                ...      0.03060022 Eh      19.20 kcal/mol
Thermal vibrational correction   ...      0.00054046 Eh       0.34 kcal/mol
Thermal rotational correction    ...      0.00141627 Eh       0.89 kcal/mol
Thermal translational correction ...      0.00141627 Eh       0.89 kcal/mol
-----------------------------------------------------------------------
Total thermal energy                   -599.28120884 Eh

Summary of corrections to the electronic energy:
(perhaps to be used in another calculation)
Total thermal correction                  0.00337300 Eh       2.12 kcal/mol
Non-thermal (ZPE) correction              0.03060022 Eh      19.20 kcal/mol
-----------------------------------------------------------------------
Total correction                          0.03397322 Eh      21.32 kcal/mol

--------
ENTHALPY
--------

The enthalpy is H = U + kB*T
                kB is Boltzmann's constant
Total thermal energy              ...   -599.28120884 Eh
Thermal Enthalpy correction       ...      0.00094421 Eh       0.59 kcal/mol
-----------------------------------------------------------------------
Total Enthalpy                    ...   -599.28026463 Eh

Note: Rotational entropy computed according to Herzberg
Infrared and Raman Spectra, Chapter V,1, Van Nostrand Reinhold, 1945
Point Group:  Cs, Symmetry Number:   1
Rotational constants in cm-1:     1.387151     0.183509     0.167463

Vibrational entropy computed according to the QRRHO of S. Grimme
Chem.Eur.J. 2012 18 9955 using a reference frequency of 100.0 cm-1

-------
ENTROPY
-------

The entropy contributions are T*S = T*(S(el)+S(vib)+S(rot)+S(trans))
     S(el)   - electronic entropy
     S(vib)  - vibrational entropy
     S(rot)  - rotational entropy
     S(trans)- translational entropy
The entropies will be listed as multiplied by the temperature to get
units of energy

Electronic entropy                ...      0.00000000 Eh      0.00 kcal/mol
Vibrational entropy               ...      0.00076107 Eh      0.48 kcal/mol
Rotational entropy                ...      0.01100036 Eh      6.90 kcal/mol
Translational entropy             ...      0.01833496 Eh     11.51 kcal/mol
-----------------------------------------------------------------------
Final entropy term                ...      0.03009639 Eh     18.89 kcal/mol

In case the symmetry of your molecule has not been determined correctly
or in case you have a reason to use a different symmetry number we print
out the resulting rotational entropy values for sn=1,12:

 non-linear molecules -----------------------------------
|  sn= 1 | S(rot)=       0.01100036 Eh      6.90 kcal/mol|
|  sn= 2 | S(rot)=       0.01034591 Eh      6.49 kcal/mol|
|  sn= 3 | S(rot)=       0.00996307 Eh      6.25 kcal/mol|
|  sn= 4 | S(rot)=       0.00969145 Eh      6.08 kcal/mol|
|  sn= 5 | S(rot)=       0.00948076 Eh      5.95 kcal/mol|
|  sn= 6 | S(rot)=       0.00930862 Eh      5.84 kcal/mol|
|  sn= 7 | S(rot)=       0.00916307 Eh      5.75 kcal/mol|
|  sn= 8 | S(rot)=       0.00903699 Eh      5.67 kcal/mol|
|  sn= 9 | S(rot)=       0.00892579 Eh      5.60 kcal/mol|
|  sn=10 | S(rot)=       0.00882631 Eh      5.54 kcal/mol|
|  sn=11 | S(rot)=       0.00873632 Eh      5.48 kcal/mol|
|  sn=12 | S(rot)=       0.00865416 Eh      5.43 kcal/mol|
 linear molecules ---------------------------------------
|  Dinfh | S(rot)=       0.00701305 Eh      4.40 kcal/mol|
|  Cinfv | S(rot)=       0.00766750 Eh      4.81 kcal/mol|
 --------------------------------------------------------

-------------------
GIBBS FREE ENERGY
-------------------

The Gibbs free energy is G = H - T*S

Total enthalpy                    ...   -599.28026463 Eh
Total entropy correction          ...     -0.03009639 Eh    -18.89 kcal/mol
-----------------------------------------------------------------------
Final Gibbs free energy         ...   -599.31036103 Eh

For completeness - the Gibbs free energy minus the electronic energy
G-E(el)                           ...      0.00482104 Eh      3.03 kcal/mol

                             ****ORCA TERMINATED NORMALLY****
TOTAL RUN TIME: 0 days 0 hours 0 minutes 44 seconds 683 msec
