                         Program Version 6.0.1  -  RELEASE   -
|  1> ! r2scan-3c def2/J RI DEFGRID2 scfconv6 printgap
|  2> %output
|  3>     printlevel normal
|  4> end
|  5> * xyz 0 1
|  6> C 0.3984993583 -1.7052078296 0.1562614338
|  7> C 0.4527194641 -0.271921303 -0.3356553152
|  8> H 0.3121102611 -0.2251290311 -1.4185487953
|  9> C -0.5433336934 0.6368402004 0.3638718127
| 10> Cl -2.2062674163 0.1647687827 -0.0708368888
| 11> Cl 2.0853038674 0.4078345004 -0.0175945933
| 12> H -0.5906643985 -2.1147829738 -0.0361571086
| 13> H 1.1366767203 -2.3117693747 -0.3614912631
| 14> H 0.5967329318 -1.748648943 1.2248009201
| 15> H -0.4540907422 0.5563594975 1.4473696835
| 16> H -0.4148808407 1.6746149031 0.0562171578
| 17> *
| 18>
| 19>                          ****END OF INPUT****

CARTESIAN COORDINATES (ANGSTROEM)
---------------------------------
  C      0.398499   -1.705208    0.156261
  C      0.452719   -0.271921   -0.335655
  H      0.312110   -0.225129   -1.418549
  C     -0.543334    0.636840    0.363872
  Cl    -2.206267    0.164769   -0.070837
  Cl     2.085304    0.407835   -0.017595
  H     -0.590664   -2.114783   -0.036157
  H      1.136677   -2.311769   -0.361491
  H      0.596733   -1.748649    1.224801
  H     -0.454091    0.556359    1.447370
  H     -0.414881    1.674615    0.056217

 Total Charge           Charge          ....    0
 Multiplicity           Mult            ....    1
 Number of Electrons    NEL             ....   58
 Basis Dimension        Dim             ....  141

ORBITAL ENERGIES
----------------

  NO   OCC          E(Eh)            E(eV)
   0   2.0000    -101.215800     -2754.2219
   1   2.0000    -101.212638     -2754.1359
   2   2.0000     -10.116867      -275.2940
   3   2.0000     -10.108094      -275.0552
   4   2.0000     -10.041443      -273.2416
   5   2.0000      -9.371915      -255.0228
   6   2.0000      -9.368796      -254.9379
   7   2.0000      -7.118198      -193.6960
   8   2.0000      -7.114945      -193.6075
   9   2.0000      -7.108012      -193.4189
  10   2.0000      -7.107787      -193.4127
  11   2.0000      -7.104983      -193.3364
  12   2.0000      -7.104751      -193.3301
  13   2.0000      -0.861945       -23.4547
  14   2.0000      -0.814042       -22.1512
  15   2.0000      -0.720149       -19.5962
  16   2.0000      -0.662820       -18.0362
  17   2.0000      -0.569644       -15.5008
  18   2.0000      -0.470516       -12.8034
  19   2.0000      -0.449068       -12.2198
  20   2.0000      -0.428945       -11.6722
  21   2.0000      -0.398151       -10.8342
  22   2.0000      -0.370022       -10.0688
  23   2.0000      -0.358575        -9.7573
  24   2.0000      -0.350118        -9.5272
  25   2.0000      -0.293422        -7.9844
  26   2.0000      -0.279064        -7.5937
  27   2.0000      -0.278529        -7.5792
  28   2.0000      -0.273427        -7.4403
  29   0.0000      -0.019512        -0.5309
  30   0.0000       0.017616         0.4793
  31   0.0000       0.090854         2.4723
  32   0.0000       0.107685         2.9303
  33   0.0000       0.114702         3.1212

MULLIKEN ATOMIC CHARGES
-----------------------
   0 C :   -0.470089
   1 C :    0.020535
   2 H :    0.177085
   3 C :   -0.181236
   4 Cl:   -0.185899
   5 Cl:   -0.192909
   6 H :    0.166914
   7 H :    0.162317
   8 H :    0.156477
   9 H :    0.167706
  10 H :    0.179100
Sum of atomic charges:    0.0000000

LOEWDIN ATOMIC CHARGES
----------------------
   0 C :   -0.429495
   1 C :   -0.285960
   2 H :    0.167079
   3 C :   -0.342928
   4 Cl:    0.024647
   5 Cl:    0.040948
   6 H :    0.167304
   7 H :    0.162962
   8 H :    0.161878
   9 H :    0.166401
  10 H :    0.167163

  Mayer bond orders larger than 0.100000
B(  0-C ,  1-C ) :   0.9351 B(  0-C ,  6-H ) :   0.9514 B(  0-C ,  7-H ) :   0.9643
B(  0-C ,  8-H ) :   0.9739 B(  1-C ,  2-H ) :   0.9385 B(  1-C ,  3-C ) :   0.9298
B(  1-C ,  5-Cl) :   0.9281 B(  3-C ,  4-Cl) :   0.9592 B(  3-C ,  9-H ) :   0.9585
B(  3-C , 10-H ) :   0.9491

Dispersion correction           -0.002982679
FINAL SINGLE POINT ENERGY     -1038.253276813063

DIPOLE MOMENT
-------------

Method             : SCF
Type of density    : Electron Density
Multiplicity       :   1
Irrep              :   0
Energy             : -1038.2599916748126816 Eh
Relativity type    :
Basis              : AO
                                X                 Y                 Z
Electronic contribution:     -0.716548440       4.464407880      -0.923274041
Nuclear contribution   :      0.712019137      -4.680132922       0.974486719
                        -----------------------------------------
Total Dipole Moment    :     -0.004529303      -0.215725042       0.051212679
                        -----------------------------------------
Magnitude (a.u.)       :      0.221766875
Magnitude (Debye)      :      0.563686600

Rotational constants in cm-1:             0.231165             0.048671             0.042054
Rotational constants in MHz :          6930.148497          1459.115708          1260.748147

                             ****ORCA TERMINATED NORMALLY****
TOTAL RUN TIME: 0 days 0 hours 0 minutes 7 seconds 161 msec
