                         Program Version 6.0.1  -  RELEASE   -
|  1> ! pbe def2-sv(p) def2/J RI DEFGRID1 loosescf d4 GCP(DFT/SV(P)) printgap
|  2> %output
|  3>     printlevel normal
|  4> end
|  5> * xyz 0 1
|  6> C -1.3756184047 -0.5894333181 7.0025e-06
|  7> S 1.10209e-05 0.5938677798 -1.4159e-06
|  8> C 1.3755916786 -0.58945197 3.4442e-06
|  9> H -1.3247396496 -1.2056098698 0.8936283506
| 10> H -1.3246644902 -1.2054922818 -0.8937020567
| 11> H -2.2922698722 -0.0096475572 -6.731e-06
| 12> H 1.3246259251 -1.2055881704 0.8936086356
| 13> H 2.2922586414 -0.0096818444 0.0001329134
| 14> H 1.3247573759 -1.2055417644 -0.893740565
| 15> *
| 16>
| 17>                          ****END OF INPUT****

CARTESIAN COORDINATES (ANGSTROEM)
---------------------------------
  C     -1.375618   -0.589433    0.000007
  S      0.000011    0.593868   -0.000001
  C      1.375592   -0.589452    0.000003
  H     -1.324740   -1.205610    0.893628
  H     -1.324664   -1.205492   -0.893702
  H     -2.292270   -0.009648   -0.000007
  H      1.324626   -1.205588    0.893609
  H      2.292259   -0.009682    0.000133
  H      1.324757   -1.205542   -0.893741

 Total Charge           Charge          ....    0
 Multiplicity           Mult            ....    1
 Number of Electrons    NEL             ....   34
 Basis Dimension        Dim             ....   58

ORBITAL ENERGIES
----------------

  NO   OCC          E(Eh)            E(eV)
   0   2.0000     -88.010622     -2394.8908
   1   2.0000      -9.904399      -269.5124
   2   2.0000      -9.904354      -269.5112
   3   2.0000      -7.654911      -208.3007
   4   2.0000      -5.683928      -154.6675
   5   2.0000      -5.679655      -154.5513
   6   2.0000      -5.670706      -154.3077
   7   2.0000      -0.720984       -19.6190
   8   2.0000      -0.631604       -17.1868
   9   2.0000      -0.530415       -14.4333
  10   2.0000      -0.397355       -10.8126
  11   2.0000      -0.393617       -10.7109
  12   2.0000      -0.379589       -10.3291
  13   2.0000      -0.363556        -9.8929
  14   2.0000      -0.323687        -8.8080
  15   2.0000      -0.271597        -7.3905
  16   2.0000      -0.175956        -4.7880
  17   0.0000       0.022529         0.6130
  18   0.0000       0.039230         1.0675
  19   0.0000       0.066616         1.8127
  20   0.0000       0.087561         2.3827
  21   0.0000       0.090911         2.4738

MULLIKEN ATOMIC CHARGES
-----------------------
   0 C :   -0.375866
   1 S :   -0.096315
   2 C :   -0.375869
   3 H :    0.138450
   4 H :    0.138448
   5 H :    0.147127
   6 H :    0.138447
   7 H :    0.147126
   8 H :    0.138453
Sum of atomic charges:    0.0000000

LOEWDIN ATOMIC CHARGES
----------------------
   0 C :   -0.455820
   1 S :    0.170720
   2 C :   -0.455826
   3 H :    0.119864
   4 H :    0.119865
   5 H :    0.130734
   6 H :    0.119865
   7 H :    0.130734
   8 H :    0.119863

  Mayer bond orders larger than 0.100000
B(  0-C ,  1-S ) :   1.0488 B(  0-C ,  3-H ) :   0.9455 B(  0-C ,  4-H ) :   0.9455
B(  0-C ,  5-H ) :   0.9516 B(  1-S ,  2-C ) :   1.0488 B(  2-C ,  6-H ) :   0.9455
B(  2-C ,  7-H ) :   0.9516 B(  2-C ,  8-H ) :   0.9455

Dispersion correction           -0.005148033
FINAL SINGLE POINT ENERGY      -477.487558024966

DIPOLE MOMENT
-------------

Method             : SCF
Type of density    : Electron Density
Multiplicity       :   1
Irrep              :   0
Energy             :  -477.5167739397779769 Eh
Relativity type    :
Basis              : AO
                                X                 Y                 Z
Electronic contribution:      0.000028060       3.967165046       0.000085043
Nuclear contribution   :     -0.000030406      -4.559387202      -0.000074499
                        -----------------------------------------
Total Dipole Moment    :     -0.000002346      -0.592222156       0.000010543
                        -----------------------------------------
Magnitude (a.u.)       :      0.592222156
Magnitude (Debye)      :      1.505309091

Rotational constants in cm-1:             0.586690             0.254090             0.190185
Rotational constants in MHz :         17588.528901          7617.426164          5701.588392

                             ****ORCA TERMINATED NORMALLY****
TOTAL RUN TIME: 0 days 0 hours 0 minutes 17 seconds 763 msec
