                         Program Version 6.0.0  -   RELEASE  -
|  1> ! r2SCAN-3c DEF2-TZVP FREQ
|  2> * xyzfile 0 1 censo.xyz
|  3>
|  4>                          ****END OF INPUT****

CARTESIAN COORDINATES (ANGSTROEM)
---------------------------------
  C     -2.994808    0.646246   -0.754736
  C     -2.271843    0.363119    0.567428
  C     -0.850475   -0.080371    0.338419
  C     -0.547987   -1.433178    0.144556
  C      0.759648   -1.827445   -0.124299
  C      1.784921   -0.889090   -0.204402
  C      1.481748    0.458126   -0.010501
  C      0.175371    0.862681    0.258877
  O      2.447300    1.441244   -0.072183
  H     -2.484274    1.436989   -1.314372
  H     -4.025774    0.966605   -0.573923
  H     -3.020898   -0.250235   -1.383069
  H     -2.811923   -0.415998    1.116295
  H     -2.279401    1.266916    1.186232
  H     -1.339306   -2.174646    0.206340
  H      0.990207   -2.878494   -0.270116
  H      2.807592   -1.192151   -0.410822
  H     -0.034652    1.918512    0.406776
  H      3.302320    1.031514   -0.265733

 Total Charge           Charge          ....    0
 Multiplicity           Mult            ....    1
 Number of Electrons    NEL             ....   66
 Basis Dimension        Dim             ....  339

ORBITAL ENERGIES
----------------

  NO   OCC          E(Eh)            E(eV)
   0   2.0000     -18.984539      -516.5956
   1   2.0000     -10.095381      -274.7093
   2   2.0000     -10.043742      -273.3041
   3   2.0000     -10.038611      -273.1645
   4   2.0000     -10.034778      -273.0602
   5   2.0000     -10.033924      -273.0370
   6   2.0000     -10.027864      -272.8721
   7   2.0000     -10.026943      -272.8470
   8   2.0000     -10.023627      -272.7568
   9   2.0000      -1.021325       -27.7917
  10   2.0000      -0.820671       -22.3316
  11   2.0000      -0.753043       -20.4913
  12   2.0000      -0.708273       -19.2731
  13   2.0000      -0.688592       -18.7375
  14   2.0000      -0.606437       -16.5020
  15   2.0000      -0.573010       -15.5924
  16   2.0000      -0.562892       -15.3171
  17   2.0000      -0.492113       -13.3911
  18   2.0000      -0.465234       -12.6597
  19   2.0000      -0.444330       -12.0908
  20   2.0000      -0.415192       -11.2979
  21   2.0000      -0.400600       -10.9009
  22   2.0000      -0.388132       -10.5616
  23   2.0000      -0.379448       -10.3253
  24   2.0000      -0.362543        -9.8653
  25   2.0000      -0.355676        -9.6784
  26   2.0000      -0.342272        -9.3137
  27   2.0000      -0.322394        -8.7728
  28   2.0000      -0.309645        -8.4259
  29   2.0000      -0.302134        -8.2215
  30   2.0000      -0.298879        -8.1329
  31   2.0000      -0.229089        -6.2338
  32   2.0000      -0.204736        -5.5712
  33   0.0000      -0.033328        -0.9069
  34   0.0000      -0.017840        -0.4855
  35   0.0000       0.036628         0.9967
  36   0.0000       0.052928         1.4403
  37   0.0000       0.070108         1.9077

MULLIKEN ATOMIC CHARGES
-----------------------
   0 C :   -0.326424
   1 C :   -0.181807
   2 C :    0.295896
   3 C :   -0.272590
   4 C :   -0.078042
   5 C :   -0.245517
   6 C :    0.328868
   7 C :   -0.339690
   8 O :   -0.401079
   9 H :    0.109461
  10 H :    0.104492
  11 H :    0.107623
  12 H :    0.090925
  13 H :    0.091861
  14 H :    0.099204
  15 H :    0.108172
  16 H :    0.094005
  17 H :    0.102310
  18 H :    0.312332
Sum of atomic charges:    0.0000000

LOEWDIN ATOMIC CHARGES
----------------------
   0 C :   -0.296215
   1 C :   -0.240962
   2 C :   -0.145440
   3 C :   -0.134064
   4 C :   -0.140395
   5 C :   -0.154562
   6 C :   -0.263327
   7 C :   -0.096126
   8 O :    0.069192
   9 H :    0.120441
  10 H :    0.116769
  11 H :    0.119953
  12 H :    0.139902
  13 H :    0.139865
  14 H :    0.144149
  15 H :    0.143375
  16 H :    0.139604
  17 H :    0.151312
  18 H :    0.186530

  Mayer bond orders larger than 0.100000
B(  0-C ,  1-C ) :   0.9725 B(  0-C ,  9-H ) :   0.9749 B(  0-C , 10-H ) :   0.9704
B(  0-C , 11-H ) :   0.9750 B(  1-C ,  2-C ) :   0.8807 B(  1-C , 12-H ) :   0.9737
B(  1-C , 13-H ) :   0.9749 B(  2-C ,  3-C ) :   1.3174 B(  2-C ,  7-C ) :   1.3447
B(  3-C ,  4-C ) :   1.4246 B(  3-C , 14-H ) :   0.9830 B(  4-C ,  5-C ) :   1.3787
B(  4-C , 15-H ) :   0.9598 B(  5-C ,  6-C ) :   1.3201 B(  5-C , 16-H ) :   0.9653
B(  6-C ,  7-C ) :   1.3801 B(  6-C ,  8-O ) :   1.1103 B(  7-C , 17-H ) :   0.9890
B(  8-O , 18-H ) :   0.8863

Dispersion correction           -0.006077337
FINAL SINGLE POINT ENERGY      -386.030904662198

DIPOLE MOMENT
-------------

Method             : SCF
Type of density    : Electron Density
Multiplicity       :   1
Irrep              :   0
Energy             :  -386.0314446279650724 Eh
Relativity type    :
Basis              : AO
                                X                 Y                 Z
Electronic contribution:      8.552216868      -0.063414398       1.127432490
Nuclear contribution   :     -8.355989807      -0.247476125      -1.232077847
                        -----------------------------------------
Total Dipole Moment    :      0.196227061      -0.310890523      -0.104645357
                        -----------------------------------------
Magnitude (a.u.)       :      0.382241583
Magnitude (Debye)      :      0.971580891

VIBRATIONAL FREQUENCIES
-----------------------

Scaling factor for frequencies =  1.000000000  (already applied!)

     0:       0.00 cm**-1
     1:       0.00 cm**-1
     2:       0.00 cm**-1
     3:       0.00 cm**-1
     4:       0.00 cm**-1
     5:       0.00 cm**-1
     6:      50.78 cm**-1
     7:     133.69 cm**-1
     8:     233.36 cm**-1
     9:     238.86 cm**-1
    10:     311.72 cm**-1
    11:     326.60 cm**-1
    12:     424.30 cm**-1
    13:     458.55 cm**-1
    14:     463.21 cm**-1
    15:     527.02 cm**-1
    16:     544.63 cm**-1
    17:     633.21 cm**-1
    18:     706.88 cm**-1
    19:     738.79 cm**-1
    20:     771.09 cm**-1
    21:     799.53 cm**-1
    22:     852.46 cm**-1
    23:     878.59 cm**-1
    24:     917.33 cm**-1
    25:     935.81 cm**-1
    26:     989.54 cm**-1
    27:    1017.91 cm**-1
    28:    1069.51 cm**-1
    29:    1079.22 cm**-1
    30:    1115.79 cm**-1
    31:    1161.76 cm**-1
    32:    1183.49 cm**-1
    33:    1214.66 cm**-1
    34:    1269.04 cm**-1
    35:    1278.77 cm**-1
    36:    1336.63 cm**-1
    37:    1340.10 cm**-1
    38:    1366.84 cm**-1
    39:    1397.14 cm**-1
    40:    1479.57 cm**-1
    41:    1488.11 cm**-1
    42:    1497.11 cm**-1
    43:    1499.60 cm**-1
    44:    1515.86 cm**-1
    45:    1617.13 cm**-1
    46:    1645.54 cm**-1
    47:    3004.12 cm**-1
    48:    3017.79 cm**-1
    49:    3060.87 cm**-1
    50:    3085.60 cm**-1
    51:    3090.92 cm**-1
    52:    3149.53 cm**-1
    53:    3157.36 cm**-1
    54:    3161.97 cm**-1
    55:    3173.69 cm**-1
    56:    3753.93 cm**-1

IR SPECTRUM
-----------

 Mode   freq       eps      Int      T**2         TX        TY        TZ
       cm**-1   L/(mol*cm) km/mol    a.u.
----------------------------------------------------------------------------
  6:     50.78   0.000015    0.08  0.000092  ( 0.006994  0.005620  0.003409)
  7:    133.69   0.000394    1.99  0.000919  (-0.004680  0.002846 -0.029820)
  8:    233.36   0.000073    0.37  0.000097  ( 0.006802  0.007146  0.000313)
  9:    238.86   0.000037    0.19  0.000048  ( 0.001978 -0.000946  0.006568)
 10:    311.72   0.000330    1.67  0.000331  (-0.009241 -0.007278 -0.013873)
 11:    326.60   0.000512    2.59  0.000489  ( 0.014011  0.015600 -0.007027)
 12:    424.30   0.019170   96.88  0.014099  (-0.021104  0.012152 -0.116216)
 13:    458.55   0.001138    5.75  0.000774  ( 0.021484  0.017573 -0.002029)
 14:    463.21   0.000544    2.75  0.000367  (-0.003972  0.001870 -0.018635)
 15:    527.02   0.000155    0.79  0.000092  (-0.001051 -0.004888 -0.008185)
 16:    544.63   0.000498    2.52  0.000286  ( 0.009038  0.013451 -0.004798)
 17:    633.21   0.000299    1.51  0.000147  (-0.004471  0.000192 -0.011284)
 18:    706.88   0.005346   27.02  0.002360  (-0.010518  0.004480 -0.047219)
 19:    738.79   0.000930    4.70  0.000393  ( 0.009302  0.009683 -0.014581)
 20:    771.09   0.006869   34.71  0.002780  ( 0.010761 -0.004725  0.051398)
 21:    799.53   0.000210    1.06  0.000082  ( 0.001841  0.005379  0.007055)
 22:    852.46   0.000093    0.47  0.000034  ( 0.001626  0.000604  0.005586)
 23:    878.59   0.002679   13.54  0.000951  ( 0.006831 -0.001651  0.030033)
 24:    917.33   0.007986   40.36  0.002717  (-0.046334 -0.023410  0.004678)
 25:    935.81   0.000033    0.17  0.000011  ( 0.002062  0.001805  0.001869)
 26:    989.54   0.002200   11.12  0.000694  (-0.017266 -0.019894 -0.000197)
 27:   1017.91   0.000589    2.98  0.000181  ( 0.009473  0.009520 -0.000387)
 28:   1069.51   0.002548   12.88  0.000744  ( 0.026708 -0.004835 -0.002623)
 29:   1079.22   0.000709    3.58  0.000205  (-0.013637  0.004305  0.000722)
 30:   1115.79   0.000406    2.05  0.000114  ( 0.009370 -0.004836 -0.001532)
 31:   1161.76   0.012642   63.89  0.003396  ( 0.042313  0.040060 -0.000838)
 32:   1183.49   0.000588    2.97  0.000155  (-0.000541 -0.012296 -0.001878)
 33:   1214.66   0.015541   78.54  0.003993  (-0.047161 -0.041818  0.004459)
 34:   1269.04   0.000062    0.31  0.000015  (-0.003503  0.001722  0.000040)
 35:   1278.77   0.014008   70.79  0.003419  ( 0.043001  0.039361 -0.004493)
 36:   1336.63   0.005514   27.86  0.001287  (-0.027004 -0.023620  0.000449)
 37:   1340.10   0.000583    2.95  0.000136  ( 0.001550  0.011552  0.000048)
 38:   1366.84   0.005110   25.82  0.001167  (-0.030439 -0.015222  0.002891)
 39:   1397.14   0.000702    3.55  0.000157  (-0.005096 -0.002540  0.011152)
 40:   1479.57   0.000303    1.53  0.000064  ( 0.000639  0.004274 -0.006731)
 41:   1488.11   0.001554    7.85  0.000326  (-0.004907 -0.017336 -0.001094)
 42:   1497.11   0.002561   12.94  0.000534  ( 0.014760  0.016580 -0.006409)
 43:   1499.60   0.002175   10.99  0.000453  (-0.010107 -0.016264 -0.009275)
 44:   1515.86   0.007458   37.69  0.001535  (-0.035912 -0.015506  0.002290)
 45:   1617.13   0.016593   83.85  0.003202  (-0.035791 -0.043820  0.000904)
 46:   1645.54   0.007945   40.15  0.001507  (-0.038402  0.004639  0.003236)
 47:   3004.12   0.006595   33.33  0.000685  ( 0.019771 -0.006721  0.015779)
 48:   3017.79   0.005831   29.47  0.000603  ( 0.010029 -0.001943 -0.022330)
 49:   3060.87   0.000483    2.44  0.000049  ( 0.001640  0.006813  0.000363)
 50:   3085.60   0.008912   45.04  0.000901  ( 0.026671 -0.007103 -0.011812)
 51:   3090.92   0.007129   36.03  0.000720  ( 0.007223  0.025798  0.001425)
 52:   3149.53   0.000601    3.04  0.000060  ( 0.005338  0.005559 -0.000391)
 53:   3157.36   0.003989   20.16  0.000394  (-0.018999 -0.005107  0.002697)
 54:   3161.97   0.001375    6.95  0.000136  ( 0.001476 -0.011438 -0.001630)
 55:   3173.69   0.002482   12.54  0.000244  (-0.003943  0.015046  0.001469)
 56:   3753.93   0.010346   52.28  0.000860  ( 0.028851  0.002504 -0.004625)

--------------------------
THERMOCHEMISTRY AT 298.15K
--------------------------

Temperature         ...   298.15 K
Pressure            ...     1.00 atm
Total Mass          ...   122.17 AMU
Quasi RRHO          ...     True
Cut-Off Frequency   ...     1.00 cm^-1

Throughout the following assumptions are being made:
  (1) The electronic state is orbitally nondegenerate
  (2) There are no thermally accessible electronically excited states
  (3) Hindered rotations indicated by low frequency modes are not
      treated as such but are treated as vibrations and this may
      cause some error
  (4) All equations used are the standard statistical mechanics
      equations for an ideal gas
  (5) All vibrations are strictly harmonic

freq.      50.78  E(vib)   ...       0.52
freq.     133.69  E(vib)   ...       0.42
freq.     233.36  E(vib)   ...       0.32
freq.     238.86  E(vib)   ...       0.32
freq.     311.72  E(vib)   ...       0.25
freq.     326.60  E(vib)   ...       0.24
freq.     424.30  E(vib)   ...       0.18
freq.     458.55  E(vib)   ...       0.16
freq.     463.21  E(vib)   ...       0.16
freq.     527.02  E(vib)   ...       0.13
freq.     544.63  E(vib)   ...       0.12
freq.     633.21  E(vib)   ...       0.09
freq.     706.88  E(vib)   ...       0.07
freq.     738.79  E(vib)   ...       0.06
freq.     771.09  E(vib)   ...       0.05
freq.     799.53  E(vib)   ...       0.05
freq.     852.46  E(vib)   ...       0.04
freq.     878.59  E(vib)   ...       0.04
freq.     917.33  E(vib)   ...       0.03
freq.     935.81  E(vib)   ...       0.03
freq.     989.54  E(vib)   ...       0.02
freq.    1017.91  E(vib)   ...       0.02
freq.    1069.51  E(vib)   ...       0.02
freq.    1079.22  E(vib)   ...       0.02
freq.    1115.79  E(vib)   ...       0.01
freq.    1161.76  E(vib)   ...       0.01
freq.    1183.49  E(vib)   ...       0.01
freq.    1214.66  E(vib)   ...       0.01
freq.    1269.04  E(vib)   ...       0.01
freq.    1278.77  E(vib)   ...       0.01
freq.    1336.63  E(vib)   ...       0.01
freq.    1340.10  E(vib)   ...       0.01
freq.    1366.84  E(vib)   ...       0.01
freq.    1397.14  E(vib)   ...       0.00
freq.    1479.57  E(vib)   ...       0.00
freq.    1488.11  E(vib)   ...       0.00
freq.    1497.11  E(vib)   ...       0.00
freq.    1499.60  E(vib)   ...       0.00
freq.    1515.86  E(vib)   ...       0.00
freq.    1617.13  E(vib)   ...       0.00
freq.    1645.54  E(vib)   ...       0.00
freq.    3004.12  E(vib)   ...       0.00
freq.    3017.79  E(vib)   ...       0.00
freq.    3060.87  E(vib)   ...       0.00
freq.    3085.60  E(vib)   ...       0.00
freq.    3090.92  E(vib)   ...       0.00
freq.    3149.53  E(vib)   ...       0.00
freq.    3157.36  E(vib)   ...       0.00
freq.    3161.97  E(vib)   ...       0.00
freq.    3173.69  E(vib)   ...       0.00
freq.    3753.93  E(vib)   ...       0.00

------------
INNER ENERGY
------------

The inner energy is: U= E(el) + E(ZPE) + E(vib) + E(rot) + E(trans)
    E(el)   - is the total energy from the electronic structure calculation
              = E(kin-el) + E(nuc-el) + E(el-el) + E(nuc-nuc)
    E(ZPE)  - the the zero temperature vibrational energy from the frequency calculation
    E(vib)  - the the finite temperature correction to E(ZPE) due to population
              of excited vibrational states
    E(rot)  - is the rotational thermal energy
    E(trans)- is the translational thermal energy

Summary of contributions to the inner energy U:
Electronic energy                ...   -386.03090466 Eh
Zero point energy                ...      0.15984876 Eh     100.31 kcal/mol
Thermal vibrational correction   ...      0.00553818 Eh       3.48 kcal/mol
Thermal rotational correction    ...      0.00141627 Eh       0.89 kcal/mol
Thermal translational correction ...      0.00141627 Eh       0.89 kcal/mol
-----------------------------------------------------------------------
Total thermal energy                   -385.86268518 Eh

Summary of corrections to the electronic energy:
(perhaps to be used in another calculation)
Total thermal correction                  0.00837072 Eh       5.25 kcal/mol
Non-thermal (ZPE) correction              0.15984876 Eh     100.31 kcal/mol
-----------------------------------------------------------------------
Total correction                          0.16821948 Eh     105.56 kcal/mol

--------
ENTHALPY
--------

The enthalpy is H = U + kB*T
                kB is Boltzmann's constant
Total thermal energy              ...   -385.86268518 Eh
Thermal Enthalpy correction       ...      0.00094421 Eh       0.59 kcal/mol
-----------------------------------------------------------------------
Total Enthalpy                    ...   -385.86174097 Eh

Note: Only C1 symmetry has been detected, increase convergence thresholds
      if your molecule has a higher symmetry. Symmetry factor of 1.0 is
      used for the rotational entropy correction.

Note: Rotational entropy computed according to Herzberg
Infrared and Raman Spectra, Chapter V,1, Van Nostrand Reinhold, 1945
Point Group:  C1, Symmetry Number:   1
Rotational constants in cm-1:     0.098600     0.038524     0.029767

Vibrational entropy computed according to the QRRHO of S. Grimme
Chem.Eur.J. 2012 18 9955 using a reference frequency of 100.0 cm-1

-------
ENTROPY
-------

The entropy contributions are T*S = T*(S(el)+S(vib)+S(rot)+S(trans))
     S(el)   - electronic entropy
     S(vib)  - vibrational entropy
     S(rot)  - rotational entropy
     S(trans)- translational entropy
The entropies will be listed as multiplied by the temperature to get
units of energy

Electronic entropy                ...      0.00000000 Eh      0.00 kcal/mol
Vibrational entropy               ...      0.00902614 Eh      5.66 kcal/mol
Rotational entropy                ...      0.01380094 Eh      8.66 kcal/mol
Translational entropy             ...      0.01915481 Eh     12.02 kcal/mol
-----------------------------------------------------------------------
Final entropy term                ...      0.04198188 Eh     26.34 kcal/mol

In case the symmetry of your molecule has not been determined correctly
or in case you have a reason to use a different symmetry number we print
out the resulting rotational entropy values for sn=1,12:

 non-linear molecules -----------------------------------
|  sn= 1 | S(rot)=       0.01380094 Eh      8.66 kcal/mol|
|  sn= 2 | S(rot)=       0.01314648 Eh      8.25 kcal/mol|
|  sn= 3 | S(rot)=       0.01276365 Eh      8.01 kcal/mol|
|  sn= 4 | S(rot)=       0.01249203 Eh      7.84 kcal/mol|
|  sn= 5 | S(rot)=       0.01228134 Eh      7.71 kcal/mol|
|  sn= 6 | S(rot)=       0.01210920 Eh      7.60 kcal/mol|
|  sn= 7 | S(rot)=       0.01196365 Eh      7.51 kcal/mol|
|  sn= 8 | S(rot)=       0.01183757 Eh      7.43 kcal/mol|
|  sn= 9 | S(rot)=       0.01172636 Eh      7.36 kcal/mol|

                             ****ORCA TERMINATED NORMALLY****
TOTAL RUN TIME: 0 days 0 hours 16 minutes 6 seconds 768 msec
