                         Program Version 6.0.0  -   RELEASE  -
|  1> ! r2SCAN-3c DEF2-TZVP FREQ
|  2> * xyzfile 0 1 vacuum_censo.xyz
|  3>
|  4>                          ****END OF INPUT****

CARTESIAN COORDINATES (ANGSTROEM)
---------------------------------
  C     -2.991861    0.653585   -0.755869
  C     -2.271709    0.354459    0.565683
  C     -0.848579   -0.086059    0.337047
  C     -0.543488   -1.436822    0.142393
  C      0.762864   -1.827435   -0.126884
  C      1.783806   -0.885717   -0.205811
  C      1.480822    0.461042   -0.009843
  C      0.173181    0.857959    0.260058
  O      2.431920    1.445033   -0.068792
  H     -3.010395   -0.234368   -1.395304
  H     -2.476622    1.447839   -1.304762
  H     -4.023889    0.971557   -0.578228
  H     -2.813401   -0.428573    1.108111
  H     -2.282624    1.248734    1.198828
  H     -1.332147   -2.180618    0.204589
  H      0.995712   -2.877477   -0.273668
  H      2.805007   -1.194861   -0.413984
  H     -0.032096    1.913604    0.410284
  H      3.286580    1.042282   -0.258586

 Total Charge           Charge          ....    0
 Multiplicity           Mult            ....    1
 Number of Electrons    NEL             ....   66
 Basis Dimension        Dim             ....  339

ORBITAL ENERGIES
----------------

  NO   OCC          E(Eh)            E(eV)
   0   2.0000     -18.985391      -516.6187
   1   2.0000     -10.094703      -274.6908
   2   2.0000     -10.042960      -273.2828
   3   2.0000     -10.037737      -273.1407
   4   2.0000     -10.034495      -273.0525
   5   2.0000     -10.033250      -273.0186
   6   2.0000     -10.026639      -272.8387
   7   2.0000     -10.025970      -272.8205
   8   2.0000     -10.023283      -272.7474
   9   2.0000      -1.026161       -27.9233
  10   2.0000      -0.820835       -22.3361
  11   2.0000      -0.752504       -20.4767
  12   2.0000      -0.708628       -19.2828
  13   2.0000      -0.688275       -18.7289
  14   2.0000      -0.606674       -16.5084
  15   2.0000      -0.573543       -15.6069
  16   2.0000      -0.563831       -15.3426
  17   2.0000      -0.492915       -13.4129
  18   2.0000      -0.465156       -12.6576
  19   2.0000      -0.444677       -12.1003
  20   2.0000      -0.415006       -11.2929
  21   2.0000      -0.400547       -10.8994
  22   2.0000      -0.387554       -10.5459
  23   2.0000      -0.380829       -10.3629
  24   2.0000      -0.362785        -9.8719
  25   2.0000      -0.356188        -9.6924
  26   2.0000      -0.342034        -9.3072
  27   2.0000      -0.322642        -8.7795
  28   2.0000      -0.309023        -8.4090
  29   2.0000      -0.302745        -8.2381
  30   2.0000      -0.298501        -8.1226
  31   2.0000      -0.228909        -6.2289
  32   2.0000      -0.204325        -5.5600
  33   0.0000      -0.032726        -0.8905
  34   0.0000      -0.016920        -0.4604
  35   0.0000       0.037346         1.0162
  36   0.0000       0.053565         1.4576
  37   0.0000       0.070436         1.9167

MULLIKEN ATOMIC CHARGES
-----------------------
   0 C :   -0.326307
   1 C :   -0.182929
   2 C :    0.294401
   3 C :   -0.271023
   4 C :   -0.079534
   5 C :   -0.246107
   6 C :    0.327442
   7 C :   -0.336369
   8 O :   -0.398618
   9 H :    0.107635
  10 H :    0.109365
  11 H :    0.104735
  12 H :    0.090840
  13 H :    0.091882
  14 H :    0.098668
  15 H :    0.108187
  16 H :    0.093975
  17 H :    0.101459
  18 H :    0.312297
Sum of atomic charges:    0.0000000

LOEWDIN ATOMIC CHARGES
----------------------
   0 C :   -0.296082
   1 C :   -0.240419
   2 C :   -0.145991
   3 C :   -0.134699
   4 C :   -0.141111
   5 C :   -0.154809
   6 C :   -0.271246
   7 C :   -0.096290
   8 O :    0.080556
   9 H :    0.119867
  10 H :    0.120271
  11 H :    0.116596
  12 H :    0.139530
  13 H :    0.139668
  14 H :    0.144187
  15 H :    0.143439
  16 H :    0.139741
  17 H :    0.151253
  18 H :    0.185537

  Mayer bond orders larger than 0.100000
B(  0-C ,  1-C ) :   0.9727 B(  0-C ,  9-H ) :   0.9752 B(  0-C , 10-H ) :   0.9752
B(  0-C , 11-H ) :   0.9702 B(  1-C ,  2-C ) :   0.8807 B(  1-C , 12-H ) :   0.9741
B(  1-C , 13-H ) :   0.9749 B(  2-C ,  3-C ) :   1.3178 B(  2-C ,  7-C ) :   1.3471
B(  3-C ,  4-C ) :   1.4273 B(  3-C , 14-H ) :   0.9833 B(  4-C ,  5-C ) :   1.3790
B(  4-C , 15-H ) :   0.9596 B(  5-C ,  6-C ) :   1.3186 B(  5-C , 16-H ) :   0.9644
B(  6-C ,  7-C ) :   1.3779 B(  6-C ,  8-O ) :   1.1172 B(  7-C , 17-H ) :   0.9898
B(  8-O , 18-H ) :   0.8867

Dispersion correction           -0.006081381
FINAL SINGLE POINT ENERGY      -386.031116955523

DIPOLE MOMENT
-------------

Method             : SCF
Type of density    : Electron Density
Multiplicity       :   1
Irrep              :   0
Energy             :  -386.0316535088159071 Eh
Relativity type    :
Basis              : AO
                                X                 Y                 Z
Electronic contribution:      8.554099804      -0.051000385       1.124806515
Nuclear contribution   :     -8.334577411      -0.244469075      -1.228567117
                        -----------------------------------------
Total Dipole Moment    :      0.219522393      -0.295469460      -0.103760602
                        -----------------------------------------
Magnitude (a.u.)       :      0.382437636
Magnitude (Debye)      :      0.972079218

VIBRATIONAL FREQUENCIES
-----------------------

Scaling factor for frequencies =  1.000000000  (already applied!)

     0:       0.00 cm**-1
     1:       0.00 cm**-1
     2:       0.00 cm**-1
     3:       0.00 cm**-1
     4:       0.00 cm**-1
     5:       0.00 cm**-1
     6:      47.60 cm**-1
     7:     131.28 cm**-1
     8:     224.65 cm**-1
     9:     232.10 cm**-1
    10:     309.11 cm**-1
    11:     323.78 cm**-1
    12:     363.82 cm**-1
    13:     454.56 cm**-1
    14:     461.39 cm**-1
    15:     527.02 cm**-1
    16:     547.08 cm**-1
    17:     631.69 cm**-1
    18:     705.81 cm**-1
    19:     740.56 cm**-1
    20:     771.11 cm**-1
    21:     796.82 cm**-1
    22:     853.25 cm**-1
    23:     877.18 cm**-1
    24:     920.62 cm**-1
    25:     935.41 cm**-1
    26:     989.15 cm**-1
    27:    1019.65 cm**-1
    28:    1069.52 cm**-1
    29:    1078.75 cm**-1
    30:    1117.89 cm**-1
    31:    1167.24 cm**-1
    32:    1184.40 cm**-1
    33:    1208.08 cm**-1
    34:    1267.96 cm**-1
    35:    1293.66 cm**-1
    36:    1337.75 cm**-1
    37:    1341.31 cm**-1
    38:    1372.22 cm**-1
    39:    1395.50 cm**-1
    40:    1480.97 cm**-1
    41:    1486.64 cm**-1
    42:    1499.37 cm**-1
    43:    1503.93 cm**-1
    44:    1518.05 cm**-1
    45:    1623.40 cm**-1
    46:    1650.94 cm**-1
    47:    3008.67 cm**-1
    48:    3015.70 cm**-1
    49:    3057.65 cm**-1
    50:    3090.14 cm**-1
    51:    3094.08 cm**-1
    52:    3145.69 cm**-1
    53:    3158.15 cm**-1
    54:    3168.46 cm**-1
    55:    3175.98 cm**-1
    56:    3805.67 cm**-1

IR SPECTRUM
-----------

 Mode   freq       eps      Int      T**2         TX        TY        TZ
       cm**-1   L/(mol*cm) km/mol    a.u.
----------------------------------------------------------------------------
  6:     47.60   0.000018    0.09  0.000118  ( 0.007651  0.006499  0.004094)
  7:    131.28   0.000579    2.92  0.001375  (-0.005748  0.003585 -0.036462)
  8:    224.65   0.000071    0.36  0.000099  (-0.006872 -0.007151 -0.000883)
  9:    232.10   0.000105    0.53  0.000141  ( 0.002700 -0.001640  0.011462)
 10:    309.11   0.000675    3.41  0.000682  ( 0.011990  0.007916  0.021802)
 11:    323.78   0.000715    3.61  0.000689  (-0.012741 -0.017155  0.015246)
 12:    363.82   0.018451   93.24  0.015826  (-0.022110  0.012639 -0.123197)
 13:    454.56   0.001180    5.96  0.000810  ( 0.021403  0.018367 -0.003845)
 14:    461.39   0.000838    4.24  0.000567  (-0.006083  0.001319 -0.022985)
 15:    527.02   0.000107    0.54  0.000063  ( 0.000013 -0.003978 -0.006892)
 16:    547.08   0.000412    2.08  0.000235  ( 0.008016  0.012623 -0.003387)
 17:    631.69   0.000197    0.99  0.000097  (-0.004155 -0.000094 -0.008942)
 18:    705.81   0.005161   26.08  0.002282  ( 0.009976 -0.004620  0.046485)
 19:    740.56   0.000800    4.04  0.000337  ( 0.007397  0.008531 -0.014473)
 20:    771.11   0.006876   34.75  0.002783  ( 0.010710 -0.004861  0.051425)
 21:    796.82   0.000263    1.33  0.000103  ( 0.002266  0.005918  0.007916)
 22:    853.25   0.000077    0.39  0.000028  ( 0.001419  0.000706  0.005057)
 23:    877.18   0.002746   13.88  0.000977  ( 0.006639 -0.002094  0.030470)
 24:    920.62   0.006997   35.36  0.002372  (-0.043666 -0.021103  0.004425)
 25:    935.41   0.000036    0.18  0.000012  ( 0.002436  0.001982  0.001494)
 26:    989.15   0.002352   11.89  0.000742  (-0.018613 -0.019887 -0.000187)
 27:   1019.65   0.000691    3.49  0.000211  ( 0.010481  0.010067 -0.000385)
 28:   1069.52   0.002517   12.72  0.000735  ( 0.026583 -0.004595 -0.002602)
 29:   1078.75   0.000617    3.12  0.000178  (-0.012480  0.004700  0.000780)
 30:   1117.89   0.000493    2.49  0.000138  ( 0.010969 -0.003833 -0.001653)
 31:   1167.24   0.012737   64.37  0.003405  ( 0.041940  0.040569 -0.000579)
 32:   1184.40   0.001048    5.30  0.000276  (-0.004884 -0.015827 -0.001377)
 33:   1208.08   0.014458   73.06  0.003735  (-0.045838 -0.040147  0.004657)
 34:   1267.96   0.000275    1.39  0.000068  (-0.007868 -0.002326  0.000540)
 35:   1293.66   0.013342   67.43  0.003219  ( 0.040705  0.039305 -0.004087)
 36:   1337.75   0.007296   36.87  0.001702  (-0.030446 -0.027834  0.000564)
 37:   1341.31   0.000241    1.22  0.000056  (-0.002838  0.006934 -0.000105)
 38:   1372.22   0.004699   23.75  0.001069  (-0.029648 -0.013448  0.002979)
 39:   1395.50   0.000737    3.73  0.000165  (-0.005470 -0.003005  0.011220)
 40:   1480.97   0.000263    1.33  0.000055  ( 0.000276  0.004226 -0.006129)
 41:   1486.64   0.001735    8.77  0.000364  (-0.005451 -0.018249 -0.001232)
 42:   1499.37   0.000771    3.90  0.000161  ( 0.005358  0.001864 -0.011330)
 43:   1503.93   0.004019   20.31  0.000834  ( 0.017297  0.023004  0.002348)
 44:   1518.05   0.007738   39.10  0.001591  (-0.036034 -0.016984  0.001944)
 45:   1623.40   0.016538   83.58  0.003179  (-0.033417 -0.045410  0.000575)
 46:   1650.94   0.009525   48.13  0.001800  (-0.042299 -0.000149  0.003341)
 47:   3008.67   0.006624   33.48  0.000687  ( 0.020766 -0.007110  0.014328)
 48:   3015.70   0.006167   31.16  0.000638  ( 0.009399 -0.001458 -0.023402)
 49:   3057.65   0.001097    5.54  0.000112  ( 0.002728  0.010206  0.000559)
 50:   3090.14   0.008510   43.01  0.000859  ( 0.025848 -0.006834 -0.012025)
 51:   3094.08   0.006643   33.57  0.000670  ( 0.007175  0.024817  0.001615)
 52:   3145.69   0.001922    9.71  0.000191  ( 0.012698  0.005182 -0.001594)
 53:   3158.15   0.002752   13.90  0.000272  (-0.016200 -0.001744  0.002532)
 54:   3168.46   0.001667    8.42  0.000164  ( 0.000881 -0.012678 -0.001622)
 55:   3175.98   0.002360   11.93  0.000232  (-0.002077  0.015042  0.001150)
 56:   3805.67   0.010510   53.11  0.000862  ( 0.028890  0.002550 -0.004549)

--------------------------
THERMOCHEMISTRY AT 298.15K
--------------------------

Temperature         ...   298.15 K
Pressure            ...     1.00 atm
Total Mass          ...   122.17 AMU
Quasi RRHO          ...     True
Cut-Off Frequency   ...     1.00 cm^-1

Throughout the following assumptions are being made:
  (1) The electronic state is orbitally nondegenerate
  (2) There are no thermally accessible electronically excited states
  (3) Hindered rotations indicated by low frequency modes are not
      treated as such but are treated as vibrations and this may
      cause some error
  (4) All equations used are the standard statistical mechanics
      equations for an ideal gas
  (5) All vibrations are strictly harmonic

freq.      47.60  E(vib)   ...       0.53
freq.     131.28  E(vib)   ...       0.42
freq.     224.65  E(vib)   ...       0.33
freq.     232.10  E(vib)   ...       0.32
freq.     309.11  E(vib)   ...       0.26
freq.     323.78  E(vib)   ...       0.25
freq.     363.82  E(vib)   ...       0.22
freq.     454.56  E(vib)   ...       0.16
freq.     461.39  E(vib)   ...       0.16
freq.     527.02  E(vib)   ...       0.13
freq.     547.08  E(vib)   ...       0.12
freq.     631.69  E(vib)   ...       0.09
freq.     705.81  E(vib)   ...       0.07
freq.     740.56  E(vib)   ...       0.06
freq.     771.11  E(vib)   ...       0.05
freq.     796.82  E(vib)   ...       0.05
freq.     853.25  E(vib)   ...       0.04
freq.     877.18  E(vib)   ...       0.04
freq.     920.62  E(vib)   ...       0.03
freq.     935.41  E(vib)   ...       0.03
freq.     989.15  E(vib)   ...       0.02
freq.    1019.65  E(vib)   ...       0.02
freq.    1069.52  E(vib)   ...       0.02
freq.    1078.75  E(vib)   ...       0.02
freq.    1117.89  E(vib)   ...       0.01
freq.    1167.24  E(vib)   ...       0.01
freq.    1184.40  E(vib)   ...       0.01
freq.    1208.08  E(vib)   ...       0.01
freq.    1267.96  E(vib)   ...       0.01
freq.    1293.66  E(vib)   ...       0.01
freq.    1337.75  E(vib)   ...       0.01
freq.    1341.31  E(vib)   ...       0.01
freq.    1372.22  E(vib)   ...       0.01
freq.    1395.50  E(vib)   ...       0.00
freq.    1480.97  E(vib)   ...       0.00
freq.    1486.64  E(vib)   ...       0.00
freq.    1499.37  E(vib)   ...       0.00
freq.    1503.93  E(vib)   ...       0.00
freq.    1518.05  E(vib)   ...       0.00
freq.    1623.40  E(vib)   ...       0.00
freq.    1650.94  E(vib)   ...       0.00
freq.    3008.67  E(vib)   ...       0.00
freq.    3015.70  E(vib)   ...       0.00
freq.    3057.65  E(vib)   ...       0.00
freq.    3090.14  E(vib)   ...       0.00
freq.    3094.08  E(vib)   ...       0.00
freq.    3145.69  E(vib)   ...       0.00
freq.    3158.15  E(vib)   ...       0.00
freq.    3168.46  E(vib)   ...       0.00
freq.    3175.98  E(vib)   ...       0.00
freq.    3805.67  E(vib)   ...       0.00

------------
INNER ENERGY
------------

The inner energy is: U= E(el) + E(ZPE) + E(vib) + E(rot) + E(trans)
    E(el)   - is the total energy from the electronic structure calculation
              = E(kin-el) + E(nuc-el) + E(el-el) + E(nuc-nuc)
    E(ZPE)  - the the zero temperature vibrational energy from the frequency calculation
    E(vib)  - the the finite temperature correction to E(ZPE) due to population
              of excited vibrational states
    E(rot)  - is the rotational thermal energy
    E(trans)- is the translational thermal energy

Summary of contributions to the inner energy U:
Electronic energy                ...   -386.03111696 Eh
Zero point energy                ...      0.15988508 Eh     100.33 kcal/mol
Thermal vibrational correction   ...      0.00564065 Eh       3.54 kcal/mol
Thermal rotational correction    ...      0.00141627 Eh       0.89 kcal/mol
Thermal translational correction ...      0.00141627 Eh       0.89 kcal/mol
-----------------------------------------------------------------------
Total thermal energy                   -385.86275868 Eh

Summary of corrections to the electronic energy:
(perhaps to be used in another calculation)
Total thermal correction                  0.00847319 Eh       5.32 kcal/mol
Non-thermal (ZPE) correction              0.15988508 Eh     100.33 kcal/mol
-----------------------------------------------------------------------
Total correction                          0.16835827 Eh     105.65 kcal/mol

--------
ENTHALPY
--------

The enthalpy is H = U + kB*T
                kB is Boltzmann's constant
Total thermal energy              ...   -385.86275868 Eh
Thermal Enthalpy correction       ...      0.00094421 Eh       0.59 kcal/mol
-----------------------------------------------------------------------
Total Enthalpy                    ...   -385.86181447 Eh

Note: Only C1 symmetry has been detected, increase convergence thresholds
      if your molecule has a higher symmetry. Symmetry factor of 1.0 is
      used for the rotational entropy correction.

Note: Rotational entropy computed according to Herzberg
Infrared and Raman Spectra, Chapter V,1, Van Nostrand Reinhold, 1945
Point Group:  C1, Symmetry Number:   1
Rotational constants in cm-1:     0.098449     0.038679     0.029847

Vibrational entropy computed according to the QRRHO of S. Grimme
Chem.Eur.J. 2012 18 9955 using a reference frequency of 100.0 cm-1

-------
ENTROPY
-------

The entropy contributions are T*S = T*(S(el)+S(vib)+S(rot)+S(trans))
     S(el)   - electronic entropy
     S(vib)  - vibrational entropy
     S(rot)  - rotational entropy
     S(trans)- translational entropy
The entropies will be listed as multiplied by the temperature to get
units of energy

Electronic entropy                ...      0.00000000 Eh      0.00 kcal/mol
Vibrational entropy               ...      0.00924647 Eh      5.80 kcal/mol
Rotational entropy                ...      0.01379850 Eh      8.66 kcal/mol
Translational entropy             ...      0.01915481 Eh     12.02 kcal/mol
-----------------------------------------------------------------------
Final entropy term                ...      0.04219977 Eh     26.48 kcal/mol

In case the symmetry of your molecule has not been determined correctly
or in case you have a reason to use a different symmetry number we print
out the resulting rotational entropy values for sn=1,12:

 non-linear molecules -----------------------------------
|  sn= 1 | S(rot)=       0.01379850 Eh      8.66 kcal/mol|
|  sn= 2 | S(rot)=       0.01314405 Eh      8.25 kcal/mol|
|  sn= 3 | S(rot)=       0.01276121 Eh      8.01 kcal/mol|
|  sn= 4 | S(rot)=       0.01248959 Eh      7.84 kcal/mol|
|  sn= 5 | S(rot)=       0.01227890 Eh      7.71 kcal/mol|
|  sn= 6 | S(rot)=       0.01210676 Eh      7.60 kcal/mol|
|  sn= 7 | S(rot)=       0.01196121 Eh      7.51 kcal/mol|
|  sn= 8 | S(rot)=       0.01183513 Eh      7.43 kcal/mol|
|  sn= 9 | S(rot)=       0.01172392 Eh      7.36 kcal/mol|

                             ****ORCA TERMINATED NORMALLY****
TOTAL RUN TIME: 0 days 0 hours 16 minutes 49 seconds 308 msec
