                         Program Version 6.0.1  -  RELEASE   -
|  1> ! pbe def2-sv(p) def2/J RI DEFGRID1 loosescf d4 GCP(DFT/SV(P)) printgap
|  2> %output
|  3>     printlevel normal
|  4> end
|  5> * xyz 0 1
|  6> C -0.6391116983 -0.3415243749 -0.4448868069
|  7> C 0.65424346 -0.4309565398 0.3846574558
|  8> O 1.6311784867 0.3825091976 -0.2229484174
|  9> O -1.6779743488 0.3491584428 0.2001674981
| 10> H -0.970897437 -1.3472481324 -0.7353740684
| 11> H -0.4164004748 0.2314925932 -1.3467873764
| 12> H 1.0057440331 -1.472224984 0.4323769269
| 13> H 0.4482640151 -0.0868747351 1.4091322578
| 14> H 2.4256722871 0.3928580071 0.3208531022
| 15> H -1.9298681598 -0.1269470677 0.999167922
| 16> *
| 17>
| 18>                          ****END OF INPUT****

CARTESIAN COORDINATES (ANGSTROEM)
---------------------------------
  C     -0.639112   -0.341524   -0.444887
  C      0.654243   -0.430957    0.384657
  O      1.631178    0.382509   -0.222948
  O     -1.677974    0.349158    0.200167
  H     -0.970897   -1.347248   -0.735374
  H     -0.416400    0.231493   -1.346787
  H      1.005744   -1.472225    0.432377
  H      0.448264   -0.086875    1.409132
  H      2.425672    0.392858    0.320853
  H     -1.929868   -0.126947    0.999168

 Total Charge           Charge          ....    0
 Multiplicity           Mult            ....    1
 Number of Electrons    NEL             ....   34
 Basis Dimension        Dim             ....   68

ORBITAL ENERGIES
----------------

  NO   OCC          E(Eh)            E(eV)
   0   2.0000     -18.743349      -510.0325
   1   2.0000     -18.739853      -509.9373
   2   2.0000      -9.931150      -270.2403
   3   2.0000      -9.926114      -270.1033
   4   2.0000      -0.926374       -25.2079
   5   2.0000      -0.913430       -24.8557
   6   2.0000      -0.656130       -17.8542
   7   2.0000      -0.555137       -15.1060
   8   2.0000      -0.472247       -12.8505
   9   2.0000      -0.452297       -12.3076
  10   2.0000      -0.402504       -10.9527
  11   2.0000      -0.365933        -9.9575
  12   2.0000      -0.357732        -9.7344
  13   2.0000      -0.292869        -7.9694
  14   2.0000      -0.268853        -7.3159
  15   2.0000      -0.216904        -5.9023
  16   2.0000      -0.209366        -5.6971
  17   0.0000       0.026980         0.7342
  18   0.0000       0.030859         0.8397
  19   0.0000       0.074030         2.0145
  20   0.0000       0.092047         2.5047
  21   0.0000       0.108004         2.9389

MULLIKEN ATOMIC CHARGES
-----------------------
   0 C :    0.001968
   1 C :   -0.016826
   2 O :   -0.439628
   3 O :   -0.438817
   4 H :    0.072080
   5 H :    0.107719
   6 H :    0.064189
   7 H :    0.063380
   8 H :    0.295832
   9 H :    0.290102
Sum of atomic charges:    0.0000000

LOEWDIN ATOMIC CHARGES
----------------------
   0 C :   -0.136765
   1 C :   -0.144696
   2 O :   -0.345846
   3 O :   -0.336586
   4 H :    0.095100
   5 H :    0.124685
   6 H :    0.091203
   7 H :    0.092462
   8 H :    0.283173
   9 H :    0.277271

  Mayer bond orders larger than 0.100000
B(  0-C ,  1-C ) :   1.0641 B(  0-C ,  3-O ) :   1.0707 B(  0-C ,  4-H ) :   0.9278
B(  0-C ,  5-H ) :   0.9294 B(  1-C ,  2-O ) :   1.0843 B(  1-C ,  6-H ) :   0.9181
B(  1-C ,  7-H ) :   0.9305 B(  2-O ,  8-H ) :   0.8531 B(  3-O ,  9-H ) :   0.8564

Dispersion correction           -0.004709517
FINAL SINGLE POINT ENERGY      -229.716172293751

DIPOLE MOMENT
-------------

Method             : SCF
Type of density    : Electron Density
Multiplicity       :   1
Irrep              :   0
Energy             :  -229.7668365124259822 Eh
Relativity type    :
Basis              : AO
                                X                 Y                 Z
Electronic contribution:     -0.147990920       1.508154429      -0.229899791
Nuclear contribution   :      0.527038703      -2.249145254       1.012290734
                        -----------------------------------------
Total Dipole Moment    :      0.379047783      -0.740990825       0.782390943
                        -----------------------------------------
Magnitude (a.u.)       :      1.142313535
Magnitude (Debye)      :      2.903530259

Rotational constants in cm-1:             0.723471             0.139567             0.137980
Rotational constants in MHz :         21689.112737          4184.112119          4136.535922

                             ****ORCA TERMINATED NORMALLY****
TOTAL RUN TIME: 0 days 0 hours 0 minutes 6 seconds 101 msec
