                         Program Version 6.0.0  -   RELEASE  -
|  1> ! r2SCAN-3c DEF2-TZVP FREQ
|  2> * xyzfile 0 1 censo.xyz
|  3>
|  4>                          ****END OF INPUT****

CARTESIAN COORDINATES (ANGSTROEM)
---------------------------------
  C      1.252573   -0.290768    0.003341
  C      0.011246    0.568052   -0.050102
  O     -1.142216   -0.297228    0.045471
  H      1.301651   -0.847522    0.944517
  H      1.268872   -1.004516   -0.826388
  H      2.144474    0.338938   -0.068922
  H     -0.023983    1.133084   -0.991700
  H      0.006833    1.288151    0.779693
  H     -1.926098    0.264679    0.009873

 Total Charge           Charge          ....    0
 Multiplicity           Mult            ....    1
 Number of Electrons    NEL             ....   26
 Basis Dimension        Dim             ....  129

ORBITAL ENERGIES
----------------

  NO   OCC          E(Eh)            E(eV)
   0   2.0000     -18.944219      -515.4984
   1   2.0000     -10.077928      -274.2344
   2   2.0000     -10.020062      -272.6598
   3   2.0000      -0.973500       -26.4903
   4   2.0000      -0.715662       -19.4741
   5   2.0000      -0.576094       -15.6763
   6   2.0000      -0.478300       -13.0152
   7   2.0000      -0.430645       -11.7184
   8   2.0000      -0.369959       -10.0671
   9   2.0000      -0.350652        -9.5417
  10   2.0000      -0.332532        -9.0486
  11   2.0000      -0.302117        -8.2210
  12   2.0000      -0.236203        -6.4274
  13   0.0000       0.039538         1.0759
  14   0.0000       0.071118         1.9352
  15   0.0000       0.107950         2.9375
  16   0.0000       0.111787         3.0419
  17   0.0000       0.127997         3.4830

MULLIKEN ATOMIC CHARGES
-----------------------
   0 C :   -0.282673
   1 C :    0.003663
   2 O :   -0.466058
   3 H :    0.105289
   4 H :    0.105348
   5 H :    0.095084
   6 H :    0.071470
   7 H :    0.071524
   8 H :    0.296353
Sum of atomic charges:    0.0000000

LOEWDIN ATOMIC CHARGES
----------------------
   0 C :   -0.313139
   1 C :   -0.364884
   2 O :   -0.070076
   3 H :    0.121220
   4 H :    0.121257
   5 H :    0.122002
   6 H :    0.108711
   7 H :    0.108711
   8 H :    0.166198

  Mayer bond orders larger than 0.100000
B(  0-C ,  1-C ) :   0.9956 B(  0-C ,  3-H ) :   0.9711 B(  0-C ,  4-H ) :   0.9710
B(  0-C ,  5-H ) :   0.9660 B(  1-C ,  2-O ) :   1.0221 B(  1-C ,  6-H ) :   0.9627
B(  1-C ,  7-H ) :   0.9627 B(  2-O ,  8-H ) :   0.9074

Dispersion correction           -0.001191905
FINAL SINGLE POINT ENERGY      -155.008601373060

DIPOLE MOMENT
-------------

Method             : SCF
Type of density    : Electron Density
Multiplicity       :   1
Irrep              :   0
Energy             :  -155.0129727173642777 Eh
Relativity type    :
Basis              : AO
                                X                 Y                 Z
Electronic contribution:     -2.618494035      -0.493156903       0.088812714
Nuclear contribution   :      2.620331554       1.125644192      -0.144233355
                        -----------------------------------------
Total Dipole Moment    :      0.001837519       0.632487288      -0.055420641
                        -----------------------------------------
Magnitude (a.u.)       :      0.634913375
Magnitude (Debye)      :      1.613821547

VIBRATIONAL FREQUENCIES
-----------------------

Scaling factor for frequencies =  1.000000000  (already applied!)

     0:       0.00 cm**-1
     1:       0.00 cm**-1
     2:       0.00 cm**-1
     3:       0.00 cm**-1
     4:       0.00 cm**-1
     5:       0.00 cm**-1
     6:     267.04 cm**-1
     7:     339.56 cm**-1
     8:     420.29 cm**-1
     9:     822.06 cm**-1
    10:     877.26 cm**-1
    11:    1028.07 cm**-1
    12:    1081.52 cm**-1
    13:    1169.04 cm**-1
    14:    1280.67 cm**-1
    15:    1294.10 cm**-1
    16:    1395.29 cm**-1
    17:    1440.98 cm**-1
    18:    1477.95 cm**-1
    19:    1493.47 cm**-1
    20:    1513.16 cm**-1
    21:    2976.28 cm**-1
    22:    3012.68 cm**-1
    23:    3013.54 cm**-1
    24:    3095.50 cm**-1
    25:    3095.81 cm**-1
    26:    3782.72 cm**-1

IR SPECTRUM
-----------

 Mode   freq       eps      Int      T**2         TX        TY        TZ
       cm**-1   L/(mol*cm) km/mol    a.u.
----------------------------------------------------------------------------
  6:    267.04   0.001491    7.53  0.001742  (-0.000614 -0.003533 -0.041581)
  7:    339.56   0.022327  112.83  0.020519  ( 0.002775  0.012819  0.142641)
  8:    420.29   0.002309   11.67  0.001714  (-0.039341 -0.012671  0.002470)
  9:    822.06   0.000036    0.18  0.000014  (-0.000108 -0.000221 -0.003700)
 10:    877.26   0.005318   26.87  0.001892  (-0.038187 -0.020663  0.002525)
 11:   1028.07   0.014339   72.46  0.004352  (-0.058567 -0.030147  0.003688)
 12:   1081.52   0.001673    8.46  0.000483  (-0.017840 -0.012741  0.001480)
 13:   1169.04   0.000608    3.07  0.000162  (-0.000171 -0.001076 -0.012694)
 14:   1280.67   0.012409   62.71  0.003024  (-0.041694 -0.035643  0.003861)
 15:   1294.10   0.000039    0.20  0.000009  (-0.000073 -0.000265 -0.003052)
 16:   1395.29   0.000445    2.25  0.000100  (-0.009588  0.002771 -0.000020)
 17:   1440.98   0.002161   10.92  0.000468  (-0.017367  0.012870 -0.000871)
 18:   1477.95   0.001314    6.64  0.000277  ( 0.000205  0.001423  0.016594)
 19:   1493.47   0.000629    3.18  0.000131  (-0.006884 -0.009116  0.000993)
 20:   1513.16   0.000123    0.62  0.000025  (-0.003954  0.003135  0.000075)
 21:   2976.28   0.014009   70.80  0.001469  ( 0.002926  0.038076 -0.003242)
 22:   3012.68   0.010079   50.93  0.001044  (-0.000763 -0.003081 -0.032154)
 23:   3013.54   0.003465   17.51  0.000359  (-0.016233  0.009759 -0.000354)
 24:   3095.50   0.005561   28.11  0.000561  ( 0.011708  0.020270 -0.003561)
 25:   3095.81   0.007122   35.99  0.000718  ( 0.001141  0.003469  0.026544)
 26:   3782.72   0.003787   19.14  0.000312  ( 0.017022 -0.004761  0.000149)

--------------------------
THERMOCHEMISTRY AT 298.15K
--------------------------

Temperature         ...   298.15 K
Pressure            ...     1.00 atm
Total Mass          ...    46.07 AMU
Quasi RRHO          ...     True
Cut-Off Frequency   ...     1.00 cm^-1

Throughout the following assumptions are being made:
  (1) The electronic state is orbitally nondegenerate
  (2) There are no thermally accessible electronically excited states
  (3) Hindered rotations indicated by low frequency modes are not
      treated as such but are treated as vibrations and this may
      cause some error
  (4) All equations used are the standard statistical mechanics
      equations for an ideal gas
  (5) All vibrations are strictly harmonic

freq.     267.04  E(vib)   ...       0.29
freq.     339.56  E(vib)   ...       0.23
freq.     420.29  E(vib)   ...       0.18
freq.     822.06  E(vib)   ...       0.05
freq.     877.26  E(vib)   ...       0.04
freq.    1028.07  E(vib)   ...       0.02
freq.    1081.52  E(vib)   ...       0.02
freq.    1169.04  E(vib)   ...       0.01
freq.    1280.67  E(vib)   ...       0.01
freq.    1294.10  E(vib)   ...       0.01
freq.    1395.29  E(vib)   ...       0.00
freq.    1440.98  E(vib)   ...       0.00
freq.    1477.95  E(vib)   ...       0.00
freq.    1493.47  E(vib)   ...       0.00
freq.    1513.16  E(vib)   ...       0.00
freq.    2976.28  E(vib)   ...       0.00
freq.    3012.68  E(vib)   ...       0.00
freq.    3013.54  E(vib)   ...       0.00
freq.    3095.50  E(vib)   ...       0.00
freq.    3095.81  E(vib)   ...       0.00
freq.    3782.72  E(vib)   ...       0.00

------------
INNER ENERGY
------------

The inner energy is: U= E(el) + E(ZPE) + E(vib) + E(rot) + E(trans)
    E(el)   - is the total energy from the electronic structure calculation
              = E(kin-el) + E(nuc-el) + E(el-el) + E(nuc-nuc)
    E(ZPE)  - the the zero temperature vibrational energy from the frequency calculation
    E(vib)  - the the finite temperature correction to E(ZPE) due to population
              of excited vibrational states
    E(rot)  - is the rotational thermal energy
    E(trans)- is the translational thermal energy

Summary of contributions to the inner energy U:
Electronic energy                ...   -155.00860137 Eh
Zero point energy                ...      0.07945565 Eh      49.86 kcal/mol
Thermal vibrational correction   ...      0.00138868 Eh       0.87 kcal/mol
Thermal rotational correction    ...      0.00141627 Eh       0.89 kcal/mol
Thermal translational correction ...      0.00141627 Eh       0.89 kcal/mol
-----------------------------------------------------------------------
Total thermal energy                   -154.92492450 Eh

Summary of corrections to the electronic energy:
(perhaps to be used in another calculation)
Total thermal correction                  0.00422122 Eh       2.65 kcal/mol
Non-thermal (ZPE) correction              0.07945565 Eh      49.86 kcal/mol
-----------------------------------------------------------------------
Total correction                          0.08367687 Eh      52.51 kcal/mol

--------
ENTHALPY
--------

The enthalpy is H = U + kB*T
                kB is Boltzmann's constant
Total thermal energy              ...   -154.92492450 Eh
Thermal Enthalpy correction       ...      0.00094421 Eh       0.59 kcal/mol
-----------------------------------------------------------------------
Total Enthalpy                    ...   -154.92398029 Eh

Note: Only C1 symmetry has been detected, increase convergence thresholds
      if your molecule has a higher symmetry. Symmetry factor of 1.0 is
      used for the rotational entropy correction.

Note: Rotational entropy computed according to Herzberg
Infrared and Raman Spectra, Chapter V,1, Van Nostrand Reinhold, 1945
Point Group:  C1, Symmetry Number:   1
Rotational constants in cm-1:     1.169155     0.308463     0.268888

Vibrational entropy computed according to the QRRHO of S. Grimme
Chem.Eur.J. 2012 18 9955 using a reference frequency of 100.0 cm-1

-------
ENTROPY
-------

The entropy contributions are T*S = T*(S(el)+S(vib)+S(rot)+S(trans))
     S(el)   - electronic entropy
     S(vib)  - vibrational entropy
     S(rot)  - rotational entropy
     S(trans)- translational entropy
The entropies will be listed as multiplied by the temperature to get
units of energy

Electronic entropy                ...      0.00000000 Eh      0.00 kcal/mol
Vibrational entropy               ...      0.00209003 Eh      1.31 kcal/mol
Rotational entropy                ...      0.01061235 Eh      6.66 kcal/mol
Translational entropy             ...      0.01777359 Eh     11.15 kcal/mol
-----------------------------------------------------------------------
Final entropy term                ...      0.03047597 Eh     19.12 kcal/mol

In case the symmetry of your molecule has not been determined correctly
or in case you have a reason to use a different symmetry number we print
out the resulting rotational entropy values for sn=1,12:

 non-linear molecules -----------------------------------
|  sn= 1 | S(rot)=       0.01061235 Eh      6.66 kcal/mol|
|  sn= 2 | S(rot)=       0.00995790 Eh      6.25 kcal/mol|
|  sn= 3 | S(rot)=       0.00957507 Eh      6.01 kcal/mol|
|  sn= 4 | S(rot)=       0.00930344 Eh      5.84 kcal/mol|
|  sn= 5 | S(rot)=       0.00909275 Eh      5.71 kcal/mol|
|  sn= 6 | S(rot)=       0.00892061 Eh      5.60 kcal/mol|
|  sn= 7 | S(rot)=       0.00877506 Eh      5.51 kcal/mol|
|  sn= 8 | S(rot)=       0.00864898 Eh      5.43 kcal/mol|
|  sn= 9 | S(rot)=       0.00853778 Eh      5.36 kcal/mol|
|  sn=10 | S(rot)=       0.00843830 Eh      5.30 kcal/mol|
|  sn=11 | S(rot)=       0.00834831 Eh      5.24 kcal/mol|
|  sn=12 | S(rot)=       0.00826615 Eh      5.19 kcal/mol|
 linear molecules ---------------------------------------
|  Dinfh | S(rot)=       0.00656595 Eh      4.12 kcal/mol|
|  Cinfv | S(rot)=       0.00722041 Eh      4.53 kcal/mol|
 --------------------------------------------------------

-------------------
GIBBS FREE ENERGY
-------------------

The Gibbs free energy is G = H - T*S

Total enthalpy                    ...   -154.92398029 Eh
Total entropy correction          ...     -0.03047597 Eh    -19.12 kcal/mol
-----------------------------------------------------------------------
Final Gibbs free energy         ...   -154.95445626 Eh

For completeness - the Gibbs free energy minus the electronic energy
G-E(el)                           ...      0.05414511 Eh     33.98 kcal/mol

                             ****ORCA TERMINATED NORMALLY****
TOTAL RUN TIME: 0 days 0 hours 1 minutes 39 seconds 276 msec
