                         Program Version 6.0.0  -   RELEASE  -
|  1> ! r2SCAN-3c DEF2-TZVP FREQ
|  2> * xyzfile 0 1 vacuum_censo.xyz
|  3>
|  4>                          ****END OF INPUT****

CARTESIAN COORDINATES (ANGSTROEM)
---------------------------------
  C      1.250758   -0.286641    0.003690
  C      0.006721    0.573910   -0.049681
  O     -1.128195   -0.296676    0.044592
  H      1.255387   -1.000895   -0.824357
  H      2.148635    0.334735   -0.065770
  H      1.285933   -0.847526    0.941799
  H     -0.019462    1.143168   -0.992207
  H      0.010436    1.296544    0.781519
  H     -1.924384    0.243018    0.011094

 Total Charge           Charge          ....    0
 Multiplicity           Mult            ....    1
 Number of Electrons    NEL             ....   26
 Basis Dimension        Dim             ....  129

ORBITAL ENERGIES
----------------

  NO   OCC          E(Eh)            E(eV)
   0   2.0000     -18.944955      -515.5184
   1   2.0000     -10.077843      -274.2321
   2   2.0000     -10.018967      -272.6299
   3   2.0000      -0.977596       -26.6017
   4   2.0000      -0.714692       -19.4478
   5   2.0000      -0.575948       -15.6723
   6   2.0000      -0.481566       -13.1041
   7   2.0000      -0.430331       -11.7099
   8   2.0000      -0.369451       -10.0533
   9   2.0000      -0.351387        -9.5617
  10   2.0000      -0.331807        -9.0289
  11   2.0000      -0.301056        -8.1922
  12   2.0000      -0.236871        -6.4456
  13   0.0000       0.040210         1.0942
  14   0.0000       0.071670         1.9502
  15   0.0000       0.108000         2.9388
  16   0.0000       0.112338         3.0569
  17   0.0000       0.128701         3.5021

MULLIKEN ATOMIC CHARGES
-----------------------
   0 C :   -0.282605
   1 C :    0.007933
   2 O :   -0.464430
   3 H :    0.104504
   4 H :    0.094643
   5 H :    0.104474
   6 H :    0.069421
   7 H :    0.069478
   8 H :    0.296581
Sum of atomic charges:    0.0000000

LOEWDIN ATOMIC CHARGES
----------------------
   0 C :   -0.312948
   1 C :   -0.372769
   2 O :   -0.058827
   3 H :    0.120775
   4 H :    0.120901
   5 H :    0.120760
   6 H :    0.108313
   7 H :    0.108313
   8 H :    0.165483

  Mayer bond orders larger than 0.100000
B(  0-C ,  1-C ) :   0.9940 B(  0-C ,  3-H ) :   0.9715 B(  0-C ,  4-H ) :   0.9659
B(  0-C ,  5-H ) :   0.9716 B(  1-C ,  2-O ) :   1.0246 B(  1-C ,  6-H ) :   0.9620
B(  1-C ,  7-H ) :   0.9620 B(  2-O ,  8-H ) :   0.9067

Dispersion correction           -0.001192916
FINAL SINGLE POINT ENERGY      -155.008808012433

DIPOLE MOMENT
-------------

Method             : SCF
Type of density    : Electron Density
Multiplicity       :   1
Irrep              :   0
Energy             :  -155.0131753683544957 Eh
Relativity type    :
Basis              : AO
                                X                 Y                 Z
Electronic contribution:     -2.621144111      -0.491678457       0.086755559
Nuclear contribution   :      2.589999232       1.106804876      -0.139577460
                        -----------------------------------------
Total Dipole Moment    :     -0.031144879       0.615126419      -0.052821901
                        -----------------------------------------
Magnitude (a.u.)       :      0.618175273
Magnitude (Debye)      :      1.571276673

VIBRATIONAL FREQUENCIES
-----------------------

Scaling factor for frequencies =  1.000000000  (already applied!)

     0:       0.00 cm**-1
     1:       0.00 cm**-1
     2:       0.00 cm**-1
     3:       0.00 cm**-1
     4:       0.00 cm**-1
     5:       0.00 cm**-1
     6:     249.48 cm**-1
     7:     293.26 cm**-1
     8:     423.75 cm**-1
     9:     824.71 cm**-1
    10:     891.54 cm**-1
    11:    1026.25 cm**-1
    12:    1091.44 cm**-1
    13:    1174.18 cm**-1
    14:    1274.33 cm**-1
    15:    1295.32 cm**-1
    16:    1392.76 cm**-1
    17:    1441.84 cm**-1
    18:    1476.60 cm**-1
    19:    1493.05 cm**-1
    20:    1517.92 cm**-1
    21:    2952.37 cm**-1
    22:    2986.42 cm**-1
    23:    3018.99 cm**-1
    24:    3101.00 cm**-1
    25:    3103.57 cm**-1
    26:    3817.07 cm**-1

IR SPECTRUM
-----------

 Mode   freq       eps      Int      T**2         TX        TY        TZ
       cm**-1   L/(mol*cm) km/mol    a.u.
----------------------------------------------------------------------------
  6:    249.48   0.010344   52.27  0.012938  (-0.001824 -0.009846 -0.113305)
  7:    293.26   0.014049   71.00  0.014950  ( 0.002175  0.010847  0.121769)
  8:    423.75   0.002267   11.46  0.001669  (-0.038553 -0.013382  0.001999)
  9:    824.71   0.000034    0.17  0.000013  (-0.000081 -0.000204 -0.003570)
 10:    891.54   0.003722   18.81  0.001303  (-0.031302 -0.017845  0.002100)
 11:   1026.25   0.014402   72.78  0.004379  (-0.058115 -0.031437  0.003691)
 12:   1091.44   0.003273   16.54  0.000936  (-0.025711 -0.016461  0.001927)
 13:   1174.18   0.000635    3.21  0.000169  (-0.000176 -0.001093 -0.012945)
 14:   1274.33   0.012705   64.21  0.003111  ( 0.040888  0.037732 -0.003965)
 15:   1295.32   0.000042    0.21  0.000010  ( 0.000101  0.000284  0.003168)
 16:   1392.76   0.000500    2.53  0.000112  (-0.009626  0.004406 -0.000185)
 17:   1441.84   0.002163   10.93  0.000468  ( 0.017966 -0.012030  0.000796)
 18:   1476.60   0.001337    6.76  0.000283  (-0.000199 -0.001434 -0.016746)
 19:   1493.05   0.000649    3.28  0.000136  (-0.007561 -0.008811  0.000951)
 20:   1517.92   0.000214    1.08  0.000044  ( 0.006283 -0.002122 -0.000196)
 21:   2952.37   0.015072   76.17  0.001593  (-0.003585 -0.039608  0.003379)
 22:   2986.42   0.011742   59.34  0.001227  ( 0.000679  0.003377  0.034859)
 23:   3018.99   0.003505   17.71  0.000362  ( 0.016798 -0.008937  0.000505)
 24:   3101.00   0.005375   27.16  0.000541  ( 0.011153  0.020326 -0.001829)
 25:   3103.57   0.006356   32.12  0.000639  (-0.000359 -0.002020 -0.025197)
 26:   3817.07   0.003915   19.78  0.000320  (-0.017298  0.004561 -0.000134)

--------------------------
THERMOCHEMISTRY AT 298.15K
--------------------------

Temperature         ...   298.15 K
Pressure            ...     1.00 atm
Total Mass          ...    46.07 AMU
Quasi RRHO          ...     True
Cut-Off Frequency   ...     1.00 cm^-1

Throughout the following assumptions are being made:
  (1) The electronic state is orbitally nondegenerate
  (2) There are no thermally accessible electronically excited states
  (3) Hindered rotations indicated by low frequency modes are not
      treated as such but are treated as vibrations and this may
      cause some error
  (4) All equations used are the standard statistical mechanics
      equations for an ideal gas
  (5) All vibrations are strictly harmonic

freq.     249.48  E(vib)   ...       0.31
freq.     293.26  E(vib)   ...       0.27
freq.     423.75  E(vib)   ...       0.18
freq.     824.71  E(vib)   ...       0.04
freq.     891.54  E(vib)   ...       0.03
freq.    1026.25  E(vib)   ...       0.02
freq.    1091.44  E(vib)   ...       0.02
freq.    1174.18  E(vib)   ...       0.01
freq.    1274.33  E(vib)   ...       0.01
freq.    1295.32  E(vib)   ...       0.01
freq.    1392.76  E(vib)   ...       0.00
freq.    1441.84  E(vib)   ...       0.00
freq.    1476.60  E(vib)   ...       0.00
freq.    1493.05  E(vib)   ...       0.00
freq.    1517.92  E(vib)   ...       0.00
freq.    2952.37  E(vib)   ...       0.00
freq.    2986.42  E(vib)   ...       0.00
freq.    3018.99  E(vib)   ...       0.00
freq.    3101.00  E(vib)   ...       0.00
freq.    3103.57  E(vib)   ...       0.00
freq.    3817.07  E(vib)   ...       0.00

------------
INNER ENERGY
------------

The inner energy is: U= E(el) + E(ZPE) + E(vib) + E(rot) + E(trans)
    E(el)   - is the total energy from the electronic structure calculation
              = E(kin-el) + E(nuc-el) + E(el-el) + E(nuc-nuc)
    E(ZPE)  - the the zero temperature vibrational energy from the frequency calculation
    E(vib)  - the the finite temperature correction to E(ZPE) due to population
              of excited vibrational states
    E(rot)  - is the rotational thermal energy
    E(trans)- is the translational thermal energy

Summary of contributions to the inner energy U:
Electronic energy                ...   -155.00880801 Eh
Zero point energy                ...      0.07938467 Eh      49.81 kcal/mol
Thermal vibrational correction   ...      0.00146067 Eh       0.92 kcal/mol
Thermal rotational correction    ...      0.00141627 Eh       0.89 kcal/mol
Thermal translational correction ...      0.00141627 Eh       0.89 kcal/mol
-----------------------------------------------------------------------
Total thermal energy                   -154.92513013 Eh

Summary of corrections to the electronic energy:
(perhaps to be used in another calculation)
Total thermal correction                  0.00429321 Eh       2.69 kcal/mol
Non-thermal (ZPE) correction              0.07938467 Eh      49.81 kcal/mol
-----------------------------------------------------------------------
Total correction                          0.08367788 Eh      52.51 kcal/mol

--------
ENTHALPY
--------

The enthalpy is H = U + kB*T
                kB is Boltzmann's constant
Total thermal energy              ...   -154.92513013 Eh
Thermal Enthalpy correction       ...      0.00094421 Eh       0.59 kcal/mol
-----------------------------------------------------------------------
Total Enthalpy                    ...   -154.92418592 Eh

Note: Only C1 symmetry has been detected, increase convergence thresholds
      if your molecule has a higher symmetry. Symmetry factor of 1.0 is
      used for the rotational entropy correction.

Note: Rotational entropy computed according to Herzberg
Infrared and Raman Spectra, Chapter V,1, Van Nostrand Reinhold, 1945
Point Group:  C1, Symmetry Number:   1
Rotational constants in cm-1:     1.163769     0.312090     0.271303

Vibrational entropy computed according to the QRRHO of S. Grimme
Chem.Eur.J. 2012 18 9955 using a reference frequency of 100.0 cm-1

-------
ENTROPY
-------

The entropy contributions are T*S = T*(S(el)+S(vib)+S(rot)+S(trans))
     S(el)   - electronic entropy
     S(vib)  - vibrational entropy
     S(rot)  - rotational entropy
     S(trans)- translational entropy
The entropies will be listed as multiplied by the temperature to get
units of energy

Electronic entropy                ...      0.00000000 Eh      0.00 kcal/mol
Vibrational entropy               ...      0.00225005 Eh      1.41 kcal/mol
Rotational entropy                ...      0.01060479 Eh      6.65 kcal/mol
Translational entropy             ...      0.01777359 Eh     11.15 kcal/mol
-----------------------------------------------------------------------
Final entropy term                ...      0.03062844 Eh     19.22 kcal/mol

In case the symmetry of your molecule has not been determined correctly
or in case you have a reason to use a different symmetry number we print
out the resulting rotational entropy values for sn=1,12:

 non-linear molecules -----------------------------------
|  sn= 1 | S(rot)=       0.01060479 Eh      6.65 kcal/mol|
|  sn= 2 | S(rot)=       0.00995034 Eh      6.24 kcal/mol|
|  sn= 3 | S(rot)=       0.00956751 Eh      6.00 kcal/mol|
|  sn= 4 | S(rot)=       0.00929588 Eh      5.83 kcal/mol|
|  sn= 5 | S(rot)=       0.00908519 Eh      5.70 kcal/mol|
|  sn= 6 | S(rot)=       0.00891305 Eh      5.59 kcal/mol|
|  sn= 7 | S(rot)=       0.00876750 Eh      5.50 kcal/mol|
|  sn= 8 | S(rot)=       0.00864143 Eh      5.42 kcal/mol|
|  sn= 9 | S(rot)=       0.00853022 Eh      5.35 kcal/mol|
|  sn=10 | S(rot)=       0.00843074 Eh      5.29 kcal/mol|
|  sn=11 | S(rot)=       0.00834075 Eh      5.23 kcal/mol|
|  sn=12 | S(rot)=       0.00825859 Eh      5.18 kcal/mol|
 linear molecules ---------------------------------------
|  Dinfh | S(rot)=       0.00655751 Eh      4.11 kcal/mol|
|  Cinfv | S(rot)=       0.00721197 Eh      4.53 kcal/mol|
 --------------------------------------------------------

-------------------
GIBBS FREE ENERGY
-------------------

The Gibbs free energy is G = H - T*S

Total enthalpy                    ...   -154.92418592 Eh
Total entropy correction          ...     -0.03062844 Eh    -19.22 kcal/mol
-----------------------------------------------------------------------
Final Gibbs free energy         ...   -154.95481436 Eh

For completeness - the Gibbs free energy minus the electronic energy
G-E(el)                           ...      0.05399365 Eh     33.88 kcal/mol

                             ****ORCA TERMINATED NORMALLY****
TOTAL RUN TIME: 0 days 0 hours 1 minutes 42 seconds 399 msec
