                         Program Version 6.0.1  -  RELEASE   -
|  1> ! r2scan-3c def2/J RI DEFGRID2 scfconv6 printgap
|  2> %output
|  3>     printlevel normal
|  4> end
|  5> * xyz 0 1
|  6> C -3.3823189394 -0.8050875148 -0.0464472651
|  7> O -1.9876392627 -0.7640574119 -0.3141155997
|  8> C -1.3490767652 0.3535679622 0.0544824728
|  9> O -1.9038042065 1.2792452314 0.5880502395
| 10> C 0.1271633626 0.3246519189 -0.2918937564
| 11> C 0.6675477021 -1.0802327958 -0.5523086484
| 12> C 2.1479474135 -1.0124987336 -0.9197927974
| 13> C 2.9487159482 -0.3257047874 0.1824901125
| 14> C 2.405800634 1.0765777488 0.4415962775
| 15> C 0.9296736509 1.0131314137 0.8166495317
| 16> H -3.7060951407 -1.8184199984 -0.2699039216
| 17> H -3.9100119008 -0.0871895711 -0.6777121807
| 18> H -3.5747192392 -0.5590608794 0.9996558796
| 19> H 0.2297082671 0.9189597995 -1.2096337023
| 20> H 0.5409722249 -1.6869356881 0.3465906896
| 21> H 0.1043445218 -1.5538519887 -1.3572637528
| 22> H 2.5310062668 -2.0215172446 -1.0846583186
| 23> H 2.2645569997 -0.4547633707 -1.8520448884
| 24> H 2.8806920484 -0.9149286829 1.0997646227
| 25> H 4.0013271023 -0.2709836935 -0.1025717854
| 26> H 2.9696808982 1.5523698457 1.2461071501
| 27> H 2.5274107748 1.6849604578 -0.4576148675
| 28> H 0.8122239371 0.4482532805 1.7443308201
| 29> H 0.5299892385 2.0142765 0.9829971783
| 30> *
| 31>
| 32>                          ****END OF INPUT****

CARTESIAN COORDINATES (ANGSTROEM)
---------------------------------
  C     -3.382319   -0.805088   -0.046447
  O     -1.987639   -0.764057   -0.314116
  C     -1.349077    0.353568    0.054482
  O     -1.903804    1.279245    0.588050
  C      0.127163    0.324652   -0.291894
  C      0.667548   -1.080233   -0.552309
  C      2.147947   -1.012499   -0.919793
  C      2.948716   -0.325705    0.182490
  C      2.405801    1.076578    0.441596
  C      0.929674    1.013131    0.816650
  H     -3.706095   -1.818420   -0.269904
  H     -3.910012   -0.087190   -0.677712
  H     -3.574719   -0.559061    0.999656
  H      0.229708    0.918960   -1.209634
  H      0.540972   -1.686936    0.346591
  H      0.104345   -1.553852   -1.357264
  H      2.531006   -2.021517   -1.084658
  H      2.264557   -0.454763   -1.852045
  H      2.880692   -0.914929    1.099765
  H      4.001327   -0.270984   -0.102572
  H      2.969681    1.552370    1.246107
  H      2.527411    1.684960   -0.457615
  H      0.812224    0.448253    1.744331
  H      0.529989    2.014276    0.982997

 Total Charge           Charge          ....    0
 Multiplicity           Mult            ....    1
 Number of Electrons    NEL             ....   78
 Basis Dimension        Dim             ....  270

ORBITAL ENERGIES
----------------

  NO   OCC          E(Eh)            E(eV)
   0   2.0000     -18.998425      -516.9734
   1   2.0000     -18.930101      -515.1142
   2   2.0000     -10.150010      -276.1958
   3   2.0000     -10.084401      -274.4105
   4   2.0000     -10.046788      -273.3870
   5   2.0000     -10.027049      -272.8499
   6   2.0000     -10.026198      -272.8267
   7   2.0000     -10.025567      -272.8095
   8   2.0000     -10.024914      -272.7918
   9   2.0000     -10.023692      -272.7585
  10   2.0000      -1.073436       -29.2097
  11   2.0000      -0.980609       -26.6837
  12   2.0000      -0.808956       -22.0128
  13   2.0000      -0.735406       -20.0114
  14   2.0000      -0.711444       -19.3594
  15   2.0000      -0.686938       -18.6925
  16   2.0000      -0.596103       -16.2208
  17   2.0000      -0.576774       -15.6948
  18   2.0000      -0.534981       -14.5576
  19   2.0000      -0.525976       -14.3125
  20   2.0000      -0.478833       -13.0297
  21   2.0000      -0.455090       -12.3836
  22   2.0000      -0.438112       -11.9216
  23   2.0000      -0.431517       -11.7422
  24   2.0000      -0.413301       -11.2465
  25   2.0000      -0.409764       -11.1502
  26   2.0000      -0.398689       -10.8489
  27   2.0000      -0.367528       -10.0009
  28   2.0000      -0.359736        -9.7889
  29   2.0000      -0.350314        -9.5325
  30   2.0000      -0.343200        -9.3390
  31   2.0000      -0.321296        -8.7429
  32   2.0000      -0.315890        -8.5958
  33   2.0000      -0.313692        -8.5360
  34   2.0000      -0.295077        -8.0295
  35   2.0000      -0.282141        -7.6775
  36   2.0000      -0.273351        -7.4383
  37   2.0000      -0.269536        -7.3344
  38   2.0000      -0.234469        -6.3802
  39   0.0000      -0.014868        -0.4046
  40   0.0000       0.064070         1.7434
  41   0.0000       0.094807         2.5798
  42   0.0000       0.099683         2.7125
  43   0.0000       0.107716         2.9311

MULLIKEN ATOMIC CHARGES
-----------------------
   0 C :   -0.301804
   1 O :   -0.157238
   2 C :    0.311557
   3 O :   -0.410727
   4 C :   -0.078951
   5 C :   -0.361091
   6 C :   -0.284358
   7 C :   -0.277867
   8 C :   -0.298470
   9 C :   -0.317228
  10 H :    0.149379
  11 H :    0.156125
  12 H :    0.165148
  13 H :    0.177673
  14 H :    0.160699
  15 H :    0.161621
  16 H :    0.147090
  17 H :    0.146314
  18 H :    0.140061
  19 H :    0.147372
  20 H :    0.149285
  21 H :    0.148029
  22 H :    0.150900
  23 H :    0.176480
Sum of atomic charges:   -0.0000000

LOEWDIN ATOMIC CHARGES
----------------------
   0 C :   -0.044885
   1 O :   -0.612262
   2 C :    0.366706
   3 O :   -0.421881
   4 C :   -0.151707
   5 C :   -0.275496
   6 C :   -0.302260
   7 C :   -0.304430
   8 C :   -0.301182
   9 C :   -0.270723
  10 H :    0.174785
  11 H :    0.174090
  12 H :    0.179578
  13 H :    0.185860
  14 H :    0.163579
  15 H :    0.170856
  16 H :    0.156103
  17 H :    0.155122
  18 H :    0.154659
  19 H :    0.154764
  20 H :    0.156875
  21 H :    0.155240
  22 H :    0.162382
  23 H :    0.174227

  Mayer bond orders larger than 0.100000
B(  0-C ,  1-O ) :   0.8510 B(  0-C , 10-H ) :   0.9710 B(  0-C , 11-H ) :   0.9614
B(  0-C , 12-H ) :   0.9645 B(  1-O ,  2-C ) :   1.0838 B(  2-C ,  3-O ) :   1.8435
B(  2-C ,  4-C ) :   0.9881 B(  4-C ,  5-C ) :   0.9369 B(  4-C ,  9-C ) :   0.9133
B(  4-C , 13-H ) :   0.9171 B(  5-C ,  6-C ) :   0.8748 B(  5-C , 14-H ) :   1.0024
B(  5-C , 15-H ) :   0.9445 B(  6-C ,  7-C ) :   0.9178 B(  6-C , 16-H ) :   0.9446
B(  6-C , 17-H ) :   1.0002 B(  7-C ,  8-C ) :   0.9117 B(  7-C , 18-H ) :   0.9867
B(  7-C , 19-H ) :   0.9493 B(  8-C ,  9-C ) :   0.8798 B(  8-C , 20-H ) :   0.9467
B(  8-C , 21-H ) :   1.0047 B(  9-C , 22-H ) :   0.9924 B(  9-C , 23-H ) :   0.9418

Dispersion correction           -0.007555624
FINAL SINGLE POINT ENERGY      -463.635720349921

DIPOLE MOMENT
-------------

Method             : SCF
Type of density    : Electron Density
Multiplicity       :   1
Irrep              :   0
Energy             :  -463.6413036846406612 Eh
Relativity type    :
Basis              : AO
                                X                 Y                 Z
Electronic contribution:     -7.476868033       1.931195335       0.248604089
Nuclear contribution   :      7.636293733      -2.571224845      -0.551293244
                        -----------------------------------------
Total Dipole Moment    :      0.159425700      -0.640029510      -0.302689155
                        -----------------------------------------
Magnitude (a.u.)       :      0.725723813
Magnitude (Debye)      :      1.844643335

Rotational constants in cm-1:             0.097244             0.026287             0.021759
Rotational constants in MHz :          2915.287044           788.075719           652.326669

                             ****ORCA TERMINATED NORMALLY****
TOTAL RUN TIME: 0 days 0 hours 0 minutes 24 seconds 238 msec
