                         Program Version 6.0.1  -  RELEASE   -
|  1> ! pbe def2-sv(p) def2/J RI DEFGRID1 loosescf d4 GCP(DFT/SV(P)) printgap
|  2> %output
|  3>     printlevel normal
|  4> end
|  5> * xyz 0 1
|  6> C -2.49229167 -0.4774750671 1.3081932355
|  7> C -2.0459168747 -0.4725403649 -0.1581686919
|  8> H -2.9487160087 -0.5622693559 -0.7740972952
|  9> C -1.091905902 -1.6144478568 -0.4930447213
| 10> C 0.2612531838 -1.4903880228 0.2145183933
| 11> C 0.7745653743 -0.0376581688 0.2980060532
| 12> H 0.5006973771 0.3768750354 1.2777153613
| 13> C 0.0682631197 0.830221707 -0.7514469963
| 14> C -1.4170985817 0.8686383403 -0.4846795543
| 15> O -2.0557268694 1.8915733535 -0.5134476807
| 16> C 2.2907220901 0.0283769952 0.2234692459
| 17> C 3.0509929493 -0.8967995224 0.7902253732
| 18> C 2.913923209 1.2109075614 -0.4560639797
| 19> H -3.1584193163 0.3619935653 1.4918766993
| 20> H -3.0211764547 -1.400784499 1.5339437549
| 21> H -1.640186543 -0.3938134307 1.9773127131
| 22> H -1.552352758 -2.5662143499 -0.2203945215
| 23> H -0.9377996217 -1.6306088523 -1.5743510719
| 24> H 0.1844865983 -1.9046633104 1.2202170907
| 25> H 0.9859515103 -2.0965065266 -0.332134015
| 26> H 0.4348655311 1.8559607983 -0.7410313489
| 27> H 0.2302323512 0.4155353187 -1.7492678828
| 28> H 4.1255369198 -0.8323656386 0.7627056229
| 29> H 2.6478447982 -1.7477934951 1.309844537
| 30> H 3.9967633151 1.1614040533 -0.3766567568
| 31> H 2.6483733762 1.2407949326 -1.5114605344
| 32> H 2.5786842465 2.1390614534 0.0049674874
| 33> *
| 34>
| 35>                          ****END OF INPUT****

CARTESIAN COORDINATES (ANGSTROEM)
---------------------------------
  C     -2.492292   -0.477475    1.308193
  C     -2.045917   -0.472540   -0.158169
  H     -2.948716   -0.562269   -0.774097
  C     -1.091906   -1.614448   -0.493045
  C      0.261253   -1.490388    0.214518
  C      0.774565   -0.037658    0.298006
  H      0.500697    0.376875    1.277715
  C      0.068263    0.830222   -0.751447
  C     -1.417099    0.868638   -0.484680
  O     -2.055727    1.891573   -0.513448
  C      2.290722    0.028377    0.223469
  C      3.050993   -0.896800    0.790225
  C      2.913923    1.210908   -0.456064
  H     -3.158419    0.361994    1.491877
  H     -3.021176   -1.400784    1.533944
  H     -1.640187   -0.393813    1.977313
  H     -1.552353   -2.566214   -0.220395
  H     -0.937800   -1.630609   -1.574351
  H      0.184487   -1.904663    1.220217
  H      0.985952   -2.096507   -0.332134
  H      0.434866    1.855961   -0.741031
  H      0.230232    0.415535   -1.749268
  H      4.125537   -0.832366    0.762706
  H      2.647845   -1.747793    1.309845
  H      3.996763    1.161404   -0.376657
  H      2.648373    1.240795   -1.511461
  H      2.578684    2.139061    0.004967

 Total Charge           Charge          ....    0
 Multiplicity           Mult            ....    1
 Number of Electrons    NEL             ....   84
 Basis Dimension        Dim             ....  186

ORBITAL ENERGIES
----------------

  NO   OCC          E(Eh)            E(eV)
   0   2.0000     -18.739648      -509.9318
   1   2.0000      -9.969567      -271.2857
   2   2.0000      -9.910549      -269.6797
   3   2.0000      -9.904489      -269.5148
   4   2.0000      -9.901183      -269.4249
   5   2.0000      -9.893513      -269.2162
   6   2.0000      -9.893150      -269.2063
   7   2.0000      -9.891265      -269.1550
   8   2.0000      -9.886219      -269.0177
   9   2.0000      -9.885800      -269.0063
  10   2.0000      -9.874294      -268.6932
  11   2.0000      -0.939422       -25.5630
  12   2.0000      -0.772974       -21.0337
  13   2.0000      -0.730131       -19.8679
  14   2.0000      -0.682789       -18.5796
  15   2.0000      -0.660905       -17.9841
  16   2.0000      -0.622599       -16.9418
  17   2.0000      -0.605585       -16.4788
  18   2.0000      -0.554907       -15.0998
  19   2.0000      -0.532412       -14.4877
  20   2.0000      -0.474695       -12.9171
  21   2.0000      -0.461042       -12.5456
  22   2.0000      -0.444092       -12.0844
  23   2.0000      -0.424964       -11.5639
  24   2.0000      -0.414506       -11.2793
  25   2.0000      -0.404799       -11.0151
  26   2.0000      -0.383843       -10.4449
  27   2.0000      -0.378912       -10.3107
  28   2.0000      -0.374391       -10.1877
  29   2.0000      -0.364160        -9.9093
  30   2.0000      -0.355401        -9.6710
  31   2.0000      -0.346760        -9.4358
  32   2.0000      -0.338256        -9.2044
  33   2.0000      -0.324373        -8.8267
  34   2.0000      -0.322756        -8.7826
  35   2.0000      -0.319840        -8.7033
  36   2.0000      -0.310230        -8.4418
  37   2.0000      -0.286293        -7.7904
  38   2.0000      -0.279390        -7.6026
  39   2.0000      -0.275528        -7.4975
  40   2.0000      -0.219505        -5.9730
  41   2.0000      -0.192042        -5.2257
  42   0.0000      -0.051457        -1.4002
  43   0.0000      -0.019558        -0.5322
  44   0.0000       0.025682         0.6988
  45   0.0000       0.040902         1.1130
  46   0.0000       0.051770         1.4087

MULLIKEN ATOMIC CHARGES
-----------------------
   0 C :   -0.256084
   1 C :   -0.171176
   2 H :    0.089427
   3 C :   -0.077554
   4 C :   -0.157740
   5 C :   -0.160876
   6 H :    0.098480
   7 C :   -0.093214
   8 C :    0.016586
   9 O :   -0.153436
  10 C :   -0.070909
  11 C :   -0.220291
  12 C :   -0.217169
  13 H :    0.119830
  14 H :    0.106612
  15 H :    0.107083
  16 H :    0.085209
  17 H :    0.076398
  18 H :    0.092487
  19 H :    0.091922
  20 H :    0.091321
  21 H :    0.101265
  22 H :    0.081833
  23 H :    0.089189
  24 H :    0.098047
  25 H :    0.114800
  26 H :    0.117960
Sum of atomic charges:   -0.0000000

LOEWDIN ATOMIC CHARGES
----------------------
   0 C :   -0.319841
   1 C :   -0.175452
   2 H :    0.136917
   3 C :   -0.219264
   4 C :   -0.220050
   5 C :   -0.130845
   6 H :    0.133383
   7 C :   -0.240374
   8 C :    0.053390
   9 O :   -0.122501
  10 C :   -0.050696
  11 C :   -0.267167
  12 C :   -0.322912
  13 H :    0.128590
  14 H :    0.122167
  15 H :    0.118051
  16 H :    0.122136
  17 H :    0.117575
  18 H :    0.120099
  19 H :    0.125760
  20 H :    0.130894
  21 H :    0.139863
  22 H :    0.118260
  23 H :    0.117849
  24 H :    0.125165
  25 H :    0.128761
  26 H :    0.130243

  Mayer bond orders larger than 0.100000
B(  0-C ,  1-C ) :   1.0942 B(  0-C , 13-H ) :   0.9432 B(  0-C , 14-H ) :   0.9475
B(  0-C , 15-H ) :   0.9439 B(  1-C ,  2-H ) :   0.8702 B(  1-C ,  3-C ) :   1.0993
B(  1-C ,  8-C ) :   0.9231 B(  3-C ,  4-C ) :   1.1507 B(  3-C , 16-H ) :   0.9096
B(  3-C , 17-H ) :   0.8955 B(  4-C ,  5-C ) :   1.0936 B(  4-C , 18-H ) :   0.9066
B(  4-C , 19-H ) :   0.9035 B(  5-C ,  6-H ) :   0.8599 B(  5-C ,  7-C ) :   1.1415
B(  5-C , 10-C ) :   0.9932 B(  7-C ,  8-C ) :   1.0521 B(  7-C , 20-H ) :   0.8729
B(  7-C , 21-H ) :   0.8608 B(  8-C ,  9-O ) :   2.2014 B( 10-C , 11-C ) :   2.0487
B( 10-C , 12-C ) :   1.1441 B( 11-C , 22-H ) :   0.8992 B( 11-C , 23-H ) :   0.9055
B( 12-C , 24-H ) :   0.9330 B( 12-C , 25-H ) :   0.9175 B( 12-C , 26-H ) :   0.9276

Dispersion correction           -0.028720861
FINAL SINGLE POINT ENERGY      -464.819967627213

DIPOLE MOMENT
-------------

Method             : SCF
Type of density    : Electron Density
Multiplicity       :   1
Irrep              :   0
Energy             :  -464.9059551288544299 Eh
Relativity type    :
Basis              : AO
                                X                 Y                 Z
Electronic contribution:     -4.302062167       4.449685470      -2.116362104
Nuclear contribution   :      4.730509903      -5.210104029       2.149409191
                        -----------------------------------------
Total Dipole Moment    :      0.428447736      -0.760418559       0.033047087
                        -----------------------------------------
Magnitude (a.u.)       :      0.873439155
Magnitude (Debye)      :      2.220105897

Rotational constants in cm-1:             0.061729             0.025512             0.020453
Rotational constants in MHz :          1850.584775           764.820557           613.169359

                             ****ORCA TERMINATED NORMALLY****
TOTAL RUN TIME: 0 days 0 hours 0 minutes 21 seconds 411 msec
