                         Program Version 6.0.1  -  RELEASE   -
|  1> ! pbe def2-sv(p) def2/J RI DEFGRID1 loosescf d4 GCP(DFT/SV(P)) printgap
|  2> %output
|  3>     printlevel normal
|  4> end
|  5> * xyz 0 1
|  6> C 2.3934928445 -0.0543475384 -0.0001686443
|  7> C 0.900797479 -0.0196106597 -0.0001127325
|  8> C 0.1286008604 -1.184065994 0.000226486
|  9> N -1.1913656309 -1.1519420634 -3.9514e-06
| 10> C -1.7683689904 0.0422570873 -0.0002104147
| 11> C -1.0120830705 1.2044957362 0.0001532076
| 12> N 0.3118382451 1.170545791 3.48765e-05
| 13> H 2.7580002937 -0.5895776866 -0.8753369651
| 14> H 2.7801168864 0.9604845011 -0.0104109042
| 15> H 2.757890495 -0.5707535957 0.8863843375
| 16> H 0.5841596832 -2.1656758147 0.0004336275
| 17> H -2.8491721821 0.05416169 -0.0006852837
| 18> H -1.4641334566 2.187145783 0.0005212788
| 19> *
| 20>
| 21>                          ****END OF INPUT****

CARTESIAN COORDINATES (ANGSTROEM)
---------------------------------
  C      2.393493   -0.054348   -0.000169
  C      0.900797   -0.019611   -0.000113
  C      0.128601   -1.184066    0.000226
  N     -1.191366   -1.151942   -0.000004
  C     -1.768369    0.042257   -0.000210
  C     -1.012083    1.204496    0.000153
  N      0.311838    1.170546    0.000035
  H      2.758000   -0.589578   -0.875337
  H      2.780117    0.960485   -0.010411
  H      2.757890   -0.570754    0.886384
  H      0.584160   -2.165676    0.000434
  H     -2.849172    0.054162   -0.000685
  H     -1.464133    2.187146    0.000521

 Total Charge           Charge          ....    0
 Multiplicity           Mult            ....    1
 Number of Electrons    NEL             ....   50
 Basis Dimension        Dim             ....  110

ORBITAL ENERGIES
----------------

  NO   OCC          E(Eh)            E(eV)
   0   2.0000     -14.000912      -380.9842
   1   2.0000     -14.000137      -380.9631
   2   2.0000      -9.945408      -270.6283
   3   2.0000      -9.931674      -270.2546
   4   2.0000      -9.930708      -270.2283
   5   2.0000      -9.929385      -270.1923
   6   2.0000      -9.891070      -269.1497
   7   2.0000      -0.899585       -24.4789
   8   2.0000      -0.824936       -22.4477
   9   2.0000      -0.721167       -19.6240
  10   2.0000      -0.647965       -17.6320
  11   2.0000      -0.594547       -16.1784
  12   2.0000      -0.563745       -15.3403
  13   2.0000      -0.476695       -12.9715
  14   2.0000      -0.465881       -12.6773
  15   2.0000      -0.423408       -11.5215
  16   2.0000      -0.407682       -11.0936
  17   2.0000      -0.382176       -10.3995
  18   2.0000      -0.363942        -9.9034
  19   2.0000      -0.356732        -9.7072
  20   2.0000      -0.339380        -9.2350
  21   2.0000      -0.300435        -8.1753
  22   2.0000      -0.250851        -6.8260
  23   2.0000      -0.245483        -6.6799
  24   2.0000      -0.198927        -5.4131
  25   0.0000      -0.076385        -2.0785
  26   0.0000      -0.057451        -1.5633
  27   0.0000       0.052289         1.4229
  28   0.0000       0.068199         1.8558
  29   0.0000       0.074438         2.0256

MULLIKEN ATOMIC CHARGES
-----------------------
   0 C :   -0.203712
   1 C :   -0.101452
   2 C :   -0.068806
   3 N :   -0.038993
   4 C :   -0.061857
   5 C :   -0.049001
   6 N :   -0.046907
   7 H :    0.120795
   8 H :    0.114577
   9 H :    0.121198
  10 H :    0.061657
  11 H :    0.076705
  12 H :    0.075794
Sum of atomic charges:    0.0000000

LOEWDIN ATOMIC CHARGES
----------------------
   0 C :   -0.334498
   1 C :   -0.032333
   2 C :   -0.095437
   3 N :   -0.049120
   4 C :   -0.104436
   5 C :   -0.095436
   6 N :   -0.055760
   7 H :    0.137423
   8 H :    0.135081
   9 H :    0.137700
  10 H :    0.117596
  11 H :    0.119538
  12 H :    0.119682

  Mayer bond orders larger than 0.100000
B(  0-C ,  1-C ) :   1.0945 B(  0-C ,  7-H ) :   0.9339 B(  0-C ,  8-H ) :   0.9357
B(  0-C ,  9-H ) :   0.9335 B(  1-C ,  2-C ) :   1.3190 B(  1-C ,  4-C ) :   0.1042
B(  1-C ,  6-N ) :   1.5806 B(  2-C ,  3-N ) :   1.5765 B(  2-C ,  5-C ) :   0.1008
B(  2-C , 10-H ) :   0.9531 B(  3-N ,  4-C ) :   1.5323 B(  4-C ,  5-C ) :   1.3670
B(  4-C , 11-H ) :   0.9475 B(  5-C ,  6-N ) :   1.5267 B(  5-C , 12-H ) :   0.9458

Dispersion correction           -0.011961259
FINAL SINGLE POINT ENERGY      -302.985438324761

DIPOLE MOMENT
-------------

Method             : SCF
Type of density    : Electron Density
Multiplicity       :   1
Irrep              :   0
Energy             :  -303.0238508418533456 Eh
Relativity type    :
Basis              : AO
                                X                 Y                 Z
Electronic contribution:     -4.045035037       0.113721436       0.000058203
Nuclear contribution   :      4.279667154      -0.116432845       0.000850237
                        -----------------------------------------
Total Dipole Moment    :      0.234632117      -0.002711409       0.000908441
                        -----------------------------------------
Magnitude (a.u.)       :      0.234649541
Magnitude (Debye)      :      0.596431735

Rotational constants in cm-1:             0.198720             0.091006             0.063152
Rotational constants in MHz :          5957.462884          2728.293490          1893.239812

                             ****ORCA TERMINATED NORMALLY****
TOTAL RUN TIME: 0 days 0 hours 0 minutes 15 seconds 676 msec
