                         Program Version 6.0.1  -  RELEASE   -
|  1> ! pbe def2-sv(p) def2/J RI DEFGRID1 loosescf d4 GCP(DFT/SV(P)) printgap
|  2> %output
|  3>     printlevel normal
|  4> end
|  5> * xyz 0 1
|  6> C -2.6473560705 -0.0618773712 -1.142617865
|  7> C -1.7452205581 5.6567e-05 0.0655835038
|  8> O -2.154065323 -0.1490531822 1.1889251635
|  9> C -0.2805857653 0.2385682814 -0.2534812324
| 10> C 0.3529354106 -1.1260591898 -0.6086450104
| 11> C 1.8456413638 -1.1585649627 -0.2630724052
| 12> C 2.4685784867 0.2167400922 -0.471517272
| 13> C 1.8964138296 1.2156138469 0.5423789612
| 14> C 0.4578487431 0.859502885 0.9306291616
| 15> H -2.7297494616 0.9349134924 -1.5725440613
| 16> H -2.2252099748 -0.7216336133 -1.8963624134
| 17> H -3.6373293656 -0.4079901333 -0.8576551095
| 18> H -0.2086714024 0.9083743591 -1.1151612125
| 19> H -0.1608157569 -1.9200249668 -0.0618591222
| 20> H 0.2172533495 -1.3165048044 -1.6751629451
| 21> H 1.9851582702 -1.4565211205 0.7769121757
| 22> H 2.3450556306 -1.9010295554 -0.8880688084
| 23> H 3.5530159148 0.1597065652 -0.3657904065
| 24> H 2.2569799659 0.5492655855 -1.4899337957
| 25> H 2.5135761748 1.2249259995 1.4422570289
| 26> H 1.9277989662 2.2200205825 0.1156501205
| 27> H 0.4445119062 0.1478269204 1.7563983399
| 28> H -0.0717749892 1.7522751306 1.2673999826
| 29> *
| 30>
| 31>                          ****END OF INPUT****

CARTESIAN COORDINATES (ANGSTROEM)
---------------------------------
  C     -2.647356   -0.061877   -1.142618
  C     -1.745221    0.000057    0.065584
  O     -2.154065   -0.149053    1.188925
  C     -0.280586    0.238568   -0.253481
  C      0.352935   -1.126059   -0.608645
  C      1.845641   -1.158565   -0.263072
  C      2.468578    0.216740   -0.471517
  C      1.896414    1.215614    0.542379
  C      0.457849    0.859503    0.930629
  H     -2.729749    0.934913   -1.572544
  H     -2.225210   -0.721634   -1.896362
  H     -3.637329   -0.407990   -0.857655
  H     -0.208671    0.908374   -1.115161
  H     -0.160816   -1.920025   -0.061859
  H      0.217253   -1.316505   -1.675163
  H      1.985158   -1.456521    0.776912
  H      2.345056   -1.901030   -0.888069
  H      3.553016    0.159707   -0.365790
  H      2.256980    0.549266   -1.489934
  H      2.513576    1.224926    1.442257
  H      1.927799    2.220021    0.115650
  H      0.444512    0.147827    1.756398
  H     -0.071775    1.752275    1.267400

 Total Charge           Charge          ....    0
 Multiplicity           Mult            ....    1
 Number of Electrons    NEL             ....   70
 Basis Dimension        Dim             ....  154

ORBITAL ENERGIES
----------------

  NO   OCC          E(Eh)            E(eV)
   0   2.0000     -18.735099      -509.8080
   1   2.0000      -9.969422      -271.2818
   2   2.0000      -9.898439      -269.3502
   3   2.0000      -9.895821      -269.2790
   4   2.0000      -9.887652      -269.0567
   5   2.0000      -9.884838      -268.9801
   6   2.0000      -9.884765      -268.9781
   7   2.0000      -9.883123      -268.9335
   8   2.0000      -9.880957      -268.8745
   9   2.0000      -0.938017       -25.5247
  10   2.0000      -0.762379       -20.7454
  11   2.0000      -0.692192       -18.8355
  12   2.0000      -0.667472       -18.1628
  13   2.0000      -0.653473       -17.7819
  14   2.0000      -0.564494       -15.3607
  15   2.0000      -0.549428       -14.9507
  16   2.0000      -0.489422       -13.3179
  17   2.0000      -0.463253       -12.6057
  18   2.0000      -0.445351       -12.1186
  19   2.0000      -0.424280       -11.5452
  20   2.0000      -0.403029       -10.9670
  21   2.0000      -0.396368       -10.7857
  22   2.0000      -0.383229       -10.4282
  23   2.0000      -0.374315       -10.1856
  24   2.0000      -0.355381        -9.6704
  25   2.0000      -0.338640        -9.2149
  26   2.0000      -0.334027        -9.0893
  27   2.0000      -0.330141        -8.9836
  28   2.0000      -0.319702        -8.6995
  29   2.0000      -0.315723        -8.5913
  30   2.0000      -0.305755        -8.3200
  31   2.0000      -0.273924        -7.4538
  32   2.0000      -0.265315        -7.2196
  33   2.0000      -0.264070        -7.1857
  34   2.0000      -0.192256        -5.2315
  35   0.0000      -0.042626        -1.1599
  36   0.0000       0.021949         0.5973
  37   0.0000       0.041472         1.1285
  38   0.0000       0.056643         1.5413
  39   0.0000       0.068297         1.8584

MULLIKEN ATOMIC CHARGES
-----------------------
   0 C :   -0.246704
   1 C :    0.024828
   2 O :   -0.160861
   3 C :   -0.204249
   4 C :   -0.144409
   5 C :   -0.141531
   6 C :   -0.162347
   7 C :   -0.138680
   8 C :   -0.106787
   9 H :    0.123745
  10 H :    0.119359
  11 H :    0.114599
  12 H :    0.069573
  13 H :    0.096017
  14 H :    0.086879
  15 H :    0.083143
  16 H :    0.088143
  17 H :    0.087470
  18 H :    0.076797
  19 H :    0.081908
  20 H :    0.079899
  21 H :    0.085040
  22 H :    0.088167
Sum of atomic charges:    0.0000000

LOEWDIN ATOMIC CHARGES
----------------------
   0 C :   -0.363221
   1 C :    0.048046
   2 O :   -0.121906
   3 C :   -0.173342
   4 C :   -0.209555
   5 C :   -0.225992
   6 C :   -0.230417
   7 C :   -0.228160
   8 C :   -0.216992
   9 H :    0.143421
  10 H :    0.136328
  11 H :    0.132233
  12 H :    0.121027
  13 H :    0.123260
  14 H :    0.116996
  15 H :    0.118690
  16 H :    0.120114
  17 H :    0.118701
  18 H :    0.113166
  19 H :    0.118228
  20 H :    0.115698
  21 H :    0.122258
  22 H :    0.121417

  Mayer bond orders larger than 0.100000
B(  0-C ,  1-C ) :   1.0801 B(  0-C ,  9-H ) :   0.9232 B(  0-C , 10-H ) :   0.9294
B(  0-C , 11-H ) :   0.9334 B(  1-C ,  2-O ) :   2.2021 B(  1-C ,  3-C ) :   0.9125
B(  3-C ,  4-C ) :   1.0619 B(  3-C ,  8-C ) :   1.1401 B(  3-C , 12-H ) :   0.8778
B(  4-C ,  5-C ) :   1.1531 B(  4-C , 13-H ) :   0.9099 B(  4-C , 14-H ) :   0.9125
B(  5-C ,  6-C ) :   1.1833 B(  5-C , 15-H ) :   0.9057 B(  5-C , 16-H ) :   0.9197
B(  6-C ,  7-C ) :   1.1379 B(  6-C , 17-H ) :   0.9220 B(  6-C , 18-H ) :   0.9119
B(  7-C ,  8-C ) :   1.1457 B(  7-C , 19-H ) :   0.9174 B(  7-C , 20-H ) :   0.9198
B(  8-C , 21-H ) :   0.8897 B(  8-C , 22-H ) :   0.9245

Dispersion correction           -0.021867240
FINAL SINGLE POINT ENERGY      -387.600740350550

DIPOLE MOMENT
-------------

Method             : SCF
Type of density    : Electron Density
Multiplicity       :   1
Irrep              :   0
Energy             :  -387.6782979727668135 Eh
Relativity type    :
Basis              : AO
                                X                 Y                 Z
Electronic contribution:     -5.327200780      -0.084586083       3.381625254
Nuclear contribution   :      5.793875592       0.160659180      -4.264081849
                        -----------------------------------------
Total Dipole Moment    :      0.466674812       0.076073097      -0.882456595
                        -----------------------------------------
Magnitude (a.u.)       :      1.001150408
Magnitude (Debye)      :      2.544722104

Rotational constants in cm-1:             0.102221             0.035637             0.031486
Rotational constants in MHz :          3064.513870          1068.377661           943.913629

                             ****ORCA TERMINATED NORMALLY****
TOTAL RUN TIME: 0 days 0 hours 0 minutes 11 seconds 645 msec
