                         Program Version 6.0.1  -  RELEASE   -
|  1> ! pbe def2-sv(p) def2/J RI DEFGRID1 loosescf d4 GCP(DFT/SV(P)) printgap
|  2> %output
|  3>     printlevel normal
|  4> end
|  5> * xyz 0 1
|  6> C -1.0017442679 -1.8089788713 7.09259e-05
|  7> C 0.3649720891 -1.6113825275 3.4983e-05
|  8> C 0.8749349073 -0.3125483485 -0.0001069208
|  9> C 0.008606941 0.7762719181 -0.0001643435
| 10> C -1.3657123658 0.5733633188 -5.18015e-05
| 11> C -1.8659903453 -0.7264772857 5.38315e-05
| 12> O -2.177093304 1.6589660383 4.62939e-05
| 13> C 2.3259387007 -0.084495181 -0.000171537
| 14> O 2.8656763164 0.9914934533 0.0002461401
| 15> H -1.4055124229 -2.8102885623 0.000267547
| 16> H 1.0401035529 -2.4539010108 4.11019e-05
| 17> H 0.4062366208 1.7787857141 -0.0001241104
| 18> H -2.9361021989 -0.8882344295 0.0002230397
| 19> H -3.10289606 1.3863137438 -9.14606e-05
| 20> H 2.9207481264 -1.0206734212 -0.0009677054
| 21> *
| 22>
| 23>                          ****END OF INPUT****

CARTESIAN COORDINATES (ANGSTROEM)
---------------------------------
  C     -1.001744   -1.808979    0.000071
  C      0.364972   -1.611383    0.000035
  C      0.874935   -0.312548   -0.000107
  C      0.008607    0.776272   -0.000164
  C     -1.365712    0.573363   -0.000052
  C     -1.865990   -0.726477    0.000054
  O     -2.177093    1.658966    0.000046
  C      2.325939   -0.084495   -0.000172
  O      2.865676    0.991493    0.000246
  H     -1.405512   -2.810289    0.000268
  H      1.040104   -2.453901    0.000041
  H      0.406237    1.778786   -0.000124
  H     -2.936102   -0.888234    0.000223
  H     -3.102896    1.386314   -0.000091
  H      2.920748   -1.020673   -0.000968

 Total Charge           Charge          ....    0
 Multiplicity           Mult            ....    1
 Number of Electrons    NEL             ....   64
 Basis Dimension        Dim             ....  138

ORBITAL ENERGIES
----------------

  NO   OCC          E(Eh)            E(eV)
   0   2.0000     -18.796476      -511.4781
   1   2.0000     -18.747616      -510.1486
   2   2.0000      -9.968526      -271.2574
   3   2.0000      -9.966706      -271.2078
   4   2.0000      -9.911881      -269.7160
   5   2.0000      -9.911728      -269.7118
   6   2.0000      -9.910524      -269.6791
   7   2.0000      -9.907782      -269.6045
   8   2.0000      -9.901752      -269.4404
   9   2.0000      -0.979502       -26.6536
  10   2.0000      -0.944534       -25.7021
  11   2.0000      -0.790031       -21.4978
  12   2.0000      -0.698418       -19.0049
  13   2.0000      -0.683929       -18.6107
  14   2.0000      -0.597759       -16.2659
  15   2.0000      -0.566712       -15.4210
  16   2.0000      -0.539343       -14.6763
  17   2.0000      -0.481794       -13.1103
  18   2.0000      -0.463011       -12.5992
  19   2.0000      -0.442016       -12.0279
  20   2.0000      -0.402933       -10.9644
  21   2.0000      -0.396619       -10.7926
  22   2.0000      -0.384552       -10.4642
  23   2.0000      -0.376206       -10.2371
  24   2.0000      -0.357763        -9.7352
  25   2.0000      -0.346947        -9.4409
  26   2.0000      -0.341735        -9.2991
  27   2.0000      -0.310801        -8.4573
  28   2.0000      -0.308249        -8.3879
  29   2.0000      -0.245190        -6.6720
  30   2.0000      -0.213327        -5.8049
  31   2.0000      -0.206832        -5.6282
  32   0.0000      -0.094647        -2.5755
  33   0.0000      -0.038269        -1.0413
  34   0.0000       0.005404         0.1471
  35   0.0000       0.012183         0.3315
  36   0.0000       0.043236         1.1765

MULLIKEN ATOMIC CHARGES
-----------------------
   0 C :   -0.047597
   1 C :   -0.098367
   2 C :    0.091440
   3 C :   -0.184989
   4 C :    0.261512
   5 C :   -0.151457
   6 O :   -0.322774
   7 C :    0.037469
   8 O :   -0.147329
   9 H :    0.060414
  10 H :    0.050459
  11 H :    0.057969
  12 H :    0.039753
  13 H :    0.318807
  14 H :    0.034690
Sum of atomic charges:    0.0000000

LOEWDIN ATOMIC CHARGES
----------------------
   0 C :   -0.112506
   1 C :   -0.122890
   2 C :   -0.088769
   3 C :   -0.107840
   4 C :    0.023412
   5 C :   -0.154967
   6 O :   -0.225105
   7 C :    0.004261
   8 O :   -0.113424
   9 H :    0.128431
  10 H :    0.126600
  11 H :    0.141139
  12 H :    0.124140
  13 H :    0.299729
  14 H :    0.077789

  Mayer bond orders larger than 0.100000
B(  0-C ,  1-C ) :   1.3728 B(  0-C ,  5-C ) :   1.3704 B(  0-C ,  9-H ) :   0.9610
B(  1-C ,  2-C ) :   1.3129 B(  1-C , 10-H ) :   0.9615 B(  2-C ,  3-C ) :   1.3211
B(  2-C ,  7-C ) :   0.9804 B(  3-C ,  4-C ) :   1.3237 B(  3-C , 11-H ) :   0.9705
B(  4-C ,  5-C ) :   1.2972 B(  4-C ,  6-O ) :   1.1986 B(  5-C , 12-H ) :   0.9570
B(  6-O , 13-H ) :   0.8408 B(  7-C ,  8-O ) :   2.1604 B(  7-C , 14-H ) :   0.9135

Dispersion correction           -0.015440861
FINAL SINGLE POINT ENERGY      -419.924604425415

DIPOLE MOMENT
-------------

Method             : SCF
Type of density    : Electron Density
Multiplicity       :   1
Irrep              :   0
Energy             :  -419.9708988346183673 Eh
Relativity type    :
Basis              : AO
                                X                 Y                 Z
Electronic contribution:      1.391042340       2.785008934       0.000340315
Nuclear contribution   :     -2.876954421      -3.720943038      -0.000606971
                        -----------------------------------------
Total Dipole Moment    :     -1.485912081      -0.935934104      -0.000266656
                        -----------------------------------------
Magnitude (a.u.)       :      1.756105757
Magnitude (Debye)      :      4.463666101

Rotational constants in cm-1:             0.099143             0.043279             0.030127
Rotational constants in MHz :          2972.234567          1297.456912           903.190861

                             ****ORCA TERMINATED NORMALLY****
TOTAL RUN TIME: 0 days 0 hours 0 minutes 17 seconds 823 msec
