                         Program Version 6.0.1  -  RELEASE   -
|  1> ! pbe def2-sv(p) def2/J RI DEFGRID1 loosescf d4 GCP(DFT/SV(P)) printgap
|  2> %output
|  3>     printlevel normal
|  4> end
|  5> * xyz 0 1
|  6> C -2.5763516789 -0.7068487972 -0.2344219297
|  7> C -1.1871367496 -0.2767488591 0.2581902932
|  8> H -1.1987197946 -0.1839744012 1.3566512654
|  9> C -0.7239414894 1.0543293103 -0.3526307444
| 10> H -0.6989749626 0.952660083 -1.4486354131
| 11> C 0.6935597115 1.3483209667 0.1491419705
| 12> H 0.6456312063 1.489028987 1.241831377
| 13> C 1.6399722125 0.18089447 -0.1557313953
| 14> H 1.7952894751 0.119887163 -1.242817844
| 15> C 1.0328459148 -1.1484207993 0.3119231289
| 16> H 1.0587963314 -1.1668974592 1.42116677
| 17> O -0.3024350196 -1.3109829508 -0.1242303604
| 18> O 1.7697410336 -2.1747539189 -0.235382618
| 19> O 2.8554110779 0.3536995708 0.5159435744
| 20> O 1.2291498437 2.4980480254 -0.4573344696
| 21> O -1.5214845701 2.1517396281 0.0292455758
| 22> O -2.9507124414 -1.9419171606 0.3026255182
| 23> H -2.560039929 -0.7495139504 -1.3338096574
| 24> H -3.3337577225 0.0091462637 0.0928899423
| 25> H 1.3670008866 -3.0178111492 0.0050625822
| 26> H 3.2078304588 1.2121424635 0.2484542619
| 27> H 0.5738490381 3.2007248518 -0.3665576605
| 28> H -2.4113473465 2.0436696515 -0.3212298121
| 29> H -2.2248159613 -2.5566147304 0.1373959458
| 30> *
| 31>
| 32>                          ****END OF INPUT****

CARTESIAN COORDINATES (ANGSTROEM)
---------------------------------
  C     -2.576352   -0.706849   -0.234422
  C     -1.187137   -0.276749    0.258190
  H     -1.198720   -0.183974    1.356651
  C     -0.723941    1.054329   -0.352631
  H     -0.698975    0.952660   -1.448635
  C      0.693560    1.348321    0.149142
  H      0.645631    1.489029    1.241831
  C      1.639972    0.180894   -0.155731
  H      1.795289    0.119887   -1.242818
  C      1.032846   -1.148421    0.311923
  H      1.058796   -1.166897    1.421167
  O     -0.302435   -1.310983   -0.124230
  O      1.769741   -2.174754   -0.235383
  O      2.855411    0.353700    0.515944
  O      1.229150    2.498048   -0.457334
  O     -1.521485    2.151740    0.029246
  O     -2.950712   -1.941917    0.302626
  H     -2.560040   -0.749514   -1.333810
  H     -3.333758    0.009146    0.092890
  H      1.367001   -3.017811    0.005063
  H      3.207830    1.212142    0.248454
  H      0.573849    3.200725   -0.366558
  H     -2.411347    2.043670   -0.321230
  H     -2.224816   -2.556615    0.137396

 Total Charge           Charge          ....    0
 Multiplicity           Mult            ....    1
 Number of Electrons    NEL             ....   96
 Basis Dimension        Dim             ....  192

ORBITAL ENERGIES
----------------

  NO   OCC          E(Eh)            E(eV)
   0   2.0000     -18.784141      -511.1425
   1   2.0000     -18.774452      -510.8788
   2   2.0000     -18.762173      -510.5447
   3   2.0000     -18.756749      -510.3971
   4   2.0000     -18.750611      -510.2301
   5   2.0000     -18.746735      -510.1246
   6   2.0000      -9.991659      -271.8869
   7   2.0000      -9.951133      -270.7841
   8   2.0000      -9.950723      -270.7729
   9   2.0000      -9.944427      -270.6016
  10   2.0000      -9.943961      -270.5889
  11   2.0000      -9.940868      -270.5048
  12   2.0000      -0.991735       -26.9865
  13   2.0000      -0.957286       -26.0491
  14   2.0000      -0.941028       -25.6067
  15   2.0000      -0.933883       -25.4122
  16   2.0000      -0.920135       -25.0382
  17   2.0000      -0.915886       -24.9225
  18   2.0000      -0.711165       -19.3518
  19   2.0000      -0.695636       -18.9292
  20   2.0000      -0.628953       -17.1147
  21   2.0000      -0.583906       -15.8889
  22   2.0000      -0.568753       -15.4766
  23   2.0000      -0.529190       -14.4000
  24   2.0000      -0.505215       -13.7476
  25   2.0000      -0.500042       -13.6068
  26   2.0000      -0.476844       -12.9756
  27   2.0000      -0.472514       -12.8578
  28   2.0000      -0.459378       -12.5003
  29   2.0000      -0.441173       -12.0049
  30   2.0000      -0.417128       -11.3506
  31   2.0000      -0.401627       -10.9288
  32   2.0000      -0.390625       -10.6295
  33   2.0000      -0.383835       -10.4447
  34   2.0000      -0.364434        -9.9167
  35   2.0000      -0.363431        -9.8895
  36   2.0000      -0.337463        -9.1828
  37   2.0000      -0.312979        -8.5166
  38   2.0000      -0.312560        -8.5052
  39   2.0000      -0.301105        -8.1935
  40   2.0000      -0.286330        -7.7914
  41   2.0000      -0.279491        -7.6053
  42   2.0000      -0.259354        -7.0574
  43   2.0000      -0.243774        -6.6334
  44   2.0000      -0.234392        -6.3781
  45   2.0000      -0.225406        -6.1336
  46   2.0000      -0.217601        -5.9212
  47   2.0000      -0.216210        -5.8834
  48   0.0000       0.000918         0.0250
  49   0.0000       0.025958         0.7064
  50   0.0000       0.031216         0.8494
  51   0.0000       0.042611         1.1595
  52   0.0000       0.054913         1.4943

MULLIKEN ATOMIC CHARGES
-----------------------
   0 C :    0.084517
   1 C :   -0.022236
   2 H :    0.060411
   3 C :    0.038904
   4 H :    0.059180
   5 C :    0.057948
   6 H :    0.056609
   7 C :    0.054549
   8 H :    0.064775
   9 C :    0.200451
  10 H :    0.045888
  11 O :   -0.331135
  12 O :   -0.363476
  13 O :   -0.409874
  14 O :   -0.423837
  15 O :   -0.418925
  16 O :   -0.428117
  17 H :    0.071247
  18 H :    0.073298
  19 H :    0.302567
  20 H :    0.308830
  21 H :    0.310198
  22 H :    0.311038
  23 H :    0.297191
Sum of atomic charges:   -0.0000000

LOEWDIN ATOMIC CHARGES
----------------------
   0 C :   -0.129995
   1 C :   -0.082584
   2 H :    0.106579
   3 C :   -0.081827
   4 H :    0.104977
   5 C :   -0.077076
   6 H :    0.105691
   7 C :   -0.074384
   8 H :    0.112111
   9 C :    0.011690
  10 H :    0.086100
  11 O :   -0.160054
  12 O :   -0.283048
  13 O :   -0.311013
  14 O :   -0.323699
  15 O :   -0.317571
  16 O :   -0.330135
  17 H :    0.099574
  18 H :    0.109782
  19 H :    0.288097
  20 H :    0.290018
  21 H :    0.288569
  22 H :    0.289487
  23 H :    0.278710

  Mayer bond orders larger than 0.100000
B(  0-C ,  1-C ) :   1.0433 B(  0-C , 16-O ) :   1.0955 B(  0-C , 17-H ) :   0.9033
B(  0-C , 18-H ) :   0.9116 B(  1-C ,  2-H ) :   0.8692 B(  1-C ,  3-C ) :   0.9839
B(  1-C , 11-O ) :   0.9733 B(  3-C ,  4-H ) :   0.8713 B(  3-C ,  5-C ) :   1.0042
B(  3-C , 15-O ) :   1.0608 B(  5-C ,  6-H ) :   0.8716 B(  5-C ,  7-C ) :   1.0253
B(  5-C , 14-O ) :   1.0812 B(  7-C ,  8-H ) :   0.8641 B(  7-C ,  9-C ) :   1.0031
B(  7-C , 13-O ) :   1.0818 B(  9-C , 10-H ) :   0.8862 B(  9-C , 11-O ) :   0.9894
B(  9-C , 12-O ) :   1.2028 B( 12-O , 19-H ) :   0.8435 B( 13-O , 20-H ) :   0.8404
B( 14-O , 21-H ) :   0.8355 B( 15-O , 22-H ) :   0.8407 B( 16-O , 23-H ) :   0.8402

Dispersion correction           -0.023647434
FINAL SINGLE POINT ENERGY      -685.699265694162

DIPOLE MOMENT
-------------

Method             : SCF
Type of density    : Electron Density
Multiplicity       :   1
Irrep              :   0
Energy             :  -685.8294679616099074 Eh
Relativity type    :
Basis              : AO
                                X                 Y                 Z
Electronic contribution:      2.846159518      -0.938143592      -0.009528157
Nuclear contribution   :     -3.529592464       1.262542271      -0.196181526
                        -----------------------------------------
Total Dipole Moment    :     -0.683432945       0.324398680      -0.205709682
                        -----------------------------------------
Magnitude (a.u.)       :      0.783984418
Magnitude (Debye)      :      1.992730025

Rotational constants in cm-1:             0.038936             0.026459             0.016523
Rotational constants in MHz :          1167.282363           793.233541           495.338027

                             ****ORCA TERMINATED NORMALLY****
TOTAL RUN TIME: 0 days 0 hours 0 minutes 8 seconds 214 msec
