                         Program Version 6.0.1  -  RELEASE   -
|  1> ! r2scan-3c def2/J RI DEFGRID2 scfconv6 printgap
|  2> %output
|  3>     printlevel normal
|  4> end
|  5> * xyz 0 1
|  6> C 1.1534045782 -1.3420985807 -0.5165780205
|  7> C 0.6817364246 -0.2294665071 0.4268721423
|  8> C 1.6410934826 0.9552038793 0.3875287313
|  9> C -0.7178962774 0.186946245 0.0007736313
| 10> O -0.9402453982 1.208311036 -0.5974635909
| 11> C -1.8201073902 -0.7832241593 0.3597838553
| 12> H 0.4823184751 -2.1970875032 -0.4875657321
| 13> H 1.1960436342 -0.9695906895 -1.5376490277
| 14> H 2.1482670599 -1.6743449046 -0.2291992503
| 15> H 0.6272492254 -0.6279636482 1.445815389
| 16> H 1.3160274718 1.7290245245 1.0787996555
| 17> H 1.6618790923 1.382231972 -0.6118239311
| 18> H 2.6459731895 0.6411143756 0.6592224869
| 19> H -1.4495283616 -1.6568594357 0.8859543727
| 20> H -2.3358260385 -1.0899865985 -0.5482458778
| 21> H -2.5477149187 -0.2664151488 0.9830019808
| 22> *
| 23>
| 24>                          ****END OF INPUT****

CARTESIAN COORDINATES (ANGSTROEM)
---------------------------------
  C      1.153405   -1.342099   -0.516578
  C      0.681736   -0.229467    0.426872
  C      1.641093    0.955204    0.387529
  C     -0.717896    0.186946    0.000774
  O     -0.940245    1.208311   -0.597464
  C     -1.820107   -0.783224    0.359784
  H      0.482318   -2.197088   -0.487566
  H      1.196044   -0.969591   -1.537649
  H      2.148267   -1.674345   -0.229199
  H      0.627249   -0.627964    1.445815
  H      1.316027    1.729025    1.078800
  H      1.661879    1.382232   -0.611824
  H      2.645973    0.641114    0.659222
  H     -1.449528   -1.656859    0.885954
  H     -2.335826   -1.089987   -0.548246
  H     -2.547715   -0.266415    0.983002

 Total Charge           Charge          ....    0
 Multiplicity           Mult            ....    1
 Number of Electrons    NEL             ....   48
 Basis Dimension        Dim             ....  169

ORBITAL ENERGIES
----------------

  NO   OCC          E(Eh)            E(eV)
   0   2.0000     -18.937765      -515.3228
   1   2.0000     -10.116412      -275.2816
   2   2.0000     -10.046439      -273.3775
   3   2.0000     -10.033970      -273.0382
   4   2.0000     -10.033741      -273.0320
   5   2.0000     -10.017200      -272.5819
   6   2.0000      -1.009668       -27.4745
   7   2.0000      -0.777853       -21.1665
   8   2.0000      -0.709218       -19.2988
   9   2.0000      -0.657951       -17.9038
  10   2.0000      -0.590342       -16.0640
  11   2.0000      -0.489484       -13.3195
  12   2.0000      -0.449949       -12.2437
  13   2.0000      -0.431129       -11.7316
  14   2.0000      -0.420263       -11.4359
  15   2.0000      -0.395851       -10.7717
  16   2.0000      -0.380097       -10.3430
  17   2.0000      -0.369188       -10.0461
  18   2.0000      -0.359483        -9.7820
  19   2.0000      -0.330601        -8.9961
  20   2.0000      -0.329020        -8.9531
  21   2.0000      -0.312795        -8.5116
  22   2.0000      -0.311323        -8.4715
  23   2.0000      -0.212840        -5.7917
  24   0.0000      -0.044400        -1.2082
  25   0.0000       0.067810         1.8452
  26   0.0000       0.116687         3.1752
  27   0.0000       0.120144         3.2693
  28   0.0000       0.124609         3.3908

MULLIKEN ATOMIC CHARGES
-----------------------
   0 C :   -0.471442
   1 C :   -0.040864
   2 C :   -0.499096
   3 C :    0.294460
   4 O :   -0.343395
   5 C :   -0.538011
   6 H :    0.146442
   7 H :    0.165668
   8 H :    0.154430
   9 H :    0.153073
  10 H :    0.151693
  11 H :    0.168429
  12 H :    0.142799
  13 H :    0.156393
  14 H :    0.181225
  15 H :    0.178197
Sum of atomic charges:   -0.0000000

LOEWDIN ATOMIC CHARGES
----------------------
   0 C :   -0.389505
   1 C :   -0.228074
   2 C :   -0.397695
   3 C :    0.221802
   4 O :   -0.456770
   5 C :   -0.394300
   6 H :    0.156014
   7 H :    0.161897
   8 H :    0.157901
   9 H :    0.166937
  10 H :    0.160723
  11 H :    0.168274
  12 H :    0.151635
  13 H :    0.157837
  14 H :    0.181189
  15 H :    0.182135

  Mayer bond orders larger than 0.100000
B(  0-C ,  1-C ) :   0.8822 B(  0-C ,  6-H ) :   0.9642 B(  0-C ,  7-H ) :   0.9815
B(  0-C ,  8-H ) :   0.9689 B(  1-C ,  2-C ) :   0.9271 B(  1-C ,  3-C ) :   0.8834
B(  1-C ,  9-H ) :   0.9313 B(  2-C , 10-H ) :   0.9718 B(  2-C , 11-H ) :   0.9772
B(  2-C , 12-H ) :   0.9766 B(  3-C ,  4-O ) :   1.9330 B(  3-C ,  5-C ) :   0.8951
B(  5-C , 13-H ) :   0.9722 B(  5-C , 14-H ) :   0.9628 B(  5-C , 15-H ) :   0.9534

Dispersion correction           -0.003915284
FINAL SINGLE POINT ENERGY      -271.704822095287

DIPOLE MOMENT
-------------

Method             : SCF
Type of density    : Electron Density
Multiplicity       :   1
Irrep              :   0
Energy             :  -271.7084283554269177 Eh
Relativity type    :
Basis              : AO
                                X                 Y                 Z
Electronic contribution:     -3.276009693       3.469088026      -1.022426849
Nuclear contribution   :      3.499191296      -4.419484708       1.528143855
                        -----------------------------------------
Total Dipole Moment    :      0.223181603      -0.950396682       0.505717007
                        -----------------------------------------
Magnitude (a.u.)       :      1.099460582
Magnitude (Debye)      :      2.794606709

Rotational constants in cm-1:             0.159040             0.099266             0.073487
Rotational constants in MHz :          4767.911697          2975.933428          2203.073712

                             ****ORCA TERMINATED NORMALLY****
TOTAL RUN TIME: 0 days 0 hours 0 minutes 13 seconds 268 msec
