                         Program Version 6.0.1  -  RELEASE   -
|  1> ! pbe def2-sv(p) def2/J RI DEFGRID1 loosescf d4 GCP(DFT/SV(P)) printgap
|  2> %output
|  3>     printlevel normal
|  4> end
|  5> * xyz 0 1
|  6> C 1.6779063043 -0.8935814973 -0.3876728097
|  7> C 0.7190981168 0.1860708963 0.026788875
|  8> C 1.1603661059 1.3858248328 0.3907601174
|  9> C -0.7126589719 -0.1666810499 0.0373355572
| 10> C -1.1294512367 -1.3799133194 0.3877544532
| 11> C -1.7096283239 0.8775158271 -0.3901590339
| 12> H 2.6616336269 -0.4760948272 -0.5865663338
| 13> H 1.3182805445 -1.4019369751 -1.2802411234
| 14> H 1.7779527774 -1.6353692432 0.4037089085
| 15> H 0.506729014 2.1678074457 0.7366639441
| 16> H 2.2114966291 1.6211001124 0.3871800263
| 17> H -2.1781677212 -1.627195236 0.3989250536
| 18> H -0.4573957334 -2.1598222024 0.6986007466
| 19> H -2.0990873783 0.6236561848 -1.3761690535
| 20> H -2.549981451 0.9155727623 0.2998705889
| 21> H -1.2585759799 1.8622215869 -0.4542703964
| 22> *
| 23>
| 24>                          ****END OF INPUT****

CARTESIAN COORDINATES (ANGSTROEM)
---------------------------------
  C      1.677906   -0.893581   -0.387673
  C      0.719098    0.186071    0.026789
  C      1.160366    1.385825    0.390760
  C     -0.712659   -0.166681    0.037336
  C     -1.129451   -1.379913    0.387754
  C     -1.709628    0.877516   -0.390159
  H      2.661634   -0.476095   -0.586566
  H      1.318281   -1.401937   -1.280241
  H      1.777953   -1.635369    0.403709
  H      0.506729    2.167807    0.736664
  H      2.211497    1.621100    0.387180
  H     -2.178168   -1.627195    0.398925
  H     -0.457396   -2.159822    0.698601
  H     -2.099087    0.623656   -1.376169
  H     -2.549981    0.915573    0.299871
  H     -1.258576    1.862222   -0.454270

 Total Charge           Charge          ....    0
 Multiplicity           Mult            ....    1
 Number of Electrons    NEL             ....   46
 Basis Dimension        Dim             ....  104

ORBITAL ENERGIES
----------------

  NO   OCC          E(Eh)            E(eV)
   0   2.0000      -9.903341      -269.4836
   1   2.0000      -9.902215      -269.4530
   2   2.0000      -9.880737      -268.8685
   3   2.0000      -9.879760      -268.8419
   4   2.0000      -9.873612      -268.6746
   5   2.0000      -9.871153      -268.6077
   6   2.0000      -0.748438       -20.3660
   7   2.0000      -0.679333       -18.4856
   8   2.0000      -0.624169       -16.9845
   9   2.0000      -0.599768       -16.3205
  10   2.0000      -0.527562       -14.3557
  11   2.0000      -0.443743       -12.0749
  12   2.0000      -0.427814       -11.6414
  13   2.0000      -0.401626       -10.9288
  14   2.0000      -0.383979       -10.4486
  15   2.0000      -0.363247        -9.8845
  16   2.0000      -0.357529        -9.7289
  17   2.0000      -0.347195        -9.4477
  18   2.0000      -0.329320        -8.9613
  19   2.0000      -0.316124        -8.6022
  20   2.0000      -0.289814        -7.8862
  21   2.0000      -0.248161        -6.7528
  22   2.0000      -0.201168        -5.4741
  23   0.0000      -0.048021        -1.3067
  24   0.0000       0.022621         0.6156
  25   0.0000       0.047605         1.2954
  26   0.0000       0.067965         1.8494
  27   0.0000       0.083335         2.2677

MULLIKEN ATOMIC CHARGES
-----------------------
   0 C :   -0.225726
   1 C :   -0.039775
   2 C :   -0.245129
   3 C :   -0.047347
   4 C :   -0.234891
   5 C :   -0.231172
   6 H :    0.099227
   7 H :    0.111301
   8 H :    0.120634
   9 H :    0.095992
  10 H :    0.087516
  11 H :    0.085762
  12 H :    0.088937
  13 H :    0.118188
  14 H :    0.110529
  15 H :    0.105954
Sum of atomic charges:    0.0000000

LOEWDIN ATOMIC CHARGES
----------------------
   0 C :   -0.319876
   1 C :   -0.048958
   2 C :   -0.252769
   3 C :   -0.049447
   4 C :   -0.254062
   5 C :   -0.324169
   6 H :    0.124347
   7 H :    0.128048
   8 H :    0.132366
   9 H :    0.119104
  10 H :    0.119579
  11 H :    0.118431
  12 H :    0.118253
  13 H :    0.135977
  14 H :    0.129388
  15 H :    0.123788

  Mayer bond orders larger than 0.100000
B(  0-C ,  1-C ) :   1.1215 B(  0-C ,  6-H ) :   0.9394 B(  0-C ,  7-H ) :   0.9372
B(  0-C ,  8-H ) :   0.9213 B(  1-C ,  2-C ) :   1.9681 B(  1-C ,  3-C ) :   1.0504
B(  2-C ,  9-H ) :   0.9083 B(  2-C , 10-H ) :   0.9071 B(  3-C ,  4-C ) :   1.9730
B(  3-C ,  5-C ) :   1.1061 B(  4-C , 11-H ) :   0.9156 B(  4-C , 12-H ) :   0.9090
B(  5-C , 13-H ) :   0.9353 B(  5-C , 14-H ) :   0.9410 B(  5-C , 15-H ) :   0.9358

Dispersion correction           -0.012801289
FINAL SINGLE POINT ENERGY      -234.037990755378

DIPOLE MOMENT
-------------

Method             : SCF
Type of density    : Electron Density
Multiplicity       :   1
Irrep              :   0
Energy             :  -234.0851116382353325 Eh
Relativity type    :
Basis              : AO
                                X                 Y                 Z
Electronic contribution:      0.052422724       0.095706517       0.640399014
Nuclear contribution   :     -0.062965574      -0.103254807      -0.724542611
                        -----------------------------------------
Total Dipole Moment    :     -0.010542850      -0.007548290      -0.084143597
                        -----------------------------------------
Magnitude (a.u.)       :      0.085136791
Magnitude (Debye)      :      0.216400525

Rotational constants in cm-1:             0.163897             0.104911             0.070978
Rotational constants in MHz :          4913.515296          3145.141260          2127.869594

                             ****ORCA TERMINATED NORMALLY****
TOTAL RUN TIME: 0 days 0 hours 0 minutes 11 seconds 985 msec
