                         Program Version 6.0.1  -  RELEASE   -
|  1> ! pbe def2-sv(p) def2/J RI DEFGRID1 loosescf d4 GCP(DFT/SV(P)) printgap
|  2> %output
|  3>     printlevel normal
|  4> end
|  5> * xyz 0 1
|  6> C -3.5238197513 0.0002558797 0.0009516543
|  7> C -2.8276287057 1.1151566465 0.4367793625
|  8> C -1.4451494745 1.1170334695 0.4333543491
|  9> C -0.7355301727 -2.98263e-05 -0.0008842195
| 10> C -1.4459307086 -1.1169174347 -0.4342763656
| 11> C -2.8284164055 -1.1147720791 -0.4359050907
| 12> C 0.7355365931 -0.0002059893 -0.0009674836
| 13> C 1.4457705513 1.1167732659 -0.4344362648
| 14> C 2.8282462823 1.1149435934 -0.4358098752
| 15> C 3.5237790633 2.62028e-05 0.001053334
| 16> C 2.8278133663 -1.1151186061 0.4366516246
| 17> C 1.4453233967 -1.1171520452 0.4332298687
| 18> H -4.6038967665 0.0001521055 0.0021116862
| 19> H -3.364984083 1.9866062334 0.7822901564
| 20> H -0.9069747877 1.9838516342 0.7889999735
| 21> H -0.9083896361 -1.983707132 -0.7910233966
| 22> H -3.3663984842 -1.9862021276 -0.7804331521
| 23> H 0.9080293661 1.9833291284 -0.7914116778
| 24> H 3.3660665229 1.9862410878 -0.7809492928
| 25> H 4.6038897038 0.0001689394 0.0019665351
| 26> H 3.3653560402 -1.9863220203 0.7823991797
| 27> H 0.9073732132 -1.9840353499 0.7891377219
| 28> *
| 29>
| 30>                          ****END OF INPUT****

CARTESIAN COORDINATES (ANGSTROEM)
---------------------------------
  C     -3.523820    0.000256    0.000952
  C     -2.827629    1.115157    0.436779
  C     -1.445149    1.117033    0.433354
  C     -0.735530   -0.000030   -0.000884
  C     -1.445931   -1.116917   -0.434276
  C     -2.828416   -1.114772   -0.435905
  C      0.735537   -0.000206   -0.000967
  C      1.445771    1.116773   -0.434436
  C      2.828246    1.114944   -0.435810
  C      3.523779    0.000026    0.001053
  C      2.827813   -1.115119    0.436652
  C      1.445323   -1.117152    0.433230
  H     -4.603897    0.000152    0.002112
  H     -3.364984    1.986606    0.782290
  H     -0.906975    1.983852    0.789000
  H     -0.908390   -1.983707   -0.791023
  H     -3.366398   -1.986202   -0.780433
  H      0.908029    1.983329   -0.791412
  H      3.366067    1.986241   -0.780949
  H      4.603890    0.000169    0.001967
  H      3.365356   -1.986322    0.782399
  H      0.907373   -1.984035    0.789138

 Total Charge           Charge          ....    0
 Multiplicity           Mult            ....    1
 Number of Electrons    NEL             ....   82
 Basis Dimension        Dim             ....  188

ORBITAL ENERGIES
----------------

  NO   OCC          E(Eh)            E(eV)
   0   2.0000      -9.903408      -269.4854
   1   2.0000      -9.903339      -269.4836
   2   2.0000      -9.893798      -269.2239
   3   2.0000      -9.893797      -269.2239
   4   2.0000      -9.893777      -269.2234
   5   2.0000      -9.893770      -269.2232
   6   2.0000      -9.893142      -269.2061
   7   2.0000      -9.893133      -269.2058
   8   2.0000      -9.893127      -269.2057
   9   2.0000      -9.893118      -269.2054
  10   2.0000      -9.892570      -269.1905
  11   2.0000      -9.892569      -269.1905
  12   2.0000      -0.790466       -21.5097
  13   2.0000      -0.769235       -20.9319
  14   2.0000      -0.702041       -19.1035
  15   2.0000      -0.675623       -18.3846
  16   2.0000      -0.668215       -18.1831
  17   2.0000      -0.646745       -17.5988
  18   2.0000      -0.560407       -15.2494
  19   2.0000      -0.556160       -15.1339
  20   2.0000      -0.529882       -14.4188
  21   2.0000      -0.517869       -14.0919
  22   2.0000      -0.483767       -13.1640
  23   2.0000      -0.449585       -12.2338
  24   2.0000      -0.418024       -11.3750
  25   2.0000      -0.414782       -11.2868
  26   2.0000      -0.394097       -10.7239
  27   2.0000      -0.390805       -10.6343
  28   2.0000      -0.379310       -10.3216
  29   2.0000      -0.374747       -10.1974
  30   2.0000      -0.373160       -10.1542
  31   2.0000      -0.341319        -9.2878
  32   2.0000      -0.326198        -8.8763
  33   2.0000      -0.322504        -8.7758
  34   2.0000      -0.308918        -8.4061
  35   2.0000      -0.294780        -8.0214
  36   2.0000      -0.294700        -8.0192
  37   2.0000      -0.250187        -6.8079
  38   2.0000      -0.231450        -6.2981
  39   2.0000      -0.231445        -6.2979
  40   2.0000      -0.208163        -5.6644
  41   0.0000      -0.057229        -1.5573
  42   0.0000      -0.037255        -1.0138
  43   0.0000      -0.035975        -0.9789
  44   0.0000      -0.008453        -0.2300
  45   0.0000       0.045014         1.2249

MULLIKEN ATOMIC CHARGES
-----------------------
   0 C :   -0.047250
   1 C :   -0.048453
   2 C :   -0.113462
   3 C :    0.115936
   4 C :   -0.113505
   5 C :   -0.048476
   6 C :    0.115984
   7 C :   -0.113533
   8 C :   -0.048443
   9 C :   -0.047278
  10 C :   -0.048446
  11 C :   -0.113500
  12 H :    0.054055
  13 H :    0.052818
  14 H :    0.047756
  15 H :    0.047761
  16 H :    0.052815
  17 H :    0.047766
  18 H :    0.052817
  19 H :    0.054067
  20 H :    0.052808
  21 H :    0.047762
Sum of atomic charges:    0.0000000

LOEWDIN ATOMIC CHARGES
----------------------
   0 C :   -0.124738
   1 C :   -0.120108
   2 C :   -0.114802
   3 C :   -0.027152
   4 C :   -0.114819
   5 C :   -0.120107
   6 C :   -0.027154
   7 C :   -0.114819
   8 C :   -0.120111
   9 C :   -0.124730
  10 C :   -0.120116
  11 C :   -0.114795
  12 H :    0.123653
  13 H :    0.124078
  14 H :    0.124959
  15 H :    0.124957
  16 H :    0.124079
  17 H :    0.124959
  18 H :    0.124081
  19 H :    0.123648
  20 H :    0.124083
  21 H :    0.124955

  Mayer bond orders larger than 0.100000
B(  0-C ,  1-C ) :   1.3761 B(  0-C ,  5-C ) :   1.3761 B(  0-C , 12-H ) :   0.9655
B(  1-C ,  2-C ) :   1.3701 B(  1-C , 13-H ) :   0.9630 B(  2-C ,  3-C ) :   1.3766
B(  2-C , 14-H ) :   0.9578 B(  3-C ,  4-C ) :   1.3765 B(  3-C ,  6-C ) :   0.9853
B(  4-C ,  5-C ) :   1.3701 B(  4-C , 15-H ) :   0.9579 B(  5-C , 16-H ) :   0.9631
B(  6-C ,  7-C ) :   1.3765 B(  6-C , 11-C ) :   1.3766 B(  7-C ,  8-C ) :   1.3700
B(  7-C , 17-H ) :   0.9579 B(  8-C ,  9-C ) :   1.3761 B(  8-C , 18-H ) :   0.9631
B(  9-C , 10-C ) :   1.3762 B(  9-C , 19-H ) :   0.9655 B( 10-C , 11-C ) :   1.3701
B( 10-C , 20-H ) :   0.9631 B( 11-C , 21-H ) :   0.9578

Dispersion correction           -0.027110118
FINAL SINGLE POINT ENERGY      -462.290150085787

DIPOLE MOMENT
-------------

Method             : SCF
Type of density    : Electron Density
Multiplicity       :   1
Irrep              :   0
Energy             :  -462.3425801122509711 Eh
Relativity type    :
Basis              : AO
                                X                 Y                 Z
Electronic contribution:     -0.000054368      -0.000130853      -0.002519973
Nuclear contribution   :      0.000066693       0.000077398       0.002896820
                        -----------------------------------------
Total Dipole Moment    :      0.000012325      -0.000053455       0.000376847
                        -----------------------------------------
Magnitude (a.u.)       :      0.000380819
Magnitude (Debye)      :      0.000967964

Rotational constants in cm-1:             0.096543             0.018508             0.016223
Rotational constants in MHz :          2894.298210           554.867634           486.367873

                             ****ORCA TERMINATED NORMALLY****
TOTAL RUN TIME: 0 days 0 hours 0 minutes 21 seconds 500 msec
