                         Program Version 6.0.1  -  RELEASE   -
|  1> ! pbe def2-sv(p) def2/J RI DEFGRID1 loosescf d4 GCP(DFT/SV(P)) printgap
|  2> %output
|  3>     printlevel normal
|  4> end
|  5> * xyz 0 1
|  6> C -2.2226628929 -0.7052186596 1.1352288617
|  7> C -1.7853354717 0.0043708646 -0.1205800984
|  8> O -2.5740389409 0.5416010825 -0.8585576711
|  9> C -0.2944875397 0.0391800737 -0.4042021842
| 10> C 0.440254118 -1.2670782628 -0.1022148592
| 11> C 1.9163556578 -1.1285404173 -0.467015461
| 12> C 2.5538244048 0.0150233846 0.3165841408
| 13> C 1.8154002664 1.3228617875 0.047747588
| 14> C 0.3368139096 1.1872103263 0.3991666494
| 15> H -3.2650935742 -0.4762942968 1.3411716944
| 16> H -2.121132534 -1.7790319859 0.9897223579
| 17> H -1.6060846187 -0.4141926777 1.9810907316
| 18> H -0.1813494498 0.2749598326 -1.4684908304
| 19> H 0.3606440283 -1.5065092755 0.9595261782
| 20> H -0.0070322475 -2.0845973633 -0.6720407993
| 21> H 2.4381970274 -2.0633284182 -0.2519357672
| 22> H 2.0102665438 -0.9319745803 -1.5372919625
| 23> H 2.5137162435 -0.2113585453 1.3848381518
| 24> H 3.6040463376 0.1176556175 0.0367592094
| 25> H 2.258616243 2.1290121052 0.6359733331
| 26> H 1.9144510285 1.5851819931 -1.0076980135
| 27> H 0.2364631687 0.9861217914 1.4682877219
| 28> H -0.1878865705 2.1190254896 0.1791594294
| 29> *
| 30>
| 31>                          ****END OF INPUT****

CARTESIAN COORDINATES (ANGSTROEM)
---------------------------------
  C     -2.222663   -0.705219    1.135229
  C     -1.785335    0.004371   -0.120580
  O     -2.574039    0.541601   -0.858558
  C     -0.294488    0.039180   -0.404202
  C      0.440254   -1.267078   -0.102215
  C      1.916356   -1.128540   -0.467015
  C      2.553824    0.015023    0.316584
  C      1.815400    1.322862    0.047748
  C      0.336814    1.187210    0.399167
  H     -3.265094   -0.476294    1.341172
  H     -2.121133   -1.779032    0.989722
  H     -1.606085   -0.414193    1.981091
  H     -0.181349    0.274960   -1.468491
  H      0.360644   -1.506509    0.959526
  H     -0.007032   -2.084597   -0.672041
  H      2.438197   -2.063328   -0.251936
  H      2.010267   -0.931975   -1.537292
  H      2.513716   -0.211359    1.384838
  H      3.604046    0.117656    0.036759
  H      2.258616    2.129012    0.635973
  H      1.914451    1.585182   -1.007698
  H      0.236463    0.986122    1.468288
  H     -0.187887    2.119025    0.179159

 Total Charge           Charge          ....    0
 Multiplicity           Mult            ....    1
 Number of Electrons    NEL             ....   70
 Basis Dimension        Dim             ....  154

ORBITAL ENERGIES
----------------

  NO   OCC          E(Eh)            E(eV)
   0   2.0000     -18.731516      -509.7105
   1   2.0000      -9.968174      -271.2478
   2   2.0000      -9.897395      -269.3218
   3   2.0000      -9.894770      -269.2504
   4   2.0000      -9.893332      -269.2112
   5   2.0000      -9.889060      -269.0950
   6   2.0000      -9.888991      -269.0931
   7   2.0000      -9.887749      -269.0593
   8   2.0000      -9.884551      -268.9723
   9   2.0000      -0.934453       -25.4278
  10   2.0000      -0.767190       -20.8763
  11   2.0000      -0.693927       -18.8827
  12   2.0000      -0.675058       -18.3693
  13   2.0000      -0.652558       -17.7570
  14   2.0000      -0.562753       -15.3133
  15   2.0000      -0.550260       -14.9733
  16   2.0000      -0.506533       -13.7835
  17   2.0000      -0.473466       -12.8837
  18   2.0000      -0.435104       -11.8398
  19   2.0000      -0.411495       -11.1973
  20   2.0000      -0.404891       -11.0176
  21   2.0000      -0.403447       -10.9783
  22   2.0000      -0.394962       -10.7475
  23   2.0000      -0.370586       -10.0842
  24   2.0000      -0.360085        -9.7984
  25   2.0000      -0.344469        -9.3735
  26   2.0000      -0.342764        -9.3271
  27   2.0000      -0.334284        -9.0963
  28   2.0000      -0.315878        -8.5955
  29   2.0000      -0.308361        -8.3909
  30   2.0000      -0.300898        -8.1879
  31   2.0000      -0.289205        -7.8697
  32   2.0000      -0.278230        -7.5710
  33   2.0000      -0.265559        -7.2262
  34   2.0000      -0.187877        -5.1124
  35   0.0000      -0.043244        -1.1767
  36   0.0000       0.027512         0.7486
  37   0.0000       0.038719         1.0536
  38   0.0000       0.056470         1.5366
  39   0.0000       0.064344         1.7509

MULLIKEN ATOMIC CHARGES
-----------------------
   0 C :   -0.273847
   1 C :    0.034915
   2 O :   -0.156681
   3 C :   -0.178566
   4 C :   -0.131631
   5 C :   -0.135444
   6 C :   -0.169544
   7 C :   -0.121779
   8 C :   -0.153553
   9 H :    0.116149
  10 H :    0.130967
  11 H :    0.124725
  12 H :    0.068539
  13 H :    0.077696
  14 H :    0.092637
  15 H :    0.087688
  16 H :    0.078472
  17 H :    0.075539
  18 H :    0.088902
  19 H :    0.089234
  20 H :    0.079046
  21 H :    0.078252
  22 H :    0.098283
Sum of atomic charges:    0.0000000

LOEWDIN ATOMIC CHARGES
----------------------
   0 C :   -0.364615
   1 C :    0.046336
   2 O :   -0.124993
   3 C :   -0.168027
   4 C :   -0.218609
   5 C :   -0.223526
   6 C :   -0.227814
   7 C :   -0.223750
   8 C :   -0.209029
   9 H :    0.134316
  10 H :    0.145262
  11 H :    0.133818
  12 H :    0.126786
  13 H :    0.115230
  14 H :    0.118886
  15 H :    0.117671
  16 H :    0.116672
  17 H :    0.113960
  18 H :    0.118129
  19 H :    0.118699
  20 H :    0.117495
  21 H :    0.113849
  22 H :    0.123255

  Mayer bond orders larger than 0.100000
B(  0-C ,  1-C ) :   1.0679 B(  0-C ,  9-H ) :   0.9298 B(  0-C , 10-H ) :   0.9132
B(  0-C , 11-H ) :   0.9280 B(  1-C ,  2-O ) :   2.2125 B(  1-C ,  3-C ) :   0.9376
B(  3-C ,  4-C ) :   1.0658 B(  3-C ,  8-C ) :   1.0768 B(  3-C , 12-H ) :   0.8703
B(  4-C ,  5-C ) :   1.1330 B(  4-C , 13-H ) :   0.8916 B(  4-C , 14-H ) :   0.9193
B(  5-C ,  6-C ) :   1.1357 B(  5-C , 15-H ) :   0.9196 B(  5-C , 16-H ) :   0.9125
B(  6-C ,  7-C ) :   1.1351 B(  6-C , 17-H ) :   0.9151 B(  6-C , 18-H ) :   0.9191
B(  7-C ,  8-C ) :   1.1364 B(  7-C , 19-H ) :   0.9182 B(  7-C , 20-H ) :   0.9115
B(  8-C , 21-H ) :   0.9058 B(  8-C , 22-H ) :   0.9129

Dispersion correction           -0.022023590
FINAL SINGLE POINT ENERGY      -387.608843194539

DIPOLE MOMENT
-------------

Method             : SCF
Type of density    : Electron Density
Multiplicity       :   1
Irrep              :   0
Energy             :  -387.6863063179030746 Eh
Relativity type    :
Basis              : AO
                                X                 Y                 Z
Electronic contribution:     -6.616135880       1.695996436      -3.183552704
Nuclear contribution   :      7.436963810      -2.107841739       3.776586231
                        -----------------------------------------
Total Dipole Moment    :      0.820827930      -0.411845304       0.593033527
                        -----------------------------------------
Magnitude (a.u.)       :      1.093189740
Magnitude (Debye)      :      2.778667496

Rotational constants in cm-1:             0.102187             0.035092             0.031307
Rotational constants in MHz :          3063.484631          1052.040042           938.555459

                             ****ORCA TERMINATED NORMALLY****
TOTAL RUN TIME: 0 days 0 hours 0 minutes 10 seconds 934 msec
