                         Program Version 6.0.0  -   RELEASE  -
|  1> ! r2SCAN-3c DEF2-TZVP FREQ
|  2> * xyzfile 0 1 censo.xyz
|  3>
|  4>                          ****END OF INPUT****

CARTESIAN COORDINATES (ANGSTROEM)
---------------------------------
  C     -4.182485   -0.000221    0.015248
  C     -2.681161    0.000116   -0.010380
  C     -1.963003    1.199278   -0.009407
  C     -0.570564    1.212281   -0.002111
  C      0.106301    0.000106    0.002120
  C     -0.570608   -1.212130   -0.002102
  C     -1.962960   -1.199117   -0.009424
  Br     2.028822    0.000046    0.006386
  H     -4.586656    0.892823   -0.468625
  H     -4.586452   -0.884733   -0.484337
  H     -4.550530   -0.009707    1.048128
  H     -2.497394    2.145130   -0.015590
  H     -0.030878    2.152354   -0.003576
  H     -0.030898   -2.152191   -0.003559
  H     -2.497390   -2.144960   -0.015591

 Total Charge           Charge          ....    0
 Multiplicity           Mult            ....    1
 Number of Electrons    NEL             ....   84
 Basis Dimension        Dim             ....  307

ORBITAL ENERGIES
----------------

  NO   OCC          E(Eh)            E(eV)
   0   2.0000    -482.223563    -13121.9703
   1   2.0000     -62.294617     -1695.1227
   2   2.0000     -56.075880     -1525.9023
   3   2.0000     -56.071808     -1525.7915
   4   2.0000     -56.071806     -1525.7914
   5   2.0000     -10.095265      -274.7061
   6   2.0000     -10.056577      -273.6534
   7   2.0000     -10.051935      -273.5271
   8   2.0000     -10.051917      -273.5266
   9   2.0000     -10.047860      -273.4162
  10   2.0000     -10.047841      -273.4157
  11   2.0000     -10.039837      -273.1979
  12   2.0000      -8.627778      -234.7738
  13   2.0000      -6.434140      -175.0818
  14   2.0000      -6.422284      -174.7592
  15   2.0000      -6.421900      -174.7488
  16   2.0000      -2.531858       -68.8954
  17   2.0000      -2.529240       -68.8241
  18   2.0000      -2.528977       -68.8170
  19   2.0000      -2.519752       -68.5659
  20   2.0000      -2.519752       -68.5659
  21   2.0000      -0.844829       -22.9890
  22   2.0000      -0.778039       -21.1715
  23   2.0000      -0.728523       -19.8241
  24   2.0000      -0.721407       -19.6305
  25   2.0000      -0.649124       -17.6636
  26   2.0000      -0.591434       -16.0937
  27   2.0000      -0.558497       -15.1975
  28   2.0000      -0.476462       -12.9652
  29   2.0000      -0.448671       -12.2090
  30   2.0000      -0.433245       -11.7892
  31   2.0000      -0.404308       -11.0018
  32   2.0000      -0.402069       -10.9409
  33   2.0000      -0.380826       -10.3628
  34   2.0000      -0.367344        -9.9960
  35   2.0000      -0.356867        -9.7109
  36   2.0000      -0.325149        -8.8477
  37   2.0000      -0.324989        -8.8434
  38   2.0000      -0.285837        -7.7780
  39   2.0000      -0.264021        -7.1844
  40   2.0000      -0.250104        -6.8057
  41   2.0000      -0.221519        -6.0278
  42   0.0000      -0.048848        -1.3292
  43   0.0000      -0.042845        -1.1659
  44   0.0000      -0.024985        -0.6799
  45   0.0000       0.057547         1.5659
  46   0.0000       0.076457         2.0805

MULLIKEN ATOMIC CHARGES
-----------------------
   0 C :   -0.345504
   1 C :    0.167527
   2 C :   -0.179127
   3 C :   -0.139228
   4 C :    0.089579
   5 C :   -0.139237
   6 C :   -0.179240
   7 Br:   -0.105960
   8 H :    0.115132
   9 H :    0.115356
  10 H :    0.124529
  11 H :    0.107829
  12 H :    0.130224
  13 H :    0.130217
  14 H :    0.107903
Sum of atomic charges:    0.0000000

LOEWDIN ATOMIC CHARGES
----------------------
   0 C :   -0.251668
   1 C :   -0.171453
   2 C :   -0.108532
   3 C :   -0.142189
   4 C :   -0.367409
   5 C :   -0.142192
   6 C :   -0.108424
   7 Br:    0.308540
   8 H :    0.128199
   9 H :    0.128299
  10 H :    0.132805
  11 H :    0.147897
  12 H :    0.149098
  13 H :    0.149098
  14 H :    0.147931

  Mayer bond orders larger than 0.100000
B(  0-C ,  1-C ) :   0.9096 B(  0-C ,  8-H ) :   0.9830 B(  0-C ,  9-H ) :   0.9826
B(  0-C , 10-H ) :   0.9526 B(  1-C ,  2-C ) :   1.3347 B(  1-C ,  6-C ) :   1.3335
B(  2-C ,  3-C ) :   1.3887 B(  2-C , 11-H ) :   0.9762 B(  3-C ,  4-C ) :   1.3409
B(  3-C , 12-H ) :   0.9704 B(  4-C ,  5-C ) :   1.3403 B(  4-C ,  7-Br) :   1.0287
B(  5-C ,  6-C ) :   1.3893 B(  5-C , 13-H ) :   0.9704 B(  6-C , 14-H ) :   0.9765

Dispersion correction           -0.005217738
FINAL SINGLE POINT ENERGY     -2845.048169634107

DIPOLE MOMENT
-------------

Method             : SCF
Type of density    : Electron Density
Multiplicity       :   1
Irrep              :   0
Energy             : -2845.0473790523074058 Eh
Relativity type    :
Basis              : AO
                                X                 Y                 Z
Electronic contribution:     35.475240894       0.001007928       0.015948873
Nuclear contribution   :    -36.438507025      -0.001536958      -0.000002354
                        -----------------------------------------
Total Dipole Moment    :     -0.963266132      -0.000529030       0.015946519
                        -----------------------------------------
Magnitude (a.u.)       :      0.963398262
Magnitude (Debye)      :      2.448763776

VIBRATIONAL FREQUENCIES
-----------------------

Scaling factor for frequencies =  1.000000000  (already applied!)

     0:       0.00 cm**-1
     1:       0.00 cm**-1
     2:       0.00 cm**-1
     3:       0.00 cm**-1
     4:       0.00 cm**-1
     5:       0.00 cm**-1
     6:      84.79 cm**-1
     7:     106.70 cm**-1
     8:     215.56 cm**-1
     9:     285.43 cm**-1
    10:     292.56 cm**-1
    11:     370.89 cm**-1
    12:     414.69 cm**-1
    13:     487.64 cm**-1
    14:     597.18 cm**-1
    15:     648.15 cm**-1
    16:     714.84 cm**-1
    17:     803.45 cm**-1
    18:     810.90 cm**-1
    19:     828.56 cm**-1
    20:     942.67 cm**-1
    21:     945.95 cm**-1
    22:    1006.87 cm**-1
    23:    1029.18 cm**-1
    24:    1056.63 cm**-1
    25:    1074.96 cm**-1
    26:    1131.47 cm**-1
    27:    1200.63 cm**-1
    28:    1230.27 cm**-1
    29:    1319.77 cm**-1
    30:    1330.16 cm**-1
    31:    1401.67 cm**-1
    32:    1418.83 cm**-1
    33:    1480.46 cm**-1
    34:    1483.64 cm**-1
    35:    1509.63 cm**-1
    36:    1606.22 cm**-1
    37:    1619.58 cm**-1
    38:    3007.09 cm**-1
    39:    3073.41 cm**-1
    40:    3106.15 cm**-1
    41:    3156.33 cm**-1
    42:    3157.23 cm**-1
    43:    3189.85 cm**-1
    44:    3191.04 cm**-1

IR SPECTRUM
-----------

 Mode   freq       eps      Int      T**2         TX        TY        TZ
       cm**-1   L/(mol*cm) km/mol    a.u.
----------------------------------------------------------------------------
  6:     84.79   0.000056    0.28  0.000207  ( 0.000213  0.014365  0.000699)
  7:    106.70   0.000065    0.33  0.000190  ( 0.001307  0.000061  0.013728)
  8:    215.56   0.000003    0.02  0.000005  (-0.000016  0.002223 -0.000005)
  9:    285.43   0.000552    2.79  0.000604  (-0.024307 -0.000006 -0.003589)
 10:    292.56   0.000155    0.78  0.000166  ( 0.009051 -0.000041 -0.009142)
 11:    370.89   0.000033    0.17  0.000028  (-0.000097 -0.005299 -0.000006)
 12:    414.69   0.000001    0.01  0.000001  ( 0.000011  0.000950 -0.000047)
 13:    487.64   0.003760   19.00  0.002406  ( 0.002407 -0.000020 -0.048994)
 14:    597.18   0.002295   11.60  0.001199  ( 0.034550  0.000021  0.002336)
 15:    648.15   0.000017    0.09  0.000008  (-0.000016 -0.002856  0.000002)
 16:    714.84   0.000007    0.03  0.000003  ( 0.000478  0.000010 -0.001622)
 17:    803.45   0.004435   22.41  0.001723  ( 0.018766 -0.000005 -0.037018)
 18:    810.90   0.005662   28.61  0.002179  (-0.018054  0.000028 -0.043045)
 19:    828.56   0.000003    0.01  0.000001  ( 0.000012  0.000977 -0.000054)
 20:    942.67   0.000111    0.56  0.000037  ( 0.003440 -0.000006 -0.004996)
 21:    945.95   0.000000    0.00  0.000000  ( 0.000011 -0.000042 -0.000050)
 22:   1006.87   0.000000    0.00  0.000000  ( 0.000162 -0.000022 -0.000005)
 23:   1029.18   0.006699   33.85  0.002031  (-0.044997  0.000006 -0.002538)
 24:   1056.63   0.002977   15.04  0.000879  ( 0.025927 -0.000053 -0.014388)
 25:   1074.96   0.004997   25.25  0.001451  (-0.038088  0.000005  0.000094)
 26:   1131.47   0.001434    7.25  0.000396  ( 0.000128  0.019888 -0.000002)
 27:   1200.63   0.000243    1.23  0.000063  (-0.007937 -0.000006  0.000205)
 28:   1230.27   0.001480    7.48  0.000375  (-0.019234 -0.000025  0.002359)
 29:   1319.77   0.000029    0.15  0.000007  (-0.000027 -0.002632 -0.000001)
 30:   1330.16   0.000035    0.17  0.000008  (-0.000154 -0.002845  0.000001)
 31:   1401.67   0.000250    1.27  0.000056  (-0.007205  0.000006  0.001960)
 32:   1418.83   0.000411    2.08  0.000090  ( 0.000083 -0.009503  0.000022)
 33:   1480.46   0.001435    7.25  0.000302  (-0.002740 -0.000870 -0.017152)
 34:   1483.64   0.002328   11.77  0.000490  ( 0.000259 -0.022120  0.000596)
 35:   1509.63   0.012801   64.69  0.002646  ( 0.051428  0.000050 -0.001102)
 36:   1606.22   0.000244    1.23  0.000047  ( 0.000146 -0.006888  0.000002)
 37:   1619.58   0.000330    1.67  0.000064  (-0.007949 -0.000035 -0.000588)
 38:   3007.09   0.005778   29.20  0.000600  ( 0.024141  0.000005 -0.004098)
 39:   3073.41   0.002953   14.92  0.000300  ( 0.007627  0.000004  0.015545)
 40:   3106.15   0.002571   12.99  0.000258  ( 0.000169 -0.016072  0.000039)
 41:   3156.33   0.002459   12.43  0.000243  ( 0.000718  0.015576  0.000007)
 42:   3157.23   0.001850    9.35  0.000183  (-0.013495  0.000835 -0.000094)
 43:   3189.85   0.000772    3.90  0.000076  (-0.000000  0.008691  0.000001)
 44:   3191.04   0.000002    0.01  0.000000  (-0.000427  0.000056 -0.000047)

--------------------------
THERMOCHEMISTRY AT 298.15K
--------------------------

Temperature         ...   298.15 K
Pressure            ...     1.00 atm
Total Mass          ...   171.03 AMU
Quasi RRHO          ...     True
Cut-Off Frequency   ...     1.00 cm^-1

Throughout the following assumptions are being made:
  (1) The electronic state is orbitally nondegenerate
  (2) There are no thermally accessible electronically excited states
  (3) Hindered rotations indicated by low frequency modes are not
      treated as such but are treated as vibrations and this may
      cause some error
  (4) All equations used are the standard statistical mechanics
      equations for an ideal gas
  (5) All vibrations are strictly harmonic

freq.      84.79  E(vib)   ...       0.48
freq.     106.70  E(vib)   ...       0.45
freq.     215.56  E(vib)   ...       0.34
freq.     285.43  E(vib)   ...       0.28
freq.     292.56  E(vib)   ...       0.27
freq.     370.89  E(vib)   ...       0.21
freq.     414.69  E(vib)   ...       0.19
freq.     487.64  E(vib)   ...       0.15
freq.     597.18  E(vib)   ...       0.10
freq.     648.15  E(vib)   ...       0.08
freq.     714.84  E(vib)   ...       0.07
freq.     803.45  E(vib)   ...       0.05
freq.     810.90  E(vib)   ...       0.05
freq.     828.56  E(vib)   ...       0.04
freq.     942.67  E(vib)   ...       0.03
freq.     945.95  E(vib)   ...       0.03
freq.    1006.87  E(vib)   ...       0.02
freq.    1029.18  E(vib)   ...       0.02
freq.    1056.63  E(vib)   ...       0.02
freq.    1074.96  E(vib)   ...       0.02
freq.    1131.47  E(vib)   ...       0.01
freq.    1200.63  E(vib)   ...       0.01
freq.    1230.27  E(vib)   ...       0.01
freq.    1319.77  E(vib)   ...       0.01
freq.    1330.16  E(vib)   ...       0.01
freq.    1401.67  E(vib)   ...       0.00
freq.    1418.83  E(vib)   ...       0.00
freq.    1480.46  E(vib)   ...       0.00
freq.    1483.64  E(vib)   ...       0.00
freq.    1509.63  E(vib)   ...       0.00
freq.    1606.22  E(vib)   ...       0.00
freq.    1619.58  E(vib)   ...       0.00
freq.    3007.09  E(vib)   ...       0.00
freq.    3073.41  E(vib)   ...       0.00
freq.    3106.15  E(vib)   ...       0.00
freq.    3156.33  E(vib)   ...       0.00
freq.    3157.23  E(vib)   ...       0.00
freq.    3189.85  E(vib)   ...       0.00
freq.    3191.04  E(vib)   ...       0.00

------------
INNER ENERGY
------------

The inner energy is: U= E(el) + E(ZPE) + E(vib) + E(rot) + E(trans)
    E(el)   - is the total energy from the electronic structure calculation
              = E(kin-el) + E(nuc-el) + E(el-el) + E(nuc-nuc)
    E(ZPE)  - the the zero temperature vibrational energy from the frequency calculation
    E(vib)  - the the finite temperature correction to E(ZPE) due to population
              of excited vibrational states
    E(rot)  - is the rotational thermal energy
    E(trans)- is the translational thermal energy

Summary of contributions to the inner energy U:
Electronic energy                ...  -2845.04816963 Eh
Zero point energy                ...      0.11694072 Eh      73.38 kcal/mol
Thermal vibrational correction   ...      0.00471239 Eh       2.96 kcal/mol
Thermal rotational correction    ...      0.00141627 Eh       0.89 kcal/mol
Thermal translational correction ...      0.00141627 Eh       0.89 kcal/mol
-----------------------------------------------------------------------
Total thermal energy                  -2844.92368398 Eh

Summary of corrections to the electronic energy:
(perhaps to be used in another calculation)
Total thermal correction                  0.00754493 Eh       4.73 kcal/mol
Non-thermal (ZPE) correction              0.11694072 Eh      73.38 kcal/mol
-----------------------------------------------------------------------
Total correction                          0.12448565 Eh      78.12 kcal/mol

--------
ENTHALPY
--------

The enthalpy is H = U + kB*T
                kB is Boltzmann's constant
Total thermal energy              ...  -2844.92368398 Eh
Thermal Enthalpy correction       ...      0.00094421 Eh       0.59 kcal/mol
-----------------------------------------------------------------------
Total Enthalpy                    ...  -2844.92273977 Eh

Note: Only C1 symmetry has been detected, increase convergence thresholds
      if your molecule has a higher symmetry. Symmetry factor of 1.0 is
      used for the rotational entropy correction.

Note: Rotational entropy computed according to Herzberg
Infrared and Raman Spectra, Chapter V,1, Van Nostrand Reinhold, 1945
Point Group:  C1, Symmetry Number:   1
Rotational constants in cm-1:     0.183984     0.020986     0.018904

Vibrational entropy computed according to the QRRHO of S. Grimme
Chem.Eur.J. 2012 18 9955 using a reference frequency of 100.0 cm-1

-------
ENTROPY
-------

The entropy contributions are T*S = T*(S(el)+S(vib)+S(rot)+S(trans))
     S(el)   - electronic entropy
     S(vib)  - vibrational entropy
     S(rot)  - rotational entropy
     S(trans)- translational entropy
The entropies will be listed as multiplied by the temperature to get
units of energy

Electronic entropy                ...      0.00000000 Eh      0.00 kcal/mol
Vibrational entropy               ...      0.00786296 Eh      4.93 kcal/mol
Rotational entropy                ...      0.01400756 Eh      8.79 kcal/mol
Translational entropy             ...      0.01963134 Eh     12.32 kcal/mol
-----------------------------------------------------------------------
Final entropy term                ...      0.04150186 Eh     26.04 kcal/mol

In case the symmetry of your molecule has not been determined correctly
or in case you have a reason to use a different symmetry number we print
out the resulting rotational entropy values for sn=1,12:

 non-linear molecules -----------------------------------
|  sn= 1 | S(rot)=       0.01400756 Eh      8.79 kcal/mol|
|  sn= 2 | S(rot)=       0.01335310 Eh      8.38 kcal/mol|
|  sn= 3 | S(rot)=       0.01297027 Eh      8.14 kcal/mol|
|  sn= 4 | S(rot)=       0.01269865 Eh      7.97 kcal/mol|
|  sn= 5 | S(rot)=       0.01248796 Eh      7.84 kcal/mol|
|  sn= 6 | S(rot)=       0.01231581 Eh      7.73 kcal/mol|
|  sn= 7 | S(rot)=       0.01217027 Eh      7.64 kcal/mol|
|  sn= 8 | S(rot)=       0.01204419 Eh      7.56 kcal/mol|
|  sn= 9 | S(rot)=       0.01193298 Eh      7.49 kcal/mol|
|  sn=10 | S(rot)=       0.01183350 Eh      7.43 kcal/mol|
|  sn=11 | S(rot)=       0.01174351 Eh      7.37 kcal/mol|
|  sn=12 | S(rot)=       0.01166136 Eh      7.32 kcal/mol|
 linear molecules ---------------------------------------
|  Dinfh | S(rot)=       0.00907268 Eh      5.69 kcal/mol|
|  Cinfv | S(rot)=       0.00972714 Eh      6.10 kcal/mol|
 --------------------------------------------------------

-------------------
GIBBS FREE ENERGY
-------------------

                             ****ORCA TERMINATED NORMALLY****
TOTAL RUN TIME: 0 days 0 hours 11 minutes 42 seconds 451 msec
