                         Program Version 6.0.0  -   RELEASE  -
|  1> ! r2SCAN-3c DEF2-TZVP FREQ
|  2> * xyzfile 0 1 vacuum_censo.xyz
|  3>
|  4>                          ****END OF INPUT****

CARTESIAN COORDINATES (ANGSTROEM)
---------------------------------
  C     -4.179376   -0.000185   -0.015405
  C     -2.675830    0.000100    0.010585
  C     -1.957322   -1.197483    0.009260
  C     -0.566145   -1.209880    0.001544
  C      0.114692    0.000057   -0.002835
  C     -0.566081    1.209957    0.001484
  C     -1.957331    1.197603    0.009185
  Br     2.029130   -0.000016   -0.006998
  H     -4.585392    0.889764    0.472583
  H     -4.550165   -0.008653   -1.047101
  H     -4.585235   -0.882319    0.486809
  H     -2.491786   -2.143452    0.015314
  H     -0.021173   -2.146493    0.003205
  H     -0.021100    2.146564    0.003110
  H     -2.491736    2.143592    0.015186

 Total Charge           Charge          ....    0
 Multiplicity           Mult            ....    1
 Number of Electrons    NEL             ....   84
 Basis Dimension        Dim             ....  307

ORBITAL ENERGIES
----------------

  NO   OCC          E(Eh)            E(eV)
   0   2.0000    -482.224124    -13121.9855
   1   2.0000     -62.295186     -1695.1382
   2   2.0000     -56.076450     -1525.9178
   3   2.0000     -56.072368     -1525.8067
   4   2.0000     -56.072368     -1525.8067
   5   2.0000     -10.094501      -274.6853
   6   2.0000     -10.056296      -273.6457
   7   2.0000     -10.051307      -273.5100
   8   2.0000     -10.051290      -273.5095
   9   2.0000     -10.047422      -273.4043
  10   2.0000     -10.047404      -273.4038
  11   2.0000     -10.039816      -273.1973
  12   2.0000      -8.628407      -234.7909
  13   2.0000      -6.434738      -175.0981
  14   2.0000      -6.422936      -174.7770
  15   2.0000      -6.422540      -174.7662
  16   2.0000      -2.532487       -68.9125
  17   2.0000      -2.529872       -68.8413
  18   2.0000      -2.529602       -68.8340
  19   2.0000      -2.520404       -68.5837
  20   2.0000      -2.520404       -68.5837
  21   2.0000      -0.845171       -22.9983
  22   2.0000      -0.778953       -21.1964
  23   2.0000      -0.728254       -19.8168
  24   2.0000      -0.721567       -19.6348
  25   2.0000      -0.649250       -17.6670
  26   2.0000      -0.591401       -16.0928
  27   2.0000      -0.558200       -15.1894
  28   2.0000      -0.476837       -12.9754
  29   2.0000      -0.448575       -12.2063
  30   2.0000      -0.432822       -11.7777
  31   2.0000      -0.403529       -10.9806
  32   2.0000      -0.402038       -10.9400
  33   2.0000      -0.381541       -10.3823
  34   2.0000      -0.366669        -9.9776
  35   2.0000      -0.357257        -9.7215
  36   2.0000      -0.325589        -8.8597
  37   2.0000      -0.324409        -8.8276
  38   2.0000      -0.286631        -7.7996
  39   2.0000      -0.264469        -7.1966
  40   2.0000      -0.249901        -6.8002
  41   2.0000      -0.221441        -6.0257
  42   0.0000      -0.048347        -1.3156
  43   0.0000      -0.042645        -1.1604
  44   0.0000      -0.023301        -0.6340
  45   0.0000       0.057755         1.5716
  46   0.0000       0.076733         2.0880

MULLIKEN ATOMIC CHARGES
-----------------------
   0 C :   -0.346543
   1 C :    0.170500
   2 C :   -0.182215
   3 C :   -0.136842
   4 C :    0.085539
   5 C :   -0.136821
   6 C :   -0.182149
   7 Br:   -0.100781
   8 H :    0.115269
   9 H :    0.124693
  10 H :    0.115471
  11 H :    0.107609
  12 H :    0.129364
  13 H :    0.129368
  14 H :    0.107537
Sum of atomic charges:   -0.0000000

LOEWDIN ATOMIC CHARGES
----------------------
   0 C :   -0.251577
   1 C :   -0.171084
   2 C :   -0.108838
   3 C :   -0.142284
   4 C :   -0.373858
   5 C :   -0.142281
   6 C :   -0.108936
   7 Br:    0.316446
   8 H :    0.127999
   9 H :    0.132466
  10 H :    0.128088
  11 H :    0.148118
  12 H :    0.148827
  13 H :    0.148827
  14 H :    0.148087

  Mayer bond orders larger than 0.100000
B(  0-C ,  1-C ) :   0.9102 B(  0-C ,  8-H ) :   0.9831 B(  0-C ,  9-H ) :   0.9526
B(  0-C , 10-H ) :   0.9827 B(  1-C ,  2-C ) :   1.3331 B(  1-C ,  6-C ) :   1.3341
B(  2-C ,  3-C ) :   1.3893 B(  2-C , 11-H ) :   0.9770 B(  3-C ,  4-C ) :   1.3397
B(  3-C , 12-H ) :   0.9707 B(  4-C ,  5-C ) :   1.3402 B(  4-C ,  7-Br) :   1.0343
B(  5-C ,  6-C ) :   1.3888 B(  5-C , 13-H ) :   0.9706 B(  6-C , 14-H ) :   0.9768

Dispersion correction           -0.005219588
FINAL SINGLE POINT ENERGY     -2845.048293474440

DIPOLE MOMENT
-------------

Method             : SCF
Type of density    : Electron Density
Multiplicity       :   1
Irrep              :   0
Energy             : -2845.0475111064120028 Eh
Relativity type    :
Basis              : AO
                                X                 Y                 Z
Electronic contribution:     35.455557727       0.000353651      -0.024833202
Nuclear contribution   :    -36.401829196      -0.000788094       0.010167435
                        -----------------------------------------
Total Dipole Moment    :     -0.946271469      -0.000434443      -0.014665766
                        -----------------------------------------
Magnitude (a.u.)       :      0.946385210
Magnitude (Debye)      :      2.405520034

VIBRATIONAL FREQUENCIES
-----------------------

Scaling factor for frequencies =  1.000000000  (already applied!)

     0:       0.00 cm**-1
     1:       0.00 cm**-1
     2:       0.00 cm**-1
     3:       0.00 cm**-1
     4:       0.00 cm**-1
     5:       0.00 cm**-1
     6:      67.95 cm**-1
     7:     107.65 cm**-1
     8:     215.71 cm**-1
     9:     287.93 cm**-1
    10:     293.57 cm**-1
    11:     370.31 cm**-1
    12:     413.06 cm**-1
    13:     485.57 cm**-1
    14:     599.29 cm**-1
    15:     648.74 cm**-1
    16:     714.73 cm**-1
    17:     804.20 cm**-1
    18:     811.53 cm**-1
    19:     829.22 cm**-1
    20:     943.14 cm**-1
    21:     946.59 cm**-1
    22:    1004.81 cm**-1
    23:    1032.02 cm**-1
    24:    1056.42 cm**-1
    25:    1079.47 cm**-1
    26:    1131.92 cm**-1
    27:    1201.96 cm**-1
    28:    1228.08 cm**-1
    29:    1321.24 cm**-1
    30:    1334.10 cm**-1
    31:    1401.62 cm**-1
    32:    1421.16 cm**-1
    33:    1481.71 cm**-1
    34:    1482.82 cm**-1
    35:    1512.24 cm**-1
    36:    1608.13 cm**-1
    37:    1623.85 cm**-1
    38:    3008.64 cm**-1
    39:    3075.48 cm**-1
    40:    3104.87 cm**-1
    41:    3155.16 cm**-1
    42:    3156.13 cm**-1
    43:    3192.34 cm**-1
    44:    3193.52 cm**-1

IR SPECTRUM
-----------

 Mode   freq       eps      Int      T**2         TX        TY        TZ
       cm**-1   L/(mol*cm) km/mol    a.u.
----------------------------------------------------------------------------
  6:     67.95   0.000053    0.27  0.000242  ( 0.000260  0.015530 -0.000685)
  7:    107.65   0.000063    0.32  0.000184  ( 0.001259  0.000093 -0.013493)
  8:    215.71   0.000004    0.02  0.000006  (-0.000014  0.002443  0.000005)
  9:    287.93   0.000440    2.22  0.000477  ( 0.021310  0.000017 -0.004780)
 10:    293.57   0.000194    0.98  0.000206  ( 0.011818 -0.000048  0.008155)
 11:    370.31   0.000034    0.17  0.000028  (-0.000088 -0.005321  0.000005)
 12:    413.06   0.000001    0.01  0.000001  ( 0.000011  0.000947  0.000040)
 13:    485.57   0.003787   19.14  0.002434  ( 0.002317 -0.000017  0.049280)
 14:    599.29   0.002161   10.92  0.001125  (-0.033468 -0.000019  0.002243)
 15:    648.74   0.000015    0.07  0.000007  (-0.000015 -0.002661 -0.000002)
 16:    714.73   0.000010    0.05  0.000004  ( 0.000519  0.000012  0.002041)
 17:    804.20   0.004109   20.77  0.001595  ( 0.018985 -0.000005  0.035131)
 18:    811.53   0.005821   29.42  0.002239  (-0.016872  0.000026  0.044203)
 19:    829.22   0.000003    0.01  0.000001  (-0.000011 -0.000989 -0.000056)
 20:    943.14   0.000100    0.51  0.000033  ( 0.003433 -0.000013  0.004632)
 21:    946.59   0.000000    0.00  0.000000  (-0.000008 -0.000042 -0.000040)
 22:   1004.81   0.000000    0.00  0.000000  (-0.000189 -0.000230 -0.000004)
 23:   1032.02   0.006109   30.87  0.001847  (-0.042893  0.000003  0.002711)
 24:   1056.42   0.002964   14.98  0.000875  ( 0.025880 -0.000054  0.014340)
 25:   1079.47   0.005363   27.10  0.001550  ( 0.039375 -0.000005  0.000100)
 26:   1131.92   0.001481    7.49  0.000408  ( 0.000110  0.020207  0.000001)
 27:   1201.96   0.000225    1.14  0.000058  ( 0.007642  0.000004  0.000200)
 28:   1228.08   0.001422    7.19  0.000361  ( 0.018869  0.000022  0.002312)
 29:   1321.24   0.000041    0.20  0.000010  (-0.000029 -0.003094  0.000001)
 30:   1334.10   0.000029    0.15  0.000007  (-0.000130 -0.002610 -0.000001)
 31:   1401.62   0.000221    1.12  0.000049  ( 0.006790 -0.000008  0.001757)
 32:   1421.16   0.000392    1.98  0.000086  ( 0.000065 -0.009275 -0.000017)
 33:   1481.71   0.001433    7.24  0.000302  ( 0.002518  0.001978 -0.017074)
 34:   1482.82   0.002366   11.96  0.000498  ( 0.000364 -0.022265 -0.001446)
 35:   1512.24   0.012682   64.09  0.002617  (-0.051145 -0.000042 -0.001094)
 36:   1608.13   0.000239    1.21  0.000046  ( 0.000128 -0.006814 -0.000001)
 37:   1623.85   0.000381    1.93  0.000073  ( 0.008542  0.000026 -0.000583)
 38:   3008.64   0.005794   29.28  0.000601  (-0.024210 -0.000002 -0.003856)
 39:   3075.48   0.002938   14.85  0.000298  ( 0.007434  0.000007 -0.015584)
 40:   3104.87   0.002629   13.28  0.000264  ( 0.000165 -0.016253 -0.000046)
 41:   3155.16   0.002522   12.75  0.000249  (-0.000781 -0.015776  0.000009)
 42:   3156.13   0.001865    9.42  0.000184  (-0.013548  0.000914  0.000102)
 43:   3192.34   0.000805    4.07  0.000079  ( 0.000004 -0.008872  0.000001)
 44:   3193.52   0.000000    0.00  0.000000  ( 0.000159  0.000047  0.000039)

--------------------------
THERMOCHEMISTRY AT 298.15K
--------------------------

Temperature         ...   298.15 K
Pressure            ...     1.00 atm
Total Mass          ...   171.03 AMU
Quasi RRHO          ...     True
Cut-Off Frequency   ...     1.00 cm^-1

Throughout the following assumptions are being made:
  (1) The electronic state is orbitally nondegenerate
  (2) There are no thermally accessible electronically excited states
  (3) Hindered rotations indicated by low frequency modes are not
      treated as such but are treated as vibrations and this may
      cause some error
  (4) All equations used are the standard statistical mechanics
      equations for an ideal gas
  (5) All vibrations are strictly harmonic

freq.      67.95  E(vib)   ...       0.50
freq.     107.65  E(vib)   ...       0.45
freq.     215.71  E(vib)   ...       0.34
freq.     287.93  E(vib)   ...       0.27
freq.     293.57  E(vib)   ...       0.27
freq.     370.31  E(vib)   ...       0.21
freq.     413.06  E(vib)   ...       0.19
freq.     485.57  E(vib)   ...       0.15
freq.     599.29  E(vib)   ...       0.10
freq.     648.74  E(vib)   ...       0.08
freq.     714.73  E(vib)   ...       0.07
freq.     804.20  E(vib)   ...       0.05
freq.     811.53  E(vib)   ...       0.05
freq.     829.22  E(vib)   ...       0.04
freq.     943.14  E(vib)   ...       0.03
freq.     946.59  E(vib)   ...       0.03
freq.    1004.81  E(vib)   ...       0.02
freq.    1032.02  E(vib)   ...       0.02
freq.    1056.42  E(vib)   ...       0.02
freq.    1079.47  E(vib)   ...       0.02
freq.    1131.92  E(vib)   ...       0.01
freq.    1201.96  E(vib)   ...       0.01
freq.    1228.08  E(vib)   ...       0.01
freq.    1321.24  E(vib)   ...       0.01
freq.    1334.10  E(vib)   ...       0.01
freq.    1401.62  E(vib)   ...       0.00
freq.    1421.16  E(vib)   ...       0.00
freq.    1481.71  E(vib)   ...       0.00
freq.    1482.82  E(vib)   ...       0.00
freq.    1512.24  E(vib)   ...       0.00
freq.    1608.13  E(vib)   ...       0.00
freq.    1623.85  E(vib)   ...       0.00
freq.    3008.64  E(vib)   ...       0.00
freq.    3075.48  E(vib)   ...       0.00
freq.    3104.87  E(vib)   ...       0.00
freq.    3155.16  E(vib)   ...       0.00
freq.    3156.13  E(vib)   ...       0.00
freq.    3192.34  E(vib)   ...       0.00
freq.    3193.52  E(vib)   ...       0.00

------------
INNER ENERGY
------------

The inner energy is: U= E(el) + E(ZPE) + E(vib) + E(rot) + E(trans)
    E(el)   - is the total energy from the electronic structure calculation
              = E(kin-el) + E(nuc-el) + E(el-el) + E(nuc-nuc)
    E(ZPE)  - the the zero temperature vibrational energy from the frequency calculation
    E(vib)  - the the finite temperature correction to E(ZPE) due to population
              of excited vibrational states
    E(rot)  - is the rotational thermal energy
    E(trans)- is the translational thermal energy

Summary of contributions to the inner energy U:
Electronic energy                ...  -2845.04829347 Eh
Zero point energy                ...      0.11697676 Eh      73.40 kcal/mol
Thermal vibrational correction   ...      0.00474016 Eh       2.97 kcal/mol
Thermal rotational correction    ...      0.00141627 Eh       0.89 kcal/mol
Thermal translational correction ...      0.00141627 Eh       0.89 kcal/mol
-----------------------------------------------------------------------
Total thermal energy                  -2844.92374401 Eh

Summary of corrections to the electronic energy:
(perhaps to be used in another calculation)
Total thermal correction                  0.00757271 Eh       4.75 kcal/mol
Non-thermal (ZPE) correction              0.11697676 Eh      73.40 kcal/mol
-----------------------------------------------------------------------
Total correction                          0.12454946 Eh      78.16 kcal/mol

--------
ENTHALPY
--------

The enthalpy is H = U + kB*T
                kB is Boltzmann's constant
Total thermal energy              ...  -2844.92374401 Eh
Thermal Enthalpy correction       ...      0.00094421 Eh       0.59 kcal/mol
-----------------------------------------------------------------------
Total Enthalpy                    ...  -2844.92279980 Eh

Note: Only C1 symmetry has been detected, increase convergence thresholds
      if your molecule has a higher symmetry. Symmetry factor of 1.0 is
      used for the rotational entropy correction.

Note: Rotational entropy computed according to Herzberg
Infrared and Raman Spectra, Chapter V,1, Van Nostrand Reinhold, 1945
Point Group:  C1, Symmetry Number:   1
Rotational constants in cm-1:     0.184582     0.021019     0.018937

Vibrational entropy computed according to the QRRHO of S. Grimme
Chem.Eur.J. 2012 18 9955 using a reference frequency of 100.0 cm-1

-------
ENTROPY
-------

The entropy contributions are T*S = T*(S(el)+S(vib)+S(rot)+S(trans))
     S(el)   - electronic entropy
     S(vib)  - vibrational entropy
     S(rot)  - rotational entropy
     S(trans)- translational entropy
The entropies will be listed as multiplied by the temperature to get
units of energy

Electronic entropy                ...      0.00000000 Eh      0.00 kcal/mol
Vibrational entropy               ...      0.00791352 Eh      4.97 kcal/mol
Rotational entropy                ...      0.01400444 Eh      8.79 kcal/mol
Translational entropy             ...      0.01963134 Eh     12.32 kcal/mol
-----------------------------------------------------------------------
Final entropy term                ...      0.04154930 Eh     26.07 kcal/mol

In case the symmetry of your molecule has not been determined correctly
or in case you have a reason to use a different symmetry number we print
out the resulting rotational entropy values for sn=1,12:

 non-linear molecules -----------------------------------
|  sn= 1 | S(rot)=       0.01400444 Eh      8.79 kcal/mol|
|  sn= 2 | S(rot)=       0.01334998 Eh      8.38 kcal/mol|
|  sn= 3 | S(rot)=       0.01296715 Eh      8.14 kcal/mol|
|  sn= 4 | S(rot)=       0.01269553 Eh      7.97 kcal/mol|
|  sn= 5 | S(rot)=       0.01248484 Eh      7.83 kcal/mol|
|  sn= 6 | S(rot)=       0.01231269 Eh      7.73 kcal/mol|
|  sn= 7 | S(rot)=       0.01216715 Eh      7.63 kcal/mol|
|  sn= 8 | S(rot)=       0.01204107 Eh      7.56 kcal/mol|
|  sn= 9 | S(rot)=       0.01192986 Eh      7.49 kcal/mol|
|  sn=10 | S(rot)=       0.01183038 Eh      7.42 kcal/mol|
|  sn=11 | S(rot)=       0.01174039 Eh      7.37 kcal/mol|
|  sn=12 | S(rot)=       0.01165824 Eh      7.32 kcal/mol|
 linear molecules ---------------------------------------
|  Dinfh | S(rot)=       0.00907101 Eh      5.69 kcal/mol|
|  Cinfv | S(rot)=       0.00972546 Eh      6.10 kcal/mol|
 --------------------------------------------------------

-------------------
GIBBS FREE ENERGY
-------------------

                             ****ORCA TERMINATED NORMALLY****
TOTAL RUN TIME: 0 days 0 hours 11 minutes 46 seconds 623 msec
