                         Program Version 6.0.1  -  RELEASE   -
|  1> ! r2scan-3c def2/J RI DEFGRID2 scfconv6 printgap
|  2> %output
|  3>     printlevel normal
|  4> end
|  5> * xyz 0 1
|  6> C -2.1539072592 -0.9529761157 -0.0880754029
|  7> C -1.0683936779 -0.3483098477 0.8256331596
|  8> H -1.4915578225 -0.3267306906 1.8379140028
|  9> C -0.7310224256 1.1213158445 0.4577414658
| 10> H -1.6113851885 1.5482309425 -0.0401689368
| 11> C 0.4757146615 1.241246684 -0.4856692735
| 12> H 0.8212020093 2.2842602729 -0.4565860772
| 13> C 1.6215554724 0.3367210406 0.0359574165
| 14> H 2.4920613295 0.4363920542 -0.6225314851
| 15> C 1.1268819455 -1.1136666593 0.0473318356
| 16> H 1.8855390338 -1.7775843501 0.4888948606
| 17> O 0.058375629 -1.2165028307 0.9620791699
| 18> O 0.844329048 -1.5951032046 -1.2272180486
| 19> O 1.9971737374 0.7172823577 1.3411856893
| 20> O 0.1688693372 0.9243169085 -1.8260492961
| 21> O -0.5406605977 1.9017627119 1.6093692705
| 22> O -1.8316272933 -0.9331145154 -1.4570393522
| 23> H -3.0676675604 -0.3651279957 0.0233301746
| 24> H -2.3474367466 -1.9780516672 0.2468685485
| 25> H 0.7720526179 -0.8312459617 -1.8336123255
| 26> H 1.6479473987 0.0565106371 1.9570762979
| 27> H -0.7299919687 0.5390013541 -1.8706624267
| 28> H 0.3776573863 1.799113961 1.9037407192
| 29> H -1.1145913483 -1.5767346731 -1.5959163457
| 30> *
| 31>
| 32>                          ****END OF INPUT****

CARTESIAN COORDINATES (ANGSTROEM)
---------------------------------
  C     -2.153907   -0.952976   -0.088075
  C     -1.068394   -0.348310    0.825633
  H     -1.491558   -0.326731    1.837914
  C     -0.731022    1.121316    0.457741
  H     -1.611385    1.548231   -0.040169
  C      0.475715    1.241247   -0.485669
  H      0.821202    2.284260   -0.456586
  C      1.621555    0.336721    0.035957
  H      2.492061    0.436392   -0.622531
  C      1.126882   -1.113667    0.047332
  H      1.885539   -1.777584    0.488895
  O      0.058376   -1.216503    0.962079
  O      0.844329   -1.595103   -1.227218
  O      1.997174    0.717282    1.341186
  O      0.168869    0.924317   -1.826049
  O     -0.540661    1.901763    1.609369
  O     -1.831627   -0.933115   -1.457039
  H     -3.067668   -0.365128    0.023330
  H     -2.347437   -1.978052    0.246869
  H      0.772053   -0.831246   -1.833612
  H      1.647947    0.056511    1.957076
  H     -0.729992    0.539001   -1.870662
  H      0.377657    1.799114    1.903741
  H     -1.114591   -1.576735   -1.595916

 Total Charge           Charge          ....    0
 Multiplicity           Mult            ....    1
 Number of Electrons    NEL             ....   96
 Basis Dimension        Dim             ....  318

ORBITAL ENERGIES
----------------

  NO   OCC          E(Eh)            E(eV)
   0   2.0000     -18.983128      -516.5572
   1   2.0000     -18.982390      -516.5371
   2   2.0000     -18.975660      -516.3540
   3   2.0000     -18.974429      -516.3205
   4   2.0000     -18.972031      -516.2552
   5   2.0000     -18.954511      -515.7785
   6   2.0000     -10.152050      -276.2513
   7   2.0000     -10.106246      -275.0049
   8   2.0000     -10.103328      -274.9255
   9   2.0000     -10.103159      -274.9209
  10   2.0000     -10.100758      -274.8556
  11   2.0000     -10.094961      -274.6979
  12   2.0000      -1.063788       -28.9471
  13   2.0000      -1.022409       -27.8212
  14   2.0000      -1.016143       -27.6507
  15   2.0000      -1.008123       -27.4324
  16   2.0000      -0.999479       -27.1972
  17   2.0000      -0.988436       -26.8967
  18   2.0000      -0.757862       -20.6225
  19   2.0000      -0.746181       -20.3046
  20   2.0000      -0.670196       -18.2370
  21   2.0000      -0.645502       -17.5650
  22   2.0000      -0.616124       -16.7656
  23   2.0000      -0.558921       -15.2090
  24   2.0000      -0.542166       -14.7531
  25   2.0000      -0.523627       -14.2486
  26   2.0000      -0.502637       -13.6775
  27   2.0000      -0.488481       -13.2922
  28   2.0000      -0.482322       -13.1246
  29   2.0000      -0.466552       -12.6955
  30   2.0000      -0.447380       -12.1738
  31   2.0000      -0.427657       -11.6371
  32   2.0000      -0.423761       -11.5311
  33   2.0000      -0.402740       -10.9591
  34   2.0000      -0.394939       -10.7468
  35   2.0000      -0.384173       -10.4539
  36   2.0000      -0.379179       -10.3180
  37   2.0000      -0.360170        -9.8007
  38   2.0000      -0.338534        -9.2120
  39   2.0000      -0.334458        -9.1011
  40   2.0000      -0.324787        -8.8379
  41   2.0000      -0.305358        -8.3092
  42   2.0000      -0.294522        -8.0144
  43   2.0000      -0.288982        -7.8636
  44   2.0000      -0.273475        -7.4416
  45   2.0000      -0.257183        -6.9983
  46   2.0000      -0.239693        -6.5224
  47   2.0000      -0.231968        -6.3122
  48   0.0000       0.021673         0.5898
  49   0.0000       0.040307         1.0968
  50   0.0000       0.064194         1.7468
  51   0.0000       0.078922         2.1476
  52   0.0000       0.080572         2.1925

MULLIKEN ATOMIC CHARGES
-----------------------
   0 C :   -0.254451
   1 C :    0.072822
   2 H :    0.176378
   3 C :   -0.165459
   4 H :    0.180435
   5 C :    0.001765
   6 H :    0.176776
   7 C :   -0.040934
   8 H :    0.178139
   9 C :   -0.096209
  10 H :    0.153013
  11 O :   -0.219084
  12 O :   -0.407952
  13 O :   -0.450871
  14 O :   -0.489263
  15 O :   -0.400114
  16 O :   -0.461100
  17 H :    0.148246
  18 H :    0.151519
  19 H :    0.358358
  20 H :    0.342132
  21 H :    0.366537
  22 H :    0.326512
  23 H :    0.352805
Sum of atomic charges:   -0.0000000

LOEWDIN ATOMIC CHARGES
----------------------
   0 C :    0.027902
   1 C :    0.099003
   2 H :    0.211170
   3 C :    0.107333
   4 H :    0.198284
   5 C :    0.116050
   6 H :    0.196880
   7 C :    0.120548
   8 H :    0.194093
   9 C :    0.285194
  10 H :    0.209624
  11 O :   -0.670696
  12 O :   -0.522528
  13 O :   -0.569826
  14 O :   -0.597613
  15 O :   -0.577369
  16 O :   -0.615715
  17 H :    0.185091
  18 H :    0.176410
  19 H :    0.290045
  20 H :    0.283881
  21 H :    0.288384
  22 H :    0.280248
  23 H :    0.283607

  Mayer bond orders larger than 0.100000
B(  0-C ,  1-C ) :   0.8775 B(  0-C , 16-O ) :   1.0085 B(  0-C , 17-H ) :   0.9796
B(  0-C , 18-H ) :   0.9765 B(  1-C ,  2-H ) :   0.9449 B(  1-C ,  3-C ) :   0.7678
B(  1-C , 11-O ) :   0.9042 B(  1-C , 16-O ) :  -0.1164 B(  3-C ,  4-H ) :   1.0100
B(  3-C ,  5-C ) :   0.8811 B(  3-C , 15-O ) :   0.9815 B(  5-C ,  6-H ) :   0.9803
B(  5-C ,  7-C ) :   0.8487 B(  5-C , 14-O ) :   0.9198 B(  7-C ,  8-H ) :   0.9738
B(  7-C ,  9-C ) :   0.9474 B(  7-C , 13-O ) :   0.9577 B(  9-C , 10-H ) :   0.9791
B(  9-C , 11-O ) :   0.9539 B(  9-C , 12-O ) :   1.0274 B( 12-O , 19-H ) :   0.7942
B( 13-O , 20-H ) :   0.8427 B( 14-O , 21-H ) :   0.7951 B( 15-O , 22-H ) :   0.8383
B( 16-O , 23-H ) :   0.8276

Dispersion correction           -0.009010168
FINAL SINGLE POINT ENERGY      -687.074669502370

DIPOLE MOMENT
-------------

Method             : SCF
Type of density    : Electron Density
Multiplicity       :   1
Irrep              :   0
Energy             :  -687.0896973047691745 Eh
Relativity type    :
Basis              : AO
                                X                 Y                 Z
Electronic contribution:      2.163488412      -0.188055374       0.188539028
Nuclear contribution   :     -2.209553096      -0.183079899       0.027121801
                        -----------------------------------------
Total Dipole Moment    :     -0.046064684      -0.371135274       0.215660829
                        -----------------------------------------
Magnitude (a.u.)       :      0.431709323
Magnitude (Debye)      :      1.097317894

Rotational constants in cm-1:             0.040722             0.032385             0.027942
Rotational constants in MHz :          1220.812873           970.891573           837.674659

                             ****ORCA TERMINATED NORMALLY****
TOTAL RUN TIME: 0 days 0 hours 0 minutes 46 seconds 9 msec
