                         Program Version 6.0.1  -  RELEASE   -
|  1> ! pbe def2-sv(p) def2/J RI DEFGRID1 loosescf d4 GCP(DFT/SV(P)) printgap
|  2> %output
|  3>     printlevel normal
|  4> end
|  5> * xyz 0 1
|  6> C -2.4699020161 -0.450439415 1.331349644
|  7> C -2.0478050711 -0.4718812918 -0.1421127806
|  8> H -2.9616034807 -0.5659943066 -0.740910798
|  9> C -1.1065816107 -1.624953357 -0.4746046842
| 10> C 0.2608125678 -1.5012476512 0.206554397
| 11> C 0.7723555072 -0.0492712804 0.2875763931
| 12> H 0.4922157402 0.370452188 1.2635762245
| 13> C 0.0690454811 0.810892704 -0.7709594276
| 14> C -1.4160116268 0.858931302 -0.5032652165
| 15> O -2.0520064771 1.8825769544 -0.5560982779
| 16> C 2.287837442 0.0291481956 0.223561597
| 17> C 3.0613608991 -0.9320157455 0.7059388618
| 18> C 2.8965073672 1.2797949763 -0.3384757517
| 19> H -3.008430704 -1.362830372 1.5777061881
| 20> H -1.6063299137 -0.3713017736 1.9860086843
| 21> H -3.1210318388 0.4008426855 1.5146016475
| 22> H -1.5689707126 -2.5694238726 -0.1808292853
| 23> H -0.9715523306 -1.657236556 -1.5581329913
| 24> H 0.2072751796 -1.9212613153 1.211479856
| 25> H 0.9738518473 -2.1019493908 -0.3607337906
| 26> H 0.4384358213 1.8354929577 -0.7734536159
| 27> H 0.2302614619 0.3841904303 -1.7639195176
| 28> H 4.1346982061 -0.8463736243 0.6866965753
| 29> H 2.6750008816 -1.8344235554 1.1447423979
| 30> H 3.9762676618 1.2599379941 -0.2157511132
| 31> H 2.6754340571 1.3784761934 -1.4001234775
| 32> H 2.5084550482 2.1593529974 0.173485129
| 33> *
| 34>
| 35>                          ****END OF INPUT****

CARTESIAN COORDINATES (ANGSTROEM)
---------------------------------
  C     -2.469902   -0.450439    1.331350
  C     -2.047805   -0.471881   -0.142113
  H     -2.961603   -0.565994   -0.740911
  C     -1.106582   -1.624953   -0.474605
  C      0.260813   -1.501248    0.206554
  C      0.772356   -0.049271    0.287576
  H      0.492216    0.370452    1.263576
  C      0.069045    0.810893   -0.770959
  C     -1.416012    0.858931   -0.503265
  O     -2.052006    1.882577   -0.556098
  C      2.287837    0.029148    0.223562
  C      3.061361   -0.932016    0.705939
  C      2.896507    1.279795   -0.338476
  H     -3.008431   -1.362830    1.577706
  H     -1.606330   -0.371302    1.986009
  H     -3.121032    0.400843    1.514602
  H     -1.568971   -2.569424   -0.180829
  H     -0.971552   -1.657237   -1.558133
  H      0.207275   -1.921261    1.211480
  H      0.973852   -2.101949   -0.360734
  H      0.438436    1.835493   -0.773454
  H      0.230261    0.384190   -1.763920
  H      4.134698   -0.846374    0.686697
  H      2.675001   -1.834424    1.144742
  H      3.976268    1.259938   -0.215751
  H      2.675434    1.378476   -1.400123
  H      2.508455    2.159353    0.173485

 Total Charge           Charge          ....    0
 Multiplicity           Mult            ....    1
 Number of Electrons    NEL             ....   84
 Basis Dimension        Dim             ....  186

ORBITAL ENERGIES
----------------

  NO   OCC          E(Eh)            E(eV)
   0   2.0000     -18.739741      -509.9343
   1   2.0000      -9.969628      -271.2874
   2   2.0000      -9.910776      -269.6859
   3   2.0000      -9.904688      -269.5203
   4   2.0000      -9.901167      -269.4245
   5   2.0000      -9.893510      -269.2161
   6   2.0000      -9.893190      -269.2074
   7   2.0000      -9.891288      -269.1556
   8   2.0000      -9.886383      -269.0222
   9   2.0000      -9.885646      -269.0021
  10   2.0000      -9.874627      -268.7023
  11   2.0000      -0.939475       -25.5644
  12   2.0000      -0.773048       -21.0357
  13   2.0000      -0.730141       -19.8681
  14   2.0000      -0.682836       -18.5809
  15   2.0000      -0.660961       -17.9857
  16   2.0000      -0.622236       -16.9319
  17   2.0000      -0.605869       -16.4865
  18   2.0000      -0.555420       -15.1137
  19   2.0000      -0.532446       -14.4886
  20   2.0000      -0.474805       -12.9201
  21   2.0000      -0.461095       -12.5470
  22   2.0000      -0.443967       -12.0810
  23   2.0000      -0.425451       -11.5771
  24   2.0000      -0.414438       -11.2774
  25   2.0000      -0.404239       -10.9999
  26   2.0000      -0.384231       -10.4555
  27   2.0000      -0.378534       -10.3004
  28   2.0000      -0.374288       -10.1849
  29   2.0000      -0.365000        -9.9322
  30   2.0000      -0.355400        -9.6709
  31   2.0000      -0.346894        -9.4395
  32   2.0000      -0.338374        -9.2076
  33   2.0000      -0.324404        -8.8275
  34   2.0000      -0.322393        -8.7728
  35   2.0000      -0.319834        -8.7031
  36   2.0000      -0.310256        -8.4425
  37   2.0000      -0.285081        -7.7575
  38   2.0000      -0.279409        -7.6031
  39   2.0000      -0.276269        -7.5177
  40   2.0000      -0.220547        -6.0014
  41   2.0000      -0.192073        -5.2266
  42   0.0000      -0.051466        -1.4005
  43   0.0000      -0.019088        -0.5194
  44   0.0000       0.026063         0.7092
  45   0.0000       0.041401         1.1266
  46   0.0000       0.051909         1.4125

MULLIKEN ATOMIC CHARGES
-----------------------
   0 C :   -0.256263
   1 C :   -0.169503
   2 H :    0.088815
   3 C :   -0.076751
   4 C :   -0.160239
   5 C :   -0.158538
   6 H :    0.098267
   7 C :   -0.094527
   8 C :    0.013549
   9 O :   -0.153366
  10 C :   -0.065104
  11 C :   -0.222288
  12 C :   -0.223564
  13 H :    0.106782
  14 H :    0.107461
  15 H :    0.119626
  16 H :    0.084939
  17 H :    0.076772
  18 H :    0.092625
  19 H :    0.092428
  20 H :    0.092389
  21 H :    0.101673
  22 H :    0.081145
  23 H :    0.090329
  24 H :    0.098021
  25 H :    0.117908
  26 H :    0.117413
Sum of atomic charges:   -0.0000000

LOEWDIN ATOMIC CHARGES
----------------------
   0 C :   -0.319925
   1 C :   -0.175426
   2 H :    0.136733
   3 C :   -0.218956
   4 C :   -0.220632
   5 C :   -0.130588
   6 H :    0.133130
   7 C :   -0.239955
   8 C :    0.053211
   9 O :   -0.122494
  10 C :   -0.050912
  11 C :   -0.267885
  12 C :   -0.323150
  13 H :    0.122325
  14 H :    0.118029
  15 H :    0.128494
  16 H :    0.122109
  17 H :    0.117736
  18 H :    0.120315
  19 H :    0.125836
  20 H :    0.130992
  21 H :    0.140307
  22 H :    0.118323
  23 H :    0.118154
  24 H :    0.125069
  25 H :    0.129596
  26 H :    0.129564

  Mayer bond orders larger than 0.100000
B(  0-C ,  1-C ) :   1.0940 B(  0-C , 13-H ) :   0.9473 B(  0-C , 14-H ) :   0.9436
B(  0-C , 15-H ) :   0.9434 B(  1-C ,  2-H ) :   0.8703 B(  1-C ,  3-C ) :   1.1001
B(  1-C ,  8-C ) :   0.9242 B(  3-C ,  4-C ) :   1.1479 B(  3-C , 16-H ) :   0.9098
B(  3-C , 17-H ) :   0.8964 B(  4-C ,  5-C ) :   1.0995 B(  4-C , 18-H ) :   0.9064
B(  4-C , 19-H ) :   0.9021 B(  5-C ,  6-H ) :   0.8563 B(  5-C ,  7-C ) :   1.1356
B(  5-C , 10-C ) :   0.9964 B(  7-C ,  8-C ) :   1.0529 B(  7-C , 20-H ) :   0.8727
B(  7-C , 21-H ) :   0.8626 B(  8-C ,  9-O ) :   2.2008 B( 10-C , 11-C ) :   2.0508
B( 10-C , 12-C ) :   1.1360 B( 11-C , 22-H ) :   0.8984 B( 11-C , 23-H ) :   0.9023
B( 12-C , 24-H ) :   0.9332 B( 12-C , 25-H ) :   0.9187 B( 12-C , 26-H ) :   0.9294

Dispersion correction           -0.028717831
FINAL SINGLE POINT ENERGY      -464.820389137364

DIPOLE MOMENT
-------------

Method             : SCF
Type of density    : Electron Density
Multiplicity       :   1
Irrep              :   0
Energy             :  -464.9064109165369700 Eh
Relativity type    :
Basis              : AO
                                X                 Y                 Z
Electronic contribution:     -4.303770584       4.322811191      -2.330005090
Nuclear contribution   :      4.729806661      -5.077632302       2.397627543
                        -----------------------------------------
Total Dipole Moment    :      0.426036077      -0.754821111       0.067622453
                        -----------------------------------------
Magnitude (a.u.)       :      0.869387397
Magnitude (Debye)      :      2.209807146

Rotational constants in cm-1:             0.061401             0.025608             0.020461
Rotational constants in MHz :          1840.741860           767.718762           613.396014

                             ****ORCA TERMINATED NORMALLY****
TOTAL RUN TIME: 0 days 0 hours 0 minutes 21 seconds 411 msec
