                         Program Version 6.0.1  -  RELEASE   -
|  1> ! pbe def2-sv(p) def2/J RI DEFGRID1 loosescf d4 GCP(DFT/SV(P)) printgap
|  2> %output
|  3>     printlevel normal
|  4> end
|  5> * xyz 0 1
|  6> C 3.0620612772 0.0813163077 -0.2304631386
|  7> C 1.9334888043 -0.1407523498 0.7746990615
|  8> H 2.3938691372 -0.2755052334 1.7620271648
|  9> C 1.1215619532 -1.4006860865 0.4612989949
| 10> C 0.2262130541 -1.205390054 -0.7565545902
| 11> C -0.7857997423 -0.0738057581 -0.5448414334
| 12> H -1.3394217262 0.0577659061 -1.4865698456
| 13> C 0.0153499673 1.2201271091 -0.2953292093
| 14> H -0.6778964854 2.036221651 -0.0329767807
| 15> C 1.0103879036 1.0800024113 0.8611414701
| 16> O 0.7233741489 1.6080820839 -1.4597339156
| 17> C -1.8344454799 -0.3485016117 0.5523406458
| 18> C -2.9556394402 0.6925696189 0.5141383647
| 19> C -2.4609609463 -1.7360147772 0.401628073
| 20> H 3.7113241473 0.8842825565 0.1115066033
| 21> H 3.6605076636 -0.8214075707 -0.3369626142
| 22> H 2.6658615321 0.3638442716 -1.1995174959
| 23> H 1.8038734634 -2.2346177541 0.281140791
| 24> H 0.5097219789 -1.6591842385 1.3279748401
| 25> H 0.8492042934 -0.9411794029 -1.6128266802
| 26> H -0.2854483777 -2.1358793865 -1.0022621201
| 27> H 1.6162409222 1.9871214981 0.8880447053
| 28> H 0.435843605 1.0335557192 1.7881281163
| 29> H 0.0965375417 1.6898720119 -2.1863078564
| 30> H -1.3523501459 -0.2940775479 1.5322606542
| 31> H -3.4507524451 0.6816362812 -0.4551585676
| 32> H -2.5837280934 1.6962649926 0.7000878398
| 33> H -3.6981179368 0.4680921066 1.276887762
| 34> H -2.8531716433 -1.8698182026 -0.6046019631
| 35> H -3.28420764 -1.8473151747 1.1043116653
| 36> H -1.742857504 -2.5249842431 0.6044321018
| 37> *
| 38>
| 39>                          ****END OF INPUT****

CARTESIAN COORDINATES (ANGSTROEM)
---------------------------------
  C      3.062061    0.081316   -0.230463
  C      1.933489   -0.140752    0.774699
  H      2.393869   -0.275505    1.762027
  C      1.121562   -1.400686    0.461299
  C      0.226213   -1.205390   -0.756555
  C     -0.785800   -0.073806   -0.544841
  H     -1.339422    0.057766   -1.486570
  C      0.015350    1.220127   -0.295329
  H     -0.677896    2.036222   -0.032977
  C      1.010388    1.080002    0.861141
  O      0.723374    1.608082   -1.459734
  C     -1.834445   -0.348502    0.552341
  C     -2.955639    0.692570    0.514138
  C     -2.460961   -1.736015    0.401628
  H      3.711324    0.884283    0.111507
  H      3.660508   -0.821408   -0.336963
  H      2.665862    0.363844   -1.199517
  H      1.803873   -2.234618    0.281141
  H      0.509722   -1.659184    1.327975
  H      0.849204   -0.941179   -1.612827
  H     -0.285448   -2.135879   -1.002262
  H      1.616241    1.987121    0.888045
  H      0.435844    1.033556    1.788128
  H      0.096538    1.689872   -2.186308
  H     -1.352350   -0.294078    1.532261
  H     -3.450752    0.681636   -0.455159
  H     -2.583728    1.696265    0.700088
  H     -3.698118    0.468092    1.276888
  H     -2.853172   -1.869818   -0.604602
  H     -3.284208   -1.847315    1.104312
  H     -1.742858   -2.524984    0.604432

 Total Charge           Charge          ....    0
 Multiplicity           Mult            ....    1
 Number of Electrons    NEL             ....   88
 Basis Dimension        Dim             ....  194

ORBITAL ENERGIES
----------------

  NO   OCC          E(Eh)            E(eV)
   0   2.0000     -18.740847      -509.9644
   1   2.0000      -9.932700      -270.2825
   2   2.0000      -9.896202      -269.2893
   3   2.0000      -9.890894      -269.1449
   4   2.0000      -9.884956      -268.9833
   5   2.0000      -9.876962      -268.7658
   6   2.0000      -9.874780      -268.7064
   7   2.0000      -9.874314      -268.6938
   8   2.0000      -9.874076      -268.6873
   9   2.0000      -9.873168      -268.6626
  10   2.0000      -9.855410      -268.1793
  11   2.0000      -0.920692       -25.0533
  12   2.0000      -0.756070       -20.5737
  13   2.0000      -0.718217       -19.5437
  14   2.0000      -0.664193       -18.0736
  15   2.0000      -0.656379       -17.8610
  16   2.0000      -0.610294       -16.6069
  17   2.0000      -0.597190       -16.2504
  18   2.0000      -0.545642       -14.8477
  19   2.0000      -0.536283       -14.5930
  20   2.0000      -0.505337       -13.7509
  21   2.0000      -0.470270       -12.7967
  22   2.0000      -0.445824       -12.1315
  23   2.0000      -0.435324       -11.8458
  24   2.0000      -0.415241       -11.2993
  25   2.0000      -0.398461       -10.8427
  26   2.0000      -0.381105       -10.3704
  27   2.0000      -0.374811       -10.1991
  28   2.0000      -0.363245        -9.8844
  29   2.0000      -0.352968        -9.6047
  30   2.0000      -0.346151        -9.4193
  31   2.0000      -0.338070        -9.1993
  32   2.0000      -0.335891        -9.1401
  33   2.0000      -0.325143        -8.8476
  34   2.0000      -0.315334        -8.5807
  35   2.0000      -0.307949        -8.3797
  36   2.0000      -0.300966        -8.1897
  37   2.0000      -0.292060        -7.9473
  38   2.0000      -0.282210        -7.6793
  39   2.0000      -0.275302        -7.4914
  40   2.0000      -0.258871        -7.0442
  41   2.0000      -0.257723        -7.0130
  42   2.0000      -0.244407        -6.6507
  43   2.0000      -0.207530        -5.6472
  44   0.0000       0.019832         0.5396
  45   0.0000       0.035813         0.9745
  46   0.0000       0.052212         1.4208
  47   0.0000       0.058122         1.5816
  48   0.0000       0.073538         2.0011

MULLIKEN ATOMIC CHARGES
-----------------------
   0 C :   -0.260197
   1 C :   -0.157145
   2 H :    0.060736
   3 C :   -0.129147
   4 C :   -0.095583
   5 C :   -0.138364
   6 H :    0.037590
   7 C :    0.064772
   8 H :    0.055306
   9 C :   -0.106069
  10 O :   -0.413728
  11 C :   -0.184936
  12 C :   -0.248197
  13 C :   -0.241258
  14 H :    0.090058
  15 H :    0.086269
  16 H :    0.128759
  17 H :    0.077476
  18 H :    0.077378
  19 H :    0.073823
  20 H :    0.080646
  21 H :    0.083550
  22 H :    0.084569
  23 H :    0.294293
  24 H :    0.081476
  25 H :    0.089560
  26 H :    0.108021
  27 H :    0.098331
  28 H :    0.093332
  29 H :    0.095850
  30 H :    0.112830
Sum of atomic charges:    0.0000000

LOEWDIN ATOMIC CHARGES
----------------------
   0 C :   -0.340103
   1 C :   -0.147472
   2 H :    0.112677
   3 C :   -0.216722
   4 C :   -0.221837
   5 C :   -0.146554
   6 H :    0.105023
   7 C :   -0.044556
   8 H :    0.095318
   9 C :   -0.216683
  10 O :   -0.318766
  11 C :   -0.152400
  12 C :   -0.329524
  13 C :   -0.328042
  14 H :    0.116582
  15 H :    0.111543
  16 H :    0.123398
  17 H :    0.115210
  18 H :    0.111363
  19 H :    0.117772
  20 H :    0.114449
  21 H :    0.122921
  22 H :    0.119309
  23 H :    0.281009
  24 H :    0.114481
  25 H :    0.115575
  26 H :    0.114541
  27 H :    0.118254
  28 H :    0.117314
  29 H :    0.117529
  30 H :    0.118392

  Mayer bond orders larger than 0.100000
B(  0-C ,  1-C ) :   1.1131 B(  0-C , 14-H ) :   0.9468 B(  0-C , 15-H ) :   0.9466
B(  0-C , 16-H ) :   0.9291 B(  1-C ,  2-H ) :   0.8985 B(  1-C ,  3-C ) :   1.0957
B(  1-C ,  9-C ) :   1.0834 B(  3-C ,  4-C ) :   1.1346 B(  3-C , 17-H ) :   0.9139
B(  3-C , 18-H ) :   0.9054 B(  4-C ,  5-C ) :   1.0731 B(  4-C , 19-H ) :   0.8983
B(  4-C , 20-H ) :   0.9025 B(  5-C ,  6-H ) :   0.8734 B(  5-C ,  7-C ) :   1.0283
B(  5-C , 11-C ) :   1.0201 B(  7-C ,  8-H ) :   0.8997 B(  7-C ,  9-C ) :   1.0867
B(  7-C , 10-O ) :   1.0294 B(  9-C , 21-H ) :   0.9035 B(  9-C , 22-H ) :   0.9051
B( 10-O , 23-H ) :   0.8485 B( 11-C , 12-C ) :   1.1112 B( 11-C , 13-C ) :   1.1201
B( 11-C , 24-H ) :   0.8866 B( 12-C , 25-H ) :   0.9478 B( 12-C , 26-H ) :   0.9401
B( 12-C , 27-H ) :   0.9467 B( 13-C , 28-H ) :   0.9470 B( 13-C , 29-H ) :   0.9468
B( 13-C , 30-H ) :   0.9360

Dispersion correction           -0.033272464
FINAL SINGLE POINT ENERGY      -467.192921310074

DIPOLE MOMENT
-------------

Method             : SCF
Type of density    : Electron Density
Multiplicity       :   1
Irrep              :   0
Energy             :  -467.3048717916733494 Eh
Relativity type    :
Basis              : AO
                                X                 Y                 Z
Electronic contribution:      2.711782769       3.401386814      -2.312616882
Nuclear contribution   :     -3.296266253      -3.452331882       2.285867741
                        -----------------------------------------
Total Dipole Moment    :     -0.584483484      -0.050945069      -0.026749141
                        -----------------------------------------
Magnitude (a.u.)       :      0.587308998
Magnitude (Debye)      :      1.492820837

Rotational constants in cm-1:             0.057657             0.026922             0.022765
Rotational constants in MHz :          1728.526437           807.112030           682.473755

                             ****ORCA TERMINATED NORMALLY****
TOTAL RUN TIME: 0 days 0 hours 0 minutes 17 seconds 106 msec
