                         Program Version 6.0.1  -  RELEASE   -
|  1> ! pbe def2-sv(p) def2/J RI DEFGRID1 loosescf d4 GCP(DFT/SV(P)) printgap
|  2> %output
|  3>     printlevel normal
|  4> end
|  5> * xyz 0 1
|  6> C -1.6450393309 -1.3776215537 -0.5817430649
|  7> C -1.1242143605 -0.5055034181 0.5701739022
|  8> H -1.8953349933 -0.5011557953 1.3495307178
|  9> C -0.8733136218 0.9514712062 0.1205103551
| 10> H -1.216048659 1.0836786793 -0.9104694045
| 11> C 0.6260832844 1.2727839699 0.1997862014
| 12> H 0.9091776267 1.3912709023 1.2611903207
| 13> C 1.4565934884 0.1287743273 -0.386105833
| 14> H 1.1587306832 -0.0376927755 -1.4322981709
| 15> C 1.1824687648 -1.1506960183 0.4188112974
| 16> H 1.9944818983 -1.2722903762 1.151216814
| 17> O 0.0155460677 -1.0676863826 1.2012190689
| 18> O 1.1434662203 -2.2258807251 -0.467592235
| 19> O 2.8258160061 0.4127394503 -0.3085968556
| 20> O 0.9348857826 2.4500057879 -0.5084197523
| 21> O -1.6037191026 1.8976282315 0.8632050002
| 22> O -2.8985968139 -0.8670859743 -0.9692088445
| 23> H -1.7341411929 -2.410955921 -0.2185433395
| 24> H -0.9340420357 -1.3612884121 -1.4168402121
| 25> H 1.0895900508 -3.0479833501 0.0338984143
| 26> H 2.9471366679 1.3047826496 -0.6609396399
| 27> H 0.2354302105 3.0903308241 -0.3270647639
| 28> H -1.4423883213 1.7528231253 1.8034848446
| 29> H -3.2406871623 -1.3985835675 -1.6955386388
| 30> *
| 31>
| 32>                          ****END OF INPUT****

CARTESIAN COORDINATES (ANGSTROEM)
---------------------------------
  C     -1.645039   -1.377622   -0.581743
  C     -1.124214   -0.505503    0.570174
  H     -1.895335   -0.501156    1.349531
  C     -0.873314    0.951471    0.120510
  H     -1.216049    1.083679   -0.910469
  C      0.626083    1.272784    0.199786
  H      0.909178    1.391271    1.261190
  C      1.456593    0.128774   -0.386106
  H      1.158731   -0.037693   -1.432298
  C      1.182469   -1.150696    0.418811
  H      1.994482   -1.272290    1.151217
  O      0.015546   -1.067686    1.201219
  O      1.143466   -2.225881   -0.467592
  O      2.825816    0.412739   -0.308597
  O      0.934886    2.450006   -0.508420
  O     -1.603719    1.897628    0.863205
  O     -2.898597   -0.867086   -0.969209
  H     -1.734141   -2.410956   -0.218543
  H     -0.934042   -1.361288   -1.416840
  H      1.089590   -3.047983    0.033898
  H      2.947137    1.304783   -0.660940
  H      0.235430    3.090331   -0.327065
  H     -1.442388    1.752823    1.803485
  H     -3.240687   -1.398584   -1.695539

 Total Charge           Charge          ....    0
 Multiplicity           Mult            ....    1
 Number of Electrons    NEL             ....   96
 Basis Dimension        Dim             ....  192

ORBITAL ENERGIES
----------------

  NO   OCC          E(Eh)            E(eV)
   0   2.0000     -18.771569      -510.8004
   1   2.0000     -18.762812      -510.5621
   2   2.0000     -18.756855      -510.4000
   3   2.0000     -18.755153      -510.3537
   4   2.0000     -18.752999      -510.2950
   5   2.0000     -18.744401      -510.0611
   6   2.0000      -9.985009      -271.7059
   7   2.0000      -9.945849      -270.6403
   8   2.0000      -9.940880      -270.5051
   9   2.0000      -9.939408      -270.4650
  10   2.0000      -9.938928      -270.4520
  11   2.0000      -9.932549      -270.2784
  12   2.0000      -0.983019       -26.7493
  13   2.0000      -0.947848       -25.7922
  14   2.0000      -0.933740       -25.4084
  15   2.0000      -0.927887       -25.2491
  16   2.0000      -0.914932       -24.8966
  17   2.0000      -0.914039       -24.8723
  18   2.0000      -0.702482       -19.1155
  19   2.0000      -0.692334       -18.8394
  20   2.0000      -0.622103       -16.9283
  21   2.0000      -0.584870       -15.9151
  22   2.0000      -0.566914       -15.4265
  23   2.0000      -0.510913       -13.9026
  24   2.0000      -0.507444       -13.8082
  25   2.0000      -0.490260       -13.3407
  26   2.0000      -0.485036       -13.1985
  27   2.0000      -0.458255       -12.4698
  28   2.0000      -0.434900       -11.8342
  29   2.0000      -0.426795       -11.6137
  30   2.0000      -0.413796       -11.2600
  31   2.0000      -0.406293       -11.0558
  32   2.0000      -0.386165       -10.5081
  33   2.0000      -0.378865       -10.3094
  34   2.0000      -0.363920        -9.9028
  35   2.0000      -0.343652        -9.3513
  36   2.0000      -0.331008        -9.0072
  37   2.0000      -0.314566        -8.5598
  38   2.0000      -0.303228        -8.2513
  39   2.0000      -0.297209        -8.0875
  40   2.0000      -0.289864        -7.8876
  41   2.0000      -0.259093        -7.0503
  42   2.0000      -0.253278        -6.8921
  43   2.0000      -0.245574        -6.6824
  44   2.0000      -0.233924        -6.3654
  45   2.0000      -0.221027        -6.0144
  46   2.0000      -0.214544        -5.8380
  47   2.0000      -0.205656        -5.5962
  48   0.0000       0.018123         0.4932
  49   0.0000       0.025999         0.7075
  50   0.0000       0.027133         0.7383
  51   0.0000       0.042172         1.1476
  52   0.0000       0.057729         1.5709

MULLIKEN ATOMIC CHARGES
-----------------------
   0 C :   -0.005315
   1 C :    0.035610
   2 H :    0.070594
   3 C :    0.041174
   4 H :    0.078196
   5 C :    0.060204
   6 H :    0.042201
   7 C :    0.021070
   8 H :    0.068532
   9 C :    0.207683
  10 H :    0.073493
  11 O :   -0.307056
  12 O :   -0.386277
  13 O :   -0.413250
  14 O :   -0.427430
  15 O :   -0.417537
  16 O :   -0.428164
  17 H :    0.066328
  18 H :    0.097965
  19 H :    0.300887
  20 H :    0.309370
  21 H :    0.307325
  22 H :    0.299688
  23 H :    0.304709
Sum of atomic charges:   -0.0000000

LOEWDIN ATOMIC CHARGES
----------------------
   0 C :   -0.144739
   1 C :   -0.064028
   2 H :    0.118835
   3 C :   -0.080327
   4 H :    0.121273
   5 C :   -0.082825
   6 H :    0.099086
   7 C :   -0.076925
   8 H :    0.107732
   9 C :    0.002822
  10 H :    0.106678
  11 O :   -0.145202
  12 O :   -0.300123
  13 O :   -0.314504
  14 O :   -0.327714
  15 O :   -0.311099
  16 O :   -0.339299
  17 H :    0.095383
  18 H :    0.100974
  19 H :    0.285140
  20 H :    0.287624
  21 H :    0.288220
  22 H :    0.283602
  23 H :    0.289416

  Mayer bond orders larger than 0.100000
B(  0-C ,  1-C ) :   1.0566 B(  0-C , 16-O ) :   1.0722 B(  0-C , 17-H ) :   0.9073
B(  0-C , 18-H ) :   0.9046 B(  1-C ,  2-H ) :   0.8858 B(  1-C ,  3-C ) :   0.9810
B(  1-C , 11-O ) :   1.0409 B(  3-C ,  4-H ) :   0.8719 B(  3-C ,  5-C ) :   1.0160
B(  3-C , 15-O ) :   1.0125 B(  5-C ,  6-H ) :   0.8589 B(  5-C ,  7-C ) :   1.0182
B(  5-C , 14-O ) :   1.0752 B(  7-C ,  8-H ) :   0.8776 B(  7-C ,  9-C ) :   0.9918
B(  7-C , 13-O ) :   1.0876 B(  9-C , 10-H ) :   0.8850 B(  9-C , 11-O ) :   1.0508
B(  9-C , 12-O ) :   1.1310 B( 12-O , 19-H ) :   0.8421 B( 13-O , 20-H ) :   0.8362
B( 14-O , 21-H ) :   0.8331 B( 15-O , 22-H ) :   0.8508 B( 16-O , 23-H ) :   0.8508

Dispersion correction           -0.024593449
FINAL SINGLE POINT ENERGY      -685.690317021274

DIPOLE MOMENT
-------------

Method             : SCF
Type of density    : Electron Density
Multiplicity       :   1
Irrep              :   0
Energy             :  -685.8209266310802832 Eh
Relativity type    :
Basis              : AO
                                X                 Y                 Z
Electronic contribution:      1.565497711       0.830960365       1.123693034
Nuclear contribution   :     -1.990331809      -1.311180863      -0.999492427
                        -----------------------------------------
Total Dipole Moment    :     -0.424834098      -0.480220498       0.124200606
                        -----------------------------------------
Magnitude (a.u.)       :      0.653086156
Magnitude (Debye)      :      1.660013086

Rotational constants in cm-1:             0.037011             0.029278             0.019636
Rotational constants in MHz :          1109.552264           877.721939           588.668448

                             ****ORCA TERMINATED NORMALLY****
TOTAL RUN TIME: 0 days 0 hours 0 minutes 8 seconds 110 msec
