                         Program Version 6.0.1  -  RELEASE   -
|  1> ! r2scan-3c def2/J RI DEFGRID2 scfconv6 printgap
|  2> %output
|  3>     printlevel normal
|  4> end
|  5> * xyz 0 1
|  6> C 3.7235027414 -0.1805890189 -0.0510024515
|  7> C 2.2476499545 -0.3276842097 0.3082747857
|  8> H 2.1678401595 -0.5452583555 1.3793289277
|  9> C 1.601234128 -1.472409054 -0.4695245881
| 10> C 0.121366573 -1.5967373531 -0.122555651
| 11> C -0.6435540518 -0.3025968177 -0.4209570097
| 12> H -0.5129856256 -0.0752105055 -1.4878331901
| 13> C -0.0005084011 0.8433983078 0.3803210019
| 14> H -0.0895621253 0.6375746219 1.4510775912
| 15> C 1.4850803688 0.9627973302 0.0187781915
| 16> O -0.649769012 2.0842557366 0.1993461012
| 17> C -2.1576149587 -0.4930578597 -0.1765967086
| 18> C -2.5426686084 -0.4328281133 1.2997396712
| 19> C -2.9954737738 0.516450067 -0.9620634438
| 20> H 4.2630582276 -1.0990155615 0.1689218928
| 21> H 3.8374301752 0.0376710115 -1.1109665678
| 22> H 4.1769867361 0.6288575863 0.5163770344
| 23> H 1.7109251795 -1.2866246285 -1.5409828905
| 24> H 2.1116154203 -2.4105534203 -0.2412082475
| 25> H -0.3181964835 -2.4160922143 -0.6959257627
| 26> H 0.0216369165 -1.8412130104 0.936790682
| 27> H 1.5744707802 1.2048679306 -1.0452942259
| 28> H 1.9151683356 1.7911213267 0.586273449
| 29> H -0.562663209 2.3335361756 -0.7280314688
| 30> H -2.4079386991 -1.4935304316 -0.5526616218
| 31> H -1.9479294421 -1.1238596248 1.8919168911
| 32> H -3.5903091294 -0.7018227447 1.4171737091
| 33> H -2.4050115912 0.5736955087 1.6849851423
| 34> H -4.0524793551 0.2781163896 -0.8634284577
| 35> H -2.7406992401 0.4943917981 -2.0202991917
| 36> H -2.8353360832 1.5204969221 -0.5798600235
| 37> *
| 38>
| 39>                          ****END OF INPUT****

CARTESIAN COORDINATES (ANGSTROEM)
---------------------------------
  C      3.723503   -0.180589   -0.051002
  C      2.247650   -0.327684    0.308275
  H      2.167840   -0.545258    1.379329
  C      1.601234   -1.472409   -0.469525
  C      0.121367   -1.596737   -0.122556
  C     -0.643554   -0.302597   -0.420957
  H     -0.512986   -0.075211   -1.487833
  C     -0.000508    0.843398    0.380321
  H     -0.089562    0.637575    1.451078
  C      1.485080    0.962797    0.018778
  O     -0.649769    2.084256    0.199346
  C     -2.157615   -0.493058   -0.176597
  C     -2.542669   -0.432828    1.299740
  C     -2.995474    0.516450   -0.962063
  H      4.263058   -1.099016    0.168922
  H      3.837430    0.037671   -1.110967
  H      4.176987    0.628858    0.516377
  H      1.710925   -1.286625   -1.540983
  H      2.111615   -2.410553   -0.241208
  H     -0.318196   -2.416092   -0.695926
  H      0.021637   -1.841213    0.936791
  H      1.574471    1.204868   -1.045294
  H      1.915168    1.791121    0.586273
  H     -0.562663    2.333536   -0.728031
  H     -2.407939   -1.493530   -0.552662
  H     -1.947929   -1.123860    1.891917
  H     -3.590309   -0.701823    1.417174
  H     -2.405012    0.573696    1.684985
  H     -4.052479    0.278116   -0.863428
  H     -2.740699    0.494392   -2.020299
  H     -2.835336    1.520497   -0.579860

 Total Charge           Charge          ....    0
 Multiplicity           Mult            ....    1
 Number of Electrons    NEL             ....   88
 Basis Dimension        Dim             ....  314

ORBITAL ENERGIES
----------------

  NO   OCC          E(Eh)            E(eV)
   0   2.0000     -18.944427      -515.5041
   1   2.0000     -10.075360      -274.1645
   2   2.0000     -10.034041      -273.0401
   3   2.0000     -10.029162      -272.9074
   4   2.0000     -10.028803      -272.8976
   5   2.0000     -10.024749      -272.7873
   6   2.0000     -10.023634      -272.7570
   7   2.0000     -10.022365      -272.7224
   8   2.0000     -10.016991      -272.5762
   9   2.0000     -10.009529      -272.3731
  10   2.0000     -10.005963      -272.2761
  11   2.0000      -0.986292       -26.8384
  12   2.0000      -0.806849       -21.9555
  13   2.0000      -0.766541       -20.8586
  14   2.0000      -0.713701       -19.4208
  15   2.0000      -0.697507       -18.9801
  16   2.0000      -0.643835       -17.5197
  17   2.0000      -0.641665       -17.4606
  18   2.0000      -0.583691       -15.8830
  19   2.0000      -0.566696       -15.4206
  20   2.0000      -0.531400       -14.4601
  21   2.0000      -0.523953       -14.2575
  22   2.0000      -0.456773       -12.4294
  23   2.0000      -0.436810       -11.8862
  24   2.0000      -0.434363       -11.8196
  25   2.0000      -0.418852       -11.3975
  26   2.0000      -0.411877       -11.2077
  27   2.0000      -0.385595       -10.4926
  28   2.0000      -0.382908       -10.4194
  29   2.0000      -0.376267       -10.2387
  30   2.0000      -0.366684        -9.9780
  31   2.0000      -0.351255        -9.5581
  32   2.0000      -0.344173        -9.3654
  33   2.0000      -0.338086        -9.1998
  34   2.0000      -0.332076        -9.0362
  35   2.0000      -0.317915        -8.6509
  36   2.0000      -0.314242        -8.5510
  37   2.0000      -0.303868        -8.2687
  38   2.0000      -0.296261        -8.0617
  39   2.0000      -0.291940        -7.9441
  40   2.0000      -0.282860        -7.6970
  41   2.0000      -0.273570        -7.4442
  42   2.0000      -0.263386        -7.1671
  43   2.0000      -0.222000        -6.0409
  44   0.0000       0.056594         1.5400
  45   0.0000       0.081965         2.2304
  46   0.0000       0.088746         2.4149
  47   0.0000       0.094945         2.5836
  48   0.0000       0.115746         3.1496

MULLIKEN ATOMIC CHARGES
-----------------------
   0 C :   -0.500128
   1 C :   -0.034002
   2 H :    0.162067
   3 C :   -0.338710
   4 C :   -0.344735
   5 C :   -0.133478
   6 H :    0.170755
   7 C :   -0.147001
   8 H :    0.171120
   9 C :   -0.345829
  10 O :   -0.394076
  11 C :    0.124052
  12 C :   -0.575426
  13 C :   -0.576795
  14 H :    0.147948
  15 H :    0.149242
  16 H :    0.148658
  17 H :    0.155938
  18 H :    0.147053
  19 H :    0.147776
  20 H :    0.157741
  21 H :    0.148390
  22 H :    0.160690
  23 H :    0.293559
  24 H :    0.146551
  25 H :    0.155501
  26 H :    0.148725
  27 H :    0.176224
  28 H :    0.144650
  29 H :    0.142363
  30 H :    0.191178
Sum of atomic charges:    0.0000000

LOEWDIN ATOMIC CHARGES
----------------------
   0 C :   -0.412241
   1 C :   -0.232720
   2 H :    0.159338
   3 C :   -0.293726
   4 C :   -0.286920
   5 C :   -0.200324
   6 H :    0.165738
   7 C :    0.061257
   8 H :    0.188151
   9 C :   -0.268069
  10 O :   -0.606207
  11 C :   -0.228857
  12 C :   -0.412781
  13 C :   -0.418762
  14 H :    0.153396
  15 H :    0.153696
  16 H :    0.153945
  17 H :    0.158008
  18 H :    0.158343
  19 H :    0.159310
  20 H :    0.160408
  21 H :    0.159938
  22 H :    0.167919
  23 H :    0.266023
  24 H :    0.157469
  25 H :    0.151311
  26 H :    0.154089
  27 H :    0.162922
  28 H :    0.150840
  29 H :    0.149779
  30 H :    0.168727

  Mayer bond orders larger than 0.100000
B(  0-C ,  1-C ) :   0.8840 B(  0-C , 14-H ) :   0.9765 B(  0-C , 15-H ) :   0.9966
B(  0-C , 16-H ) :   0.9771 B(  1-C ,  2-H ) :   0.9551 B(  1-C ,  3-C ) :   0.9103
B(  1-C ,  9-C ) :   0.8901 B(  3-C ,  4-C ) :   0.8762 B(  3-C , 17-H ) :   1.0204
B(  3-C , 18-H ) :   0.9458 B(  4-C ,  5-C ) :   0.9227 B(  4-C , 19-H ) :   0.9460
B(  4-C , 20-H ) :   0.9942 B(  5-C ,  6-H ) :   1.0158 B(  5-C ,  7-C ) :   0.8984
B(  5-C , 11-C ) :   0.8487 B(  7-C ,  8-H ) :   0.9721 B(  7-C ,  9-C ) :   0.9210
B(  7-C , 10-O ) :   0.9629 B(  9-C , 21-H ) :   1.0127 B(  9-C , 22-H ) :   0.9482
B( 10-O , 23-H ) :   0.8902 B( 11-C , 12-C ) :   0.8376 B( 11-C , 13-C ) :   0.8588
B( 11-C , 24-H ) :   0.9909 B( 12-C , 25-H ) :   0.9890 B( 12-C , 26-H ) :   0.9680
B( 12-C , 27-H ) :   0.9729 B( 13-C , 28-H ) :   0.9757 B( 13-C , 29-H ) :   0.9848
B( 13-C , 30-H ) :   0.9852

Dispersion correction           -0.010909704
FINAL SINGLE POINT ENERGY      -468.208039568463

DIPOLE MOMENT
-------------

Method             : SCF
Type of density    : Electron Density
Multiplicity       :   1
Irrep              :   0
Energy             :  -468.2124175109347561 Eh
Relativity type    :
Basis              : AO
                                X                 Y                 Z
Electronic contribution:      0.037032907       2.886834597       0.414099595
Nuclear contribution   :      0.286838742      -3.245943812      -0.779139536
                        -----------------------------------------
Total Dipole Moment    :      0.323871649      -0.359109214      -0.365039941
                        -----------------------------------------
Magnitude (a.u.)       :      0.605893086
Magnitude (Debye)      :      1.540057835

Rotational constants in cm-1:             0.065735             0.022764             0.019554
Rotational constants in MHz :          1970.678580           682.440862           586.222200

                             ****ORCA TERMINATED NORMALLY****
TOTAL RUN TIME: 0 days 0 hours 0 minutes 39 seconds 386 msec
