                         Program Version 6.0.1  -  RELEASE   -
|  1> ! pbe def2-sv(p) def2/J RI DEFGRID1 loosescf d4 GCP(DFT/SV(P)) printgap
|  2> %output
|  3>     printlevel normal
|  4> end
|  5> * xyz 0 1
|  6> C -2.2090398374 -1.2194162854 0.0638595843
|  7> C -0.8748426792 -0.5646322206 0.4612533091
|  8> H -0.9635121849 -0.2385127742 1.5095557518
|  9> C -0.5738638614 0.6629066636 -0.4022546498
| 10> H -0.5409689648 0.349080359 -1.4591759761
| 11> C 0.7936589988 1.2820210509 -0.0430278057
| 12> H 0.6550598019 2.0034056658 0.7710013598
| 13> C 1.8010061042 0.2080923174 0.4345757538
| 14> H 2.7936805217 0.4825927253 0.0629267549
| 15> C 1.3904251168 -1.1498683439 -0.1461198576
| 16> H 2.0876564384 -1.9328167478 0.1917141642
| 17> O 0.1461492138 -1.5579277186 0.3534732444
| 18> O 1.4056286314 -1.0464070565 -1.542926702
| 19> O 1.9105110906 0.1323931195 1.8273469524
| 20> O 1.2900319082 2.0164700141 -1.1320178111
| 21> O -1.6139833833 1.5993663546 -0.2236800747
| 22> O -3.3118553291 -0.5001368379 0.5268290039
| 23> H -2.2571736403 -2.2100612945 0.5223715744
| 24> H -2.2392366155 -1.3383367194 -1.0303332092
| 25> H 1.1228117266 -1.8886319569 -1.9194808298
| 26> H 1.1746504979 -0.3850554365 2.1773542836
| 27> H 1.5450707509 1.3912537926 -1.8230945478
| 28> H -1.3364997753 2.4279428757 -0.6333074832
| 29> H -3.1880264035 0.4259655179 0.2731950676
| 30> *
| 31>
| 32>                          ****END OF INPUT****

CARTESIAN COORDINATES (ANGSTROEM)
---------------------------------
  C     -2.209040   -1.219416    0.063860
  C     -0.874843   -0.564632    0.461253
  H     -0.963512   -0.238513    1.509556
  C     -0.573864    0.662907   -0.402255
  H     -0.540969    0.349080   -1.459176
  C      0.793659    1.282021   -0.043028
  H      0.655060    2.003406    0.771001
  C      1.801006    0.208092    0.434576
  H      2.793681    0.482593    0.062927
  C      1.390425   -1.149868   -0.146120
  H      2.087656   -1.932817    0.191714
  O      0.146149   -1.557928    0.353473
  O      1.405629   -1.046407   -1.542927
  O      1.910511    0.132393    1.827347
  O      1.290032    2.016470   -1.132018
  O     -1.613983    1.599366   -0.223680
  O     -3.311855   -0.500137    0.526829
  H     -2.257174   -2.210061    0.522372
  H     -2.239237   -1.338337   -1.030333
  H      1.122812   -1.888632   -1.919481
  H      1.174650   -0.385055    2.177354
  H      1.545071    1.391254   -1.823095
  H     -1.336500    2.427943   -0.633307
  H     -3.188026    0.425966    0.273195

 Total Charge           Charge          ....    0
 Multiplicity           Mult            ....    1
 Number of Electrons    NEL             ....   96
 Basis Dimension        Dim             ....  192

ORBITAL ENERGIES
----------------

  NO   OCC          E(Eh)            E(eV)
   0   2.0000     -18.789957      -511.3007
   1   2.0000     -18.785467      -511.1785
   2   2.0000     -18.773495      -510.8528
   3   2.0000     -18.761814      -510.5349
   4   2.0000     -18.757225      -510.4100
   5   2.0000     -18.734860      -509.8014
   6   2.0000     -10.000839      -272.1367
   7   2.0000      -9.953516      -270.8489
   8   2.0000      -9.951241      -270.7870
   9   2.0000      -9.950820      -270.7756
  10   2.0000      -9.945925      -270.6424
  11   2.0000      -9.930343      -270.2184
  12   2.0000      -1.001111       -27.2416
  13   2.0000      -0.956101       -26.0168
  14   2.0000      -0.943201       -25.6658
  15   2.0000      -0.937184       -25.5021
  16   2.0000      -0.926999       -25.2249
  17   2.0000      -0.914483       -24.8844
  18   2.0000      -0.712467       -19.3872
  19   2.0000      -0.698544       -19.0084
  20   2.0000      -0.621684       -16.9169
  21   2.0000      -0.601067       -16.3559
  22   2.0000      -0.573604       -15.6086
  23   2.0000      -0.539098       -14.6696
  24   2.0000      -0.518471       -14.1083
  25   2.0000      -0.497053       -13.5255
  26   2.0000      -0.472295       -12.8518
  27   2.0000      -0.467388       -12.7183
  28   2.0000      -0.459987       -12.5169
  29   2.0000      -0.437632       -11.9086
  30   2.0000      -0.425849       -11.5880
  31   2.0000      -0.404207       -10.9990
  32   2.0000      -0.385817       -10.4986
  33   2.0000      -0.379720       -10.3327
  34   2.0000      -0.370063       -10.0699
  35   2.0000      -0.362319        -9.8592
  36   2.0000      -0.355960        -9.6862
  37   2.0000      -0.325180        -8.8486
  38   2.0000      -0.321074        -8.7369
  39   2.0000      -0.300618        -8.1802
  40   2.0000      -0.285584        -7.7711
  41   2.0000      -0.271294        -7.3823
  42   2.0000      -0.268549        -7.3076
  43   2.0000      -0.254209        -6.9174
  44   2.0000      -0.243427        -6.6240
  45   2.0000      -0.238087        -6.4787
  46   2.0000      -0.211817        -5.7638
  47   2.0000      -0.208130        -5.6635
  48   0.0000       0.004805         0.1308
  49   0.0000       0.014967         0.4073
  50   0.0000       0.030507         0.8301
  51   0.0000       0.050247         1.3673
  52   0.0000       0.058419         1.5897

MULLIKEN ATOMIC CHARGES
-----------------------
   0 C :    0.103066
   1 C :   -0.047330
   2 H :    0.065518
   3 C :    0.098195
   4 H :    0.046755
   5 C :    0.063678
   6 H :    0.073406
   7 C :    0.033319
   8 H :    0.084989
   9 C :    0.129029
  10 H :    0.079650
  11 O :   -0.309873
  12 O :   -0.398956
  13 O :   -0.409135
  14 O :   -0.428984
  15 O :   -0.429251
  16 O :   -0.440998
  17 H :    0.089119
  18 H :    0.053528
  19 H :    0.310001
  20 H :    0.309223
  21 H :    0.305734
  22 H :    0.317235
  23 H :    0.302083
Sum of atomic charges:    0.0000000

LOEWDIN ATOMIC CHARGES
----------------------
   0 C :   -0.121051
   1 C :   -0.074422
   2 H :    0.104157
   3 C :   -0.083623
   4 H :    0.102742
   5 C :   -0.081300
   6 H :    0.121772
   7 C :   -0.084867
   8 H :    0.124346
   9 C :   -0.013469
  10 H :    0.103436
  11 O :   -0.143185
  12 O :   -0.315722
  13 O :   -0.301863
  14 O :   -0.315103
  15 O :   -0.315804
  16 O :   -0.337548
  17 H :    0.114455
  18 H :    0.091910
  19 H :    0.290446
  20 H :    0.284657
  21 H :    0.282169
  22 H :    0.294908
  23 H :    0.272959

  Mayer bond orders larger than 0.100000
B(  0-C ,  1-C ) :   1.0344 B(  0-C , 16-O ) :   1.0985 B(  0-C , 17-H ) :   0.9209
B(  0-C , 18-H ) :   0.9018 B(  1-C ,  2-H ) :   0.8763 B(  1-C ,  3-C ) :   1.0472
B(  1-C , 11-O ) :   0.9515 B(  3-C ,  4-H ) :   0.8374 B(  3-C ,  5-C ) :   1.0359
B(  3-C , 15-O ) :   1.0209 B(  5-C ,  6-H ) :   0.8616 B(  5-C ,  7-C ) :   0.9674
B(  5-C , 14-O ) :   1.0216 B(  7-C ,  8-H ) :   0.8825 B(  7-C ,  9-C ) :   1.0499
B(  7-C , 13-O ) :   1.0603 B(  9-C , 10-H ) :   0.8981 B(  9-C , 11-O ) :   1.0616
B(  9-C , 12-O ) :   1.1021 B( 12-O , 19-H ) :   0.8367 B( 13-O , 20-H ) :   0.8384
B( 14-O , 21-H ) :   0.8406 B( 15-O , 22-H ) :   0.8336 B( 16-O , 23-H ) :   0.8194

Dispersion correction           -0.025036356
FINAL SINGLE POINT ENERGY      -685.694608220651

DIPOLE MOMENT
-------------

Method             : SCF
Type of density    : Electron Density
Multiplicity       :   1
Irrep              :   0
Energy             :  -685.8278564879046826 Eh
Relativity type    :
Basis              : AO
                                X                 Y                 Z
Electronic contribution:      1.540988414       0.486018575       0.402654888
Nuclear contribution   :     -1.078171217      -0.847175607      -1.276182258
                        -----------------------------------------
Total Dipole Moment    :      0.462817197      -0.361157033      -0.873527370
                        -----------------------------------------
Magnitude (a.u.)       :      1.052465784
Magnitude (Debye)      :      2.675155425

Rotational constants in cm-1:             0.042699             0.025529             0.021563
Rotational constants in MHz :          1280.073411           765.342017           646.437946

                             ****ORCA TERMINATED NORMALLY****
TOTAL RUN TIME: 0 days 0 hours 0 minutes 8 seconds 11 msec
