                         Program Version 6.0.1  -  RELEASE   -
|  1> ! r2scan-3c def2/J RI DEFGRID2 scfconv6 printgap
|  2> %output
|  3>     printlevel normal
|  4> end
|  5> * xyz 0 1
|  6> C -2.82340444 1.0187614321 3.36919e-05
|  7> O -2.2157971174 -0.2487787251 -2.86012e-05
|  8> C -0.8554783232 -0.3235306197 -1.33684e-05
|  9> C -0.3165697449 -1.6100532521 -2.6992e-06
| 10> C 1.0518765374 -1.7851735699 1.46174e-05
| 11> C 1.9065422276 -0.6977670697 1.41731e-05
| 12> C 1.3732912358 0.5840822256 -1.8862e-06
| 13> C -0.0047162591 0.7746756532 -9.2664e-06
| 14> O 2.2328484481 1.6397246222 -6.3021e-06
| 15> H -2.5585934902 1.5932574898 -0.8940608169
| 16> H -2.5586656996 1.5931239743 0.8942363842
| 17> H -3.896106544 0.8319112175 -2.66631e-05
| 18> H -0.9924728566 -2.4493526656 -8.4634e-06
| 19> H 1.4614513057 -2.7837445209 2.38687e-05
| 20> H 2.9771291613 -0.8183330874 2.48487e-05
| 21> H -0.3918990163 1.7842362418 -1.15277e-05
| 22> H 1.7375549795 2.4675655796 -4.37908e-05
| 23> *
| 24>
| 25>                          ****END OF INPUT****

CARTESIAN COORDINATES (ANGSTROEM)
---------------------------------
  C     -2.823404    1.018761    0.000034
  O     -2.215797   -0.248779   -0.000029
  C     -0.855478   -0.323531   -0.000013
  C     -0.316570   -1.610053   -0.000003
  C      1.051877   -1.785174    0.000015
  C      1.906542   -0.697767    0.000014
  C      1.373291    0.584082   -0.000002
  C     -0.004716    0.774676   -0.000009
  O      2.232848    1.639725   -0.000006
  H     -2.558593    1.593257   -0.894061
  H     -2.558666    1.593124    0.894236
  H     -3.896107    0.831911   -0.000027
  H     -0.992473   -2.449353   -0.000008
  H      1.461451   -2.783745    0.000024
  H      2.977129   -0.818333    0.000025
  H     -0.391899    1.784236   -0.000012
  H      1.737555    2.467566   -0.000044

 Total Charge           Charge          ....    0
 Multiplicity           Mult            ....    1
 Number of Electrons    NEL             ....   66
 Basis Dimension        Dim             ....  221

ORBITAL ENERGIES
----------------

  NO   OCC          E(Eh)            E(eV)
   0   2.0000     -18.988562      -516.7050
   1   2.0000     -18.986000      -516.6353
   2   2.0000     -10.098197      -274.7859
   3   2.0000     -10.097654      -274.7711
   4   2.0000     -10.090017      -274.5633
   5   2.0000     -10.035127      -273.0697
   6   2.0000     -10.034440      -273.0510
   7   2.0000     -10.021425      -272.6968
   8   2.0000     -10.021413      -272.6965
   9   2.0000      -1.038594       -28.2616
  10   2.0000      -1.030849       -28.0508
  11   2.0000      -0.819602       -22.3025
  12   2.0000      -0.726742       -19.7757
  13   2.0000      -0.714525       -19.4432
  14   2.0000      -0.668555       -18.1923
  15   2.0000      -0.592611       -16.1258
  16   2.0000      -0.564904       -15.3718
  17   2.0000      -0.524238       -14.2653
  18   2.0000      -0.492395       -13.3987
  19   2.0000      -0.457585       -12.4515
  20   2.0000      -0.442841       -12.0503
  21   2.0000      -0.441864       -12.0237
  22   2.0000      -0.405986       -11.0474
  23   2.0000      -0.396388       -10.7863
  24   2.0000      -0.382625       -10.4118
  25   2.0000      -0.359316        -9.7775
  26   2.0000      -0.342856        -9.3296
  27   2.0000      -0.334209        -9.0943
  28   2.0000      -0.321455        -8.7472
  29   2.0000      -0.303826        -8.2675
  30   2.0000      -0.280946        -7.6449
  31   2.0000      -0.222044        -6.0421
  32   2.0000      -0.193818        -5.2740
  33   0.0000      -0.023346        -0.6353
  34   0.0000      -0.009922        -0.2700
  35   0.0000       0.051093         1.3903
  36   0.0000       0.066308         1.8043
  37   0.0000       0.084898         2.3102

MULLIKEN ATOMIC CHARGES
-----------------------
   0 C :   -0.339933
   1 O :   -0.181001
   2 C :    0.355888
   3 C :   -0.337042
   4 C :   -0.084824
   5 C :   -0.326513
   6 C :    0.432417
   7 C :   -0.476406
   8 O :   -0.408145
   9 H :    0.151425
  10 H :    0.151433
  11 H :    0.155734
  12 H :    0.157320
  13 H :    0.149452
  14 H :    0.157220
  15 H :    0.135036
  16 H :    0.307938
Sum of atomic charges:   -0.0000000

LOEWDIN ATOMIC CHARGES
----------------------
   0 C :   -0.057256
   1 O :   -0.679143
   2 C :    0.198977
   3 C :   -0.160626
   4 C :   -0.141683
   5 C :   -0.170391
   6 C :    0.191776
   7 C :   -0.180070
   8 O :   -0.493992
   9 H :    0.163641
  10 H :    0.163643
  11 H :    0.180750
  12 H :    0.180037
  13 H :    0.169559
  14 H :    0.178924
  15 H :    0.175475
  16 H :    0.280379

  Mayer bond orders larger than 0.100000
B(  0-C ,  1-O ) :   0.8643 B(  0-C ,  9-H ) :   0.9636 B(  0-C , 10-H ) :   0.9636
B(  0-C , 11-H ) :   0.9673 B(  1-O ,  2-C ) :   1.0312 B(  2-C ,  3-C ) :   1.4066
B(  2-C ,  7-C ) :   1.3918 B(  3-C ,  4-C ) :   1.3875 B(  3-C , 12-H ) :   0.9437
B(  4-C ,  5-C ) :   1.3762 B(  4-C , 13-H ) :   0.9514 B(  5-C ,  6-C ) :   1.4482
B(  5-C , 14-H ) :   0.9411 B(  6-C ,  7-C ) :   1.3449 B(  6-C ,  8-O ) :   0.9214
B(  7-C , 15-H ) :   0.8804 B(  8-O , 16-H ) :   0.8863

Dispersion correction           -0.005322639
FINAL SINGLE POINT ENERGY      -421.902176068130

DIPOLE MOMENT
-------------

Method             : SCF
Type of density    : Electron Density
Multiplicity       :   1
Irrep              :   0
Energy             :  -421.9050125633461903 Eh
Relativity type    :
Basis              : AO
                                X                 Y                 Z
Electronic contribution:      3.391529566      -1.299694262      -0.000121208
Nuclear contribution   :     -3.960329370       2.102089873       0.000125047
                        -----------------------------------------
Total Dipole Moment    :     -0.568799804       0.802395611       0.000003839
                        -----------------------------------------
Magnitude (a.u.)       :      0.983550676
Magnitude (Debye)      :      2.499987142

Rotational constants in cm-1:             0.096003             0.043330             0.030026
Rotational constants in MHz :          2878.112308          1298.991850           900.171702

                             ****ORCA TERMINATED NORMALLY****
TOTAL RUN TIME: 0 days 0 hours 0 minutes 23 seconds 540 msec
