                         Program Version 6.0.1  -  RELEASE   -
|  1> ! pbe def2-sv(p) def2/J RI DEFGRID1 loosescf d4 GCP(DFT/SV(P)) printgap
|  2> %output
|  3>     printlevel normal
|  4> end
|  5> * xyz 0 1
|  6> C -1.6975143092 -1.1793969713 0.1079312889
|  7> C -0.9287745741 -0.011138282 -0.495225478
|  8> H -0.8784382244 -0.1065046181 -1.5934543676
|  9> C 0.5281953626 -0.0333889921 -0.0057866911
| 10> F 1.1962333943 1.050756871 -0.4471036231
| 11> F 0.6429910728 -0.0366969664 1.3237073974
| 12> F 1.1919663635 -1.104527831 -0.462198746
| 13> O -1.5464469817 1.1850852327 -0.1168893887
| 14> H -1.2258646394 -2.1198754859 -0.1618407222
| 15> H -2.7163162524 -1.1612406549 -0.2659066521
| 16> H -1.7211327776 -1.0770461987 1.1896562331
| 17> H -1.0436740028 1.9432335739 -0.4399873339
| 18> *
| 19>
| 20>                          ****END OF INPUT****

CARTESIAN COORDINATES (ANGSTROEM)
---------------------------------
  C     -1.697514   -1.179397    0.107931
  C     -0.928775   -0.011138   -0.495225
  H     -0.878438   -0.106505   -1.593454
  C      0.528195   -0.033389   -0.005787
  F      1.196233    1.050757   -0.447104
  F      0.642991   -0.036697    1.323707
  F      1.191966   -1.104528   -0.462199
  O     -1.546447    1.185085   -0.116889
  H     -1.225865   -2.119875   -0.161841
  H     -2.716316   -1.161241   -0.265907
  H     -1.721133   -1.077046    1.189656
  H     -1.043674    1.943234   -0.439987

 Total Charge           Charge          ....    0
 Multiplicity           Mult            ....    1
 Number of Electrons    NEL             ....   58
 Basis Dimension        Dim             ....  108

ORBITAL ENERGIES
----------------

  NO   OCC          E(Eh)            E(eV)
   0   2.0000     -24.289881      -660.9613
   1   2.0000     -24.289535      -660.9518
   2   2.0000     -24.288466      -660.9228
   3   2.0000     -18.770088      -510.7601
   4   2.0000     -10.119490      -275.3653
   5   2.0000      -9.967946      -271.2416
   6   2.0000      -9.892226      -269.1811
   7   2.0000      -1.194362       -32.5002
   8   2.0000      -1.101500       -29.9733
   9   2.0000      -1.100978       -29.9591
  10   2.0000      -0.950163       -25.8553
  11   2.0000      -0.713819       -19.4240
  12   2.0000      -0.630396       -17.1540
  13   2.0000      -0.570678       -15.5289
  14   2.0000      -0.531005       -14.4494
  15   2.0000      -0.528048       -14.3689
  16   2.0000      -0.519353       -14.1323
  17   2.0000      -0.465500       -12.6669
  18   2.0000      -0.403722       -10.9858
  19   2.0000      -0.401203       -10.9173
  20   2.0000      -0.389526       -10.5995
  21   2.0000      -0.374561       -10.1923
  22   2.0000      -0.365520        -9.9463
  23   2.0000      -0.355199        -9.6655
  24   2.0000      -0.352028        -9.5792
  25   2.0000      -0.339758        -9.2453
  26   2.0000      -0.333297        -9.0695
  27   2.0000      -0.296348        -8.0641
  28   2.0000      -0.242486        -6.5984
  29   0.0000       0.023770         0.6468
  30   0.0000       0.054819         1.4917
  31   0.0000       0.081994         2.2312
  32   0.0000       0.096473         2.6252
  33   0.0000       0.102673         2.7939

MULLIKEN ATOMIC CHARGES
-----------------------
   0 C :   -0.257733
   1 C :   -0.029706
   2 H :    0.085711
   3 C :    0.370512
   4 F :   -0.150941
   5 F :   -0.130765
   6 F :   -0.138128
   7 O :   -0.412803
   8 H :    0.115852
   9 H :    0.123204
  10 H :    0.119447
  11 H :    0.305350
Sum of atomic charges:    0.0000000

LOEWDIN ATOMIC CHARGES
----------------------
   0 C :   -0.340090
   1 C :   -0.096952
   2 H :    0.112800
   3 C :    0.088461
   4 F :   -0.056419
   5 F :   -0.035073
   6 F :   -0.044981
   7 O :   -0.311123
   8 H :    0.130863
   9 H :    0.133507
  10 H :    0.131238
  11 H :    0.287771

  Mayer bond orders larger than 0.100000
B(  0-C ,  1-C ) :   1.0996 B(  0-C ,  8-H ) :   0.9419 B(  0-C ,  9-H ) :   0.9416
B(  0-C , 10-H ) :   0.9401 B(  1-C ,  2-H ) :   0.8844 B(  1-C ,  3-C ) :   0.9606
B(  1-C ,  7-O ) :   1.0616 B(  3-C ,  4-F ) :   1.1474 B(  3-C ,  5-F ) :   1.1698
B(  3-C ,  6-F ) :   1.1535 B(  7-O , 11-H ) :   0.8399

Dispersion correction           -0.008174071
FINAL SINGLE POINT ENERGY      -491.116195551707

DIPOLE MOMENT
-------------

Method             : SCF
Type of density    : Electron Density
Multiplicity       :   1
Irrep              :   0
Energy             :  -491.1881769714839834 Eh
Relativity type    :
Basis              : AO
                                X                 Y                 Z
Electronic contribution:      9.691207406       2.297115448       1.113707787
Nuclear contribution   :     -9.947816403      -2.264189517      -1.578606937
                        -----------------------------------------
Total Dipole Moment    :     -0.256608997       0.032925931      -0.464899151
                        -----------------------------------------
Magnitude (a.u.)       :      0.532037137
Magnitude (Debye)      :      1.352330930

Rotational constants in cm-1:             0.117973             0.080040             0.065518
Rotational constants in MHz :          3536.734505          2399.540797          1964.178612

                             ****ORCA TERMINATED NORMALLY****
TOTAL RUN TIME: 0 days 0 hours 0 minutes 7 seconds 351 msec
