                         Program Version 6.0.0  -   RELEASE  -
|  1> ! r2SCAN-3c DEF2-TZVP FREQ
|  2> * xyzfile 0 1 censo.xyz
|  3>
|  4>                          ****END OF INPUT****

CARTESIAN COORDINATES (ANGSTROEM)
---------------------------------
  C     -0.643742   -0.988231   -0.383939
  C      0.643506   -0.988026    0.384246
  Cl     1.718644    0.421357   -0.065235
  Cl    -1.718857    0.421440    0.064702
  H     -1.200047   -1.895386   -0.133190
  H     -0.487831   -0.936081   -1.462069
  H      0.487593   -0.935217    1.462343
  H      1.199790   -1.895344    0.134043

 Total Charge           Charge          ....    0
 Multiplicity           Mult            ....    1
 Number of Electrons    NEL             ....   50
 Basis Dimension        Dim             ....  160

ORBITAL ENERGIES
----------------

  NO   OCC          E(Eh)            E(eV)
   0   2.0000    -101.183111     -2753.3324
   1   2.0000    -101.183107     -2753.3323
   2   2.0000     -10.115727      -275.2629
   3   2.0000     -10.115567      -275.2586
   4   2.0000      -9.358835      -254.6669
   5   2.0000      -9.358832      -254.6668
   6   2.0000      -7.103866      -193.3060
   7   2.0000      -7.103865      -193.3060
   8   2.0000      -7.093591      -193.0264
   9   2.0000      -7.093591      -193.0264
  10   2.0000      -7.093512      -193.0243
  11   2.0000      -7.093512      -193.0243
  12   2.0000      -0.845114       -22.9967
  13   2.0000      -0.794911       -21.6306
  14   2.0000      -0.704418       -19.1682
  15   2.0000      -0.594842       -16.1865
  16   2.0000      -0.466504       -12.6942
  17   2.0000      -0.455012       -12.3815
  18   2.0000      -0.417469       -11.3599
  19   2.0000      -0.376855       -10.2547
  20   2.0000      -0.369930       -10.0663
  21   2.0000      -0.285288        -7.7631
  22   2.0000      -0.281489        -7.6597
  23   2.0000      -0.275629        -7.5002
  24   2.0000      -0.271860        -7.3977
  25   0.0000      -0.030217        -0.8222
  26   0.0000      -0.004869        -0.1325
  27   0.0000       0.044843         1.2202
  28   0.0000       0.079720         2.1693
  29   0.0000       0.091660         2.4942

MULLIKEN ATOMIC CHARGES
-----------------------
   0 C :   -0.089604
   1 C :   -0.089607
   2 Cl:   -0.168970
   3 Cl:   -0.168968
   4 H :    0.125445
   5 H :    0.133129
   6 H :    0.133128
   7 H :    0.125447
Sum of atomic charges:    0.0000000

LOEWDIN ATOMIC CHARGES
----------------------
   0 C :   -0.493678
   1 C :   -0.493677
   2 Cl:    0.233388
   3 Cl:    0.233387
   4 H :    0.131962
   5 H :    0.128328
   6 H :    0.128328
   7 H :    0.131962

  Mayer bond orders larger than 0.100000
B(  0-C ,  1-C ) :   1.0055 B(  0-C ,  3-Cl) :   1.0373 B(  0-C ,  4-H ) :   0.9466
B(  0-C ,  5-H ) :   0.9566 B(  1-C ,  2-Cl) :   1.0373 B(  1-C ,  6-H ) :   0.9566
B(  1-C ,  7-H ) :   0.9466

Dispersion correction           -0.001868828
FINAL SINGLE POINT ENERGY      -998.961073731393

DIPOLE MOMENT
-------------

Method             : SCF
Type of density    : Electron Density
Multiplicity       :   1
Irrep              :   0
Energy             :  -998.9671200516905856 Eh
Relativity type    :
Basis              : AO
                                X                 Y                 Z
Electronic contribution:      0.000047156       5.292119993      -0.001578576
Nuclear contribution   :     -0.000060950      -6.447891576       0.001924587
                        -----------------------------------------
Total Dipole Moment    :     -0.000013794      -1.155771583       0.000346011
                        -----------------------------------------
Magnitude (a.u.)       :      1.155771635
Magnitude (Debye)      :      2.937738030

VIBRATIONAL FREQUENCIES
-----------------------

Scaling factor for frequencies =  1.000000000  (already applied!)

     0:       0.00 cm**-1
     1:       0.00 cm**-1
     2:       0.00 cm**-1
     3:       0.00 cm**-1
     4:       0.00 cm**-1
     5:       0.00 cm**-1
     6:     130.68 cm**-1
     7:     262.81 cm**-1
     8:     409.72 cm**-1
     9:     611.49 cm**-1
    10:     628.10 cm**-1
    11:     877.20 cm**-1
    12:     947.87 cm**-1
    13:    1049.44 cm**-1
    14:    1151.29 cm**-1
    15:    1217.78 cm**-1
    16:    1298.70 cm**-1
    17:    1328.21 cm**-1
    18:    1455.73 cm**-1
    19:    1460.02 cm**-1
    20:    3053.67 cm**-1
    21:    3062.80 cm**-1
    22:    3125.03 cm**-1
    23:    3140.99 cm**-1

IR SPECTRUM
-----------

 Mode   freq       eps      Int      T**2         TX        TY        TZ
       cm**-1   L/(mol*cm) km/mol    a.u.
----------------------------------------------------------------------------
  6:    130.68   0.000130    0.66  0.000311  (-0.000002  0.017644 -0.000004)
  7:    262.81   0.000217    1.10  0.000258  (-0.000003  0.016059 -0.000004)
  8:    409.72   0.002404   12.15  0.001831  (-0.042756 -0.000005 -0.001695)
  9:    611.49   0.004983   25.18  0.002543  ( 0.000017 -0.050426  0.000012)
 10:    628.10   0.006517   32.93  0.003238  (-0.056317 -0.000009  0.008133)
 11:    877.20   0.003454   17.46  0.001229  ( 0.032678  0.000000 -0.012688)
 12:    947.87   0.002173   10.98  0.000715  (-0.000001  0.026747 -0.000007)
 13:   1049.44   0.000291    1.47  0.000087  (-0.000001 -0.009306  0.000003)
 14:   1151.29   0.000126    0.64  0.000034  (-0.001595  0.000003 -0.005632)
 15:   1217.78   0.000151    0.76  0.000039  (-0.000000 -0.006224  0.000002)
 16:   1298.70   0.008077   40.82  0.001941  (-0.042347  0.000001  0.012147)
 17:   1328.21   0.003532   17.85  0.000830  (-0.000001 -0.028805  0.000009)
 18:   1455.73   0.002384   12.05  0.000511  (-0.013777 -0.000012 -0.017921)
 19:   1460.02   0.000255    1.29  0.000055  (-0.000003  0.007385 -0.000004)
 20:   3053.67   0.000450    2.27  0.000046  (-0.000663 -0.000001  0.006748)
 21:   3062.80   0.004163   21.04  0.000424  (-0.000001 -0.020595  0.000005)
 22:   3125.03   0.000059    0.30  0.000006  (-0.000001 -0.002433  0.000002)
 23:   3140.99   0.000700    3.54  0.000070  ( 0.003603 -0.000002 -0.007520)

--------------------------
THERMOCHEMISTRY AT 298.15K
--------------------------

Temperature         ...   298.15 K
Pressure            ...     1.00 atm
Total Mass          ...    98.96 AMU
Quasi RRHO          ...     True
Cut-Off Frequency   ...     1.00 cm^-1

Throughout the following assumptions are being made:
  (1) The electronic state is orbitally nondegenerate
  (2) There are no thermally accessible electronically excited states
  (3) Hindered rotations indicated by low frequency modes are not
      treated as such but are treated as vibrations and this may
      cause some error
  (4) All equations used are the standard statistical mechanics
      equations for an ideal gas
  (5) All vibrations are strictly harmonic

freq.     130.68  E(vib)   ...       0.43
freq.     262.81  E(vib)   ...       0.29
freq.     409.72  E(vib)   ...       0.19
freq.     611.49  E(vib)   ...       0.10
freq.     628.10  E(vib)   ...       0.09
freq.     877.20  E(vib)   ...       0.04
freq.     947.87  E(vib)   ...       0.03
freq.    1049.44  E(vib)   ...       0.02
freq.    1151.29  E(vib)   ...       0.01
freq.    1217.78  E(vib)   ...       0.01
freq.    1298.70  E(vib)   ...       0.01
freq.    1328.21  E(vib)   ...       0.01
freq.    1455.73  E(vib)   ...       0.00
freq.    1460.02  E(vib)   ...       0.00
freq.    3053.67  E(vib)   ...       0.00
freq.    3062.80  E(vib)   ...       0.00
freq.    3125.03  E(vib)   ...       0.00
freq.    3140.99  E(vib)   ...       0.00

------------
INNER ENERGY
------------

The inner energy is: U= E(el) + E(ZPE) + E(vib) + E(rot) + E(trans)
    E(el)   - is the total energy from the electronic structure calculation
              = E(kin-el) + E(nuc-el) + E(el-el) + E(nuc-nuc)
    E(ZPE)  - the the zero temperature vibrational energy from the frequency calculation
    E(vib)  - the the finite temperature correction to E(ZPE) due to population
              of excited vibrational states
    E(rot)  - is the rotational thermal energy
    E(trans)- is the translational thermal energy

Summary of contributions to the inner energy U:
Electronic energy                ...   -998.96107373 Eh
Zero point energy                ...      0.05743606 Eh      36.04 kcal/mol
Thermal vibrational correction   ...      0.00194850 Eh       1.22 kcal/mol
Thermal rotational correction    ...      0.00141627 Eh       0.89 kcal/mol
Thermal translational correction ...      0.00141627 Eh       0.89 kcal/mol
-----------------------------------------------------------------------
Total thermal energy                   -998.89885663 Eh

Summary of corrections to the electronic energy:
(perhaps to be used in another calculation)
Total thermal correction                  0.00478104 Eh       3.00 kcal/mol
Non-thermal (ZPE) correction              0.05743606 Eh      36.04 kcal/mol
-----------------------------------------------------------------------
Total correction                          0.06221710 Eh      39.04 kcal/mol

--------
ENTHALPY
--------

The enthalpy is H = U + kB*T
                kB is Boltzmann's constant
Total thermal energy              ...   -998.89885663 Eh
Thermal Enthalpy correction       ...      0.00094421 Eh       0.59 kcal/mol
-----------------------------------------------------------------------
Total Enthalpy                    ...   -998.89791242 Eh

Note: Rotational entropy computed according to Herzberg
Infrared and Raman Spectra, Chapter V,1, Van Nostrand Reinhold, 1945
Point Group:  C2, Symmetry Number:   2
Rotational constants in cm-1:     0.316630     0.072981     0.062937

Vibrational entropy computed according to the QRRHO of S. Grimme
Chem.Eur.J. 2012 18 9955 using a reference frequency of 100.0 cm-1

-------
ENTROPY
-------

The entropy contributions are T*S = T*(S(el)+S(vib)+S(rot)+S(trans))
     S(el)   - electronic entropy
     S(vib)  - vibrational entropy
     S(rot)  - rotational entropy
     S(trans)- translational entropy
The entropies will be listed as multiplied by the temperature to get
units of energy

Electronic entropy                ...      0.00000000 Eh      0.00 kcal/mol
Vibrational entropy               ...      0.00321860 Eh      2.02 kcal/mol
Rotational entropy                ...      0.01194061 Eh      7.49 kcal/mol
Translational entropy             ...      0.01885644 Eh     11.83 kcal/mol
-----------------------------------------------------------------------
Final entropy term                ...      0.03401564 Eh     21.35 kcal/mol

In case the symmetry of your molecule has not been determined correctly
or in case you have a reason to use a different symmetry number we print
out the resulting rotational entropy values for sn=1,12:

 non-linear molecules -----------------------------------
|  sn= 1 | S(rot)=       0.01259507 Eh      7.90 kcal/mol|
|  sn= 2 | S(rot)=       0.01194061 Eh      7.49 kcal/mol|
|  sn= 3 | S(rot)=       0.01155778 Eh      7.25 kcal/mol|
|  sn= 4 | S(rot)=       0.01128616 Eh      7.08 kcal/mol|
|  sn= 5 | S(rot)=       0.01107547 Eh      6.95 kcal/mol|
|  sn= 6 | S(rot)=       0.01090332 Eh      6.84 kcal/mol|
|  sn= 7 | S(rot)=       0.01075778 Eh      6.75 kcal/mol|
|  sn= 8 | S(rot)=       0.01063170 Eh      6.67 kcal/mol|
|  sn= 9 | S(rot)=       0.01052049 Eh      6.60 kcal/mol|
|  sn=10 | S(rot)=       0.01042101 Eh      6.54 kcal/mol|
|  sn=11 | S(rot)=       0.01033102 Eh      6.48 kcal/mol|
|  sn=12 | S(rot)=       0.01024887 Eh      6.43 kcal/mol|
 linear molecules ---------------------------------------
|  Dinfh | S(rot)=       0.00793705 Eh      4.98 kcal/mol|
|  Cinfv | S(rot)=       0.00859151 Eh      5.39 kcal/mol|
 --------------------------------------------------------

-------------------
GIBBS FREE ENERGY
-------------------

The Gibbs free energy is G = H - T*S

Total enthalpy                    ...   -998.89791242 Eh
Total entropy correction          ...     -0.03401564 Eh    -21.35 kcal/mol
-----------------------------------------------------------------------
Final Gibbs free energy         ...   -998.93192806 Eh

For completeness - the Gibbs free energy minus the electronic energy
G-E(el)                           ...      0.02914567 Eh     18.29 kcal/mol

                             ****ORCA TERMINATED NORMALLY****
TOTAL RUN TIME: 0 days 0 hours 2 minutes 6 seconds 282 msec
