                         Program Version 6.0.0  -   RELEASE  -
|  1> ! r2SCAN-3c DEF2-TZVP FREQ
|  2> * xyzfile 0 1 vacuum_censo.xyz
|  3>
|  4>                          ****END OF INPUT****

CARTESIAN COORDINATES (ANGSTROEM)
---------------------------------
  C     -0.478054    0.584879   -0.000184
  C      0.478106   -0.584956   -0.000126
  Cl     2.178177    0.068885   -0.000122
  Cl    -2.178122   -0.068966   -0.000101
  H     -0.364727    1.199598   -0.894315
  H     -0.364684    1.199717    0.893859
  H      0.364742   -1.199704    0.893981
  H      0.364772   -1.199766   -0.894192

 Total Charge           Charge          ....    0
 Multiplicity           Mult            ....    1
 Number of Electrons    NEL             ....   50
 Basis Dimension        Dim             ....  160

ORBITAL ENERGIES
----------------

  NO   OCC          E(Eh)            E(eV)
   0   2.0000    -101.190387     -2753.5304
   1   2.0000    -101.190383     -2753.5303
   2   2.0000     -10.114552      -275.2310
   3   2.0000     -10.114410      -275.2271
   4   2.0000      -9.366216      -254.8677
   5   2.0000      -9.366211      -254.8676
   6   2.0000      -7.111131      -193.5037
   7   2.0000      -7.111129      -193.5037
   8   2.0000      -7.101032      -193.2289
   9   2.0000      -7.101032      -193.2289
  10   2.0000      -7.100928      -193.2261
  11   2.0000      -7.100928      -193.2261
  12   2.0000      -0.849287       -23.1103
  13   2.0000      -0.806136       -21.9361
  14   2.0000      -0.694994       -18.9118
  15   2.0000      -0.601812       -16.3761
  16   2.0000      -0.477694       -12.9987
  17   2.0000      -0.434597       -11.8260
  18   2.0000      -0.419973       -11.4280
  19   2.0000      -0.386101       -10.5064
  20   2.0000      -0.371398       -10.1063
  21   2.0000      -0.294558        -8.0153
  22   2.0000      -0.284813        -7.7501
  23   2.0000      -0.281314        -7.6549
  24   2.0000      -0.280492        -7.6326
  25   0.0000      -0.036011        -0.9799
  26   0.0000       0.000323         0.0088
  27   0.0000       0.055786         1.5180
  28   0.0000       0.076993         2.0951
  29   0.0000       0.082022         2.2319

MULLIKEN ATOMIC CHARGES
-----------------------
   0 C :   -0.092026
   1 C :   -0.092026
   2 Cl:   -0.172586
   3 Cl:   -0.172585
   4 H :    0.132305
   5 H :    0.132306
   6 H :    0.132306
   7 H :    0.132305
Sum of atomic charges:   -0.0000000

LOEWDIN ATOMIC CHARGES
----------------------
   0 C :   -0.497371
   1 C :   -0.497370
   2 Cl:    0.245295
   3 Cl:    0.245297
   4 H :    0.126038
   5 H :    0.126037
   6 H :    0.126038
   7 H :    0.126037

  Mayer bond orders larger than 0.100000
B(  0-C ,  1-C ) :   1.0016 B(  0-C ,  3-Cl) :   1.0153 B(  0-C ,  4-H ) :   0.9568
B(  0-C ,  5-H ) :   0.9568 B(  1-C ,  2-Cl) :   1.0153 B(  1-C ,  6-H ) :   0.9568
B(  1-C ,  7-H ) :   0.9568

Dispersion correction           -0.001821686
FINAL SINGLE POINT ENERGY      -998.963806544897

DIPOLE MOMENT
-------------

Method             : SCF
Type of density    : Electron Density
Multiplicity       :   1
Irrep              :   0
Energy             :  -998.9700258742494725 Eh
Relativity type    :
Basis              : AO
                                X                 Y                 Z
Electronic contribution:      0.000002139      -0.000004557       0.000160994
Nuclear contribution   :     -0.000006023       0.000005486      -0.000195332
                        -----------------------------------------
Total Dipole Moment    :     -0.000003884       0.000000929      -0.000034338
                        -----------------------------------------
Magnitude (a.u.)       :      0.000034570
Magnitude (Debye)      :      0.000087870

VIBRATIONAL FREQUENCIES
-----------------------

Scaling factor for frequencies =  1.000000000  (already applied!)

     0:       0.00 cm**-1
     1:       0.00 cm**-1
     2:       0.00 cm**-1
     3:       0.00 cm**-1
     4:       0.00 cm**-1
     5:       0.00 cm**-1
     6:     135.44 cm**-1
     7:     223.66 cm**-1
     8:     294.34 cm**-1
     9:     673.06 cm**-1
    10:     716.35 cm**-1
    11:     786.42 cm**-1
    12:    1008.79 cm**-1
    13:    1061.31 cm**-1
    14:    1136.33 cm**-1
    15:    1248.95 cm**-1
    16:    1292.40 cm**-1
    17:    1321.46 cm**-1
    18:    1482.39 cm**-1
    19:    1483.88 cm**-1
    20:    3069.15 cm**-1
    21:    3078.44 cm**-1
    22:    3131.85 cm**-1
    23:    3157.40 cm**-1

IR SPECTRUM
-----------

 Mode   freq       eps      Int      T**2         TX        TY        TZ
       cm**-1   L/(mol*cm) km/mol    a.u.
----------------------------------------------------------------------------
  6:    135.44   0.001390    7.03  0.003203  (-0.000000  0.000002  0.056595)
  7:    223.66   0.002034   10.28  0.002838  (-0.032909  0.041891 -0.000002)
  8:    294.34   0.000000    0.00  0.000000  (-0.000000 -0.000000 -0.000001)
  9:    673.06   0.022884  115.65  0.010610  ( 0.101684  0.016449 -0.000001)
 10:    716.35   0.000000    0.00  0.000000  (-0.000002 -0.000000  0.000000)
 11:    786.42   0.000511    2.58  0.000203  ( 0.000000  0.000001  0.014243)
 12:   1008.79   0.000000    0.00  0.000000  ( 0.000000  0.000000 -0.000000)
 13:   1061.31   0.000000    0.00  0.000000  ( 0.000000  0.000000 -0.000000)
 14:   1136.33   0.000331    1.67  0.000091  (-0.000001 -0.000001 -0.009534)
 15:   1248.95   0.006225   31.46  0.001555  ( 0.034988  0.018202 -0.000001)
 16:   1292.40   0.000000    0.00  0.000000  (-0.000001  0.000000 -0.000000)
 17:   1321.46   0.000000    0.00  0.000000  ( 0.000000 -0.000000  0.000001)
 18:   1482.39   0.000000    0.00  0.000000  (-0.000000  0.000000  0.000000)
 19:   1483.88   0.001460    7.38  0.000307  (-0.006458  0.016286 -0.000001)
 20:   3069.15   0.000000    0.00  0.000000  ( 0.000000  0.000000 -0.000000)
 21:   3078.44   0.002701   13.65  0.000274  (-0.008066 -0.014448  0.000001)
 22:   3131.85   0.000000    0.00  0.000000  (-0.000000 -0.000001  0.000000)
 23:   3157.40   0.000624    3.16  0.000062  (-0.000001 -0.000001 -0.007856)

--------------------------
THERMOCHEMISTRY AT 298.15K
--------------------------

Temperature         ...   298.15 K
Pressure            ...     1.00 atm
Total Mass          ...    98.96 AMU
Quasi RRHO          ...     True
Cut-Off Frequency   ...     1.00 cm^-1

Throughout the following assumptions are being made:
  (1) The electronic state is orbitally nondegenerate
  (2) There are no thermally accessible electronically excited states
  (3) Hindered rotations indicated by low frequency modes are not
      treated as such but are treated as vibrations and this may
      cause some error
  (4) All equations used are the standard statistical mechanics
      equations for an ideal gas
  (5) All vibrations are strictly harmonic

freq.     135.44  E(vib)   ...       0.42
freq.     223.66  E(vib)   ...       0.33
freq.     294.34  E(vib)   ...       0.27
freq.     673.06  E(vib)   ...       0.08
freq.     716.35  E(vib)   ...       0.07
freq.     786.42  E(vib)   ...       0.05
freq.    1008.79  E(vib)   ...       0.02
freq.    1061.31  E(vib)   ...       0.02
freq.    1136.33  E(vib)   ...       0.01
freq.    1248.95  E(vib)   ...       0.01
freq.    1292.40  E(vib)   ...       0.01
freq.    1321.46  E(vib)   ...       0.01
freq.    1482.39  E(vib)   ...       0.00
freq.    1483.88  E(vib)   ...       0.00
freq.    3069.15  E(vib)   ...       0.00
freq.    3078.44  E(vib)   ...       0.00
freq.    3131.85  E(vib)   ...       0.00
freq.    3157.40  E(vib)   ...       0.00

------------
INNER ENERGY
------------

The inner energy is: U= E(el) + E(ZPE) + E(vib) + E(rot) + E(trans)
    E(el)   - is the total energy from the electronic structure calculation
              = E(kin-el) + E(nuc-el) + E(el-el) + E(nuc-nuc)
    E(ZPE)  - the the zero temperature vibrational energy from the frequency calculation
    E(vib)  - the the finite temperature correction to E(ZPE) due to population
              of excited vibrational states
    E(rot)  - is the rotational thermal energy
    E(trans)- is the translational thermal energy

Summary of contributions to the inner energy U:
Electronic energy                ...   -998.96380654 Eh
Zero point energy                ...      0.05764134 Eh      36.17 kcal/mol
Thermal vibrational correction   ...      0.00206596 Eh       1.30 kcal/mol
Thermal rotational correction    ...      0.00141627 Eh       0.89 kcal/mol
Thermal translational correction ...      0.00141627 Eh       0.89 kcal/mol
-----------------------------------------------------------------------
Total thermal energy                   -998.90126671 Eh

Summary of corrections to the electronic energy:
(perhaps to be used in another calculation)
Total thermal correction                  0.00489850 Eh       3.07 kcal/mol
Non-thermal (ZPE) correction              0.05764134 Eh      36.17 kcal/mol
-----------------------------------------------------------------------
Total correction                          0.06253984 Eh      39.24 kcal/mol

--------
ENTHALPY
--------

The enthalpy is H = U + kB*T
                kB is Boltzmann's constant
Total thermal energy              ...   -998.90126671 Eh
Thermal Enthalpy correction       ...      0.00094421 Eh       0.59 kcal/mol
-----------------------------------------------------------------------
Total Enthalpy                    ...   -998.90032250 Eh

Note: Rotational entropy computed according to Herzberg
Infrared and Raman Spectra, Chapter V,1, Van Nostrand Reinhold, 1945
Point Group:  C2h, Symmetry Number:   2
Rotational constants in cm-1:     0.959593     0.048769     0.047248

Vibrational entropy computed according to the QRRHO of S. Grimme
Chem.Eur.J. 2012 18 9955 using a reference frequency of 100.0 cm-1

-------
ENTROPY
-------

The entropy contributions are T*S = T*(S(el)+S(vib)+S(rot)+S(trans))
     S(el)   - electronic entropy
     S(vib)  - vibrational entropy
     S(rot)  - rotational entropy
     S(trans)- translational entropy
The entropies will be listed as multiplied by the temperature to get
units of energy

Electronic entropy                ...      0.00000000 Eh      0.00 kcal/mol
Vibrational entropy               ...      0.00349628 Eh      2.19 kcal/mol
Rotational entropy                ...      0.01174283 Eh      7.37 kcal/mol
Translational entropy             ...      0.01885644 Eh     11.83 kcal/mol
-----------------------------------------------------------------------
Final entropy term                ...      0.03409555 Eh     21.40 kcal/mol

In case the symmetry of your molecule has not been determined correctly
or in case you have a reason to use a different symmetry number we print
out the resulting rotational entropy values for sn=1,12:

 non-linear molecules -----------------------------------
|  sn= 1 | S(rot)=       0.01239729 Eh      7.78 kcal/mol|
|  sn= 2 | S(rot)=       0.01174283 Eh      7.37 kcal/mol|
|  sn= 3 | S(rot)=       0.01136000 Eh      7.13 kcal/mol|
|  sn= 4 | S(rot)=       0.01108838 Eh      6.96 kcal/mol|
|  sn= 5 | S(rot)=       0.01087769 Eh      6.83 kcal/mol|
|  sn= 6 | S(rot)=       0.01070554 Eh      6.72 kcal/mol|
|  sn= 7 | S(rot)=       0.01056000 Eh      6.63 kcal/mol|
|  sn= 8 | S(rot)=       0.01043392 Eh      6.55 kcal/mol|
|  sn= 9 | S(rot)=       0.01032271 Eh      6.48 kcal/mol|
|  sn=10 | S(rot)=       0.01022323 Eh      6.42 kcal/mol|
|  sn=11 | S(rot)=       0.01013324 Eh      6.36 kcal/mol|
|  sn=12 | S(rot)=       0.01005109 Eh      6.31 kcal/mol|
 linear molecules ---------------------------------------
|  Dinfh | S(rot)=       0.00820776 Eh      5.15 kcal/mol|
|  Cinfv | S(rot)=       0.00886222 Eh      5.56 kcal/mol|
 --------------------------------------------------------

-------------------
GIBBS FREE ENERGY
-------------------

The Gibbs free energy is G = H - T*S

Total enthalpy                    ...   -998.90032250 Eh
Total entropy correction          ...     -0.03409555 Eh    -21.40 kcal/mol
-----------------------------------------------------------------------
Final Gibbs free energy         ...   -998.93441805 Eh

For completeness - the Gibbs free energy minus the electronic energy
G-E(el)                           ...      0.02938849 Eh     18.44 kcal/mol

                             ****ORCA TERMINATED NORMALLY****
TOTAL RUN TIME: 0 days 0 hours 2 minutes 1 seconds 135 msec
