                         Program Version 6.0.1  -  RELEASE   -
|  1> ! pbe def2-sv(p) def2/J RI DEFGRID1 loosescf d4 GCP(DFT/SV(P)) printgap
|  2> %output
|  3>     printlevel normal
|  4> end
|  5> * xyz 0 1
|  6> C -2.3723952758 -1.1979738203 -0.2591778999
|  7> C -1.0557167921 -0.6200494489 0.269665786
|  8> H -1.1054279718 -0.5525032239 1.3695738253
|  9> C -0.7742272109 0.781795938 -0.2893470928
| 10> H -0.7762381766 0.730200127 -1.3914905127
| 11> C 0.6128881238 1.2316965934 0.1807019131
| 12> H 0.5834725264 1.3358785949 1.2789458036
| 13> C 1.6859504597 0.1999718837 -0.1821470407
| 14> H 1.8050013289 0.1703461191 -1.2751699271
| 15> C 1.2602541544 -1.19696865 0.288344272
| 16> H 1.310820224 -1.2178471061 1.397313534
| 17> O -0.0531316705 -1.52642702 -0.1251692658
| 18> O 2.1034553184 -2.1282231631 -0.2765027883
| 19> O 2.8969048134 0.5174750105 0.4448575837
| 20> O 0.9792804523 2.4585593542 -0.401966506
| 21> O -1.6971071646 1.7444160782 0.1573949937
| 22> O -3.4477186051 -0.4019516184 0.1942986383
| 23> H -2.4623423294 -2.2285941279 0.1031602987
| 24> H -2.3313015302 -1.2161817364 -1.3557370135
| 25> H 1.747980109 -3.0087388255 -0.1049660089
| 26> H 3.1090256742 1.4273744734 0.1996170757
| 27> H 0.219936284 3.0480661843 -0.3145718764
| 28> H -2.5681778177 1.3242903825 0.2060658922
| 29> H -4.2757060472 -0.7985326541 -0.0960474046
| 30> *
| 31>
| 32>                          ****END OF INPUT****

CARTESIAN COORDINATES (ANGSTROEM)
---------------------------------
  C     -2.372395   -1.197974   -0.259178
  C     -1.055717   -0.620049    0.269666
  H     -1.105428   -0.552503    1.369574
  C     -0.774227    0.781796   -0.289347
  H     -0.776238    0.730200   -1.391491
  C      0.612888    1.231697    0.180702
  H      0.583473    1.335879    1.278946
  C      1.685950    0.199972   -0.182147
  H      1.805001    0.170346   -1.275170
  C      1.260254   -1.196969    0.288344
  H      1.310820   -1.217847    1.397314
  O     -0.053132   -1.526427   -0.125169
  O      2.103455   -2.128223   -0.276503
  O      2.896905    0.517475    0.444858
  O      0.979280    2.458559   -0.401967
  O     -1.697107    1.744416    0.157395
  O     -3.447719   -0.401952    0.194299
  H     -2.462342   -2.228594    0.103160
  H     -2.331302   -1.216182   -1.355737
  H      1.747980   -3.008739   -0.104966
  H      3.109026    1.427374    0.199617
  H      0.219936    3.048066   -0.314572
  H     -2.568178    1.324290    0.206066
  H     -4.275706   -0.798533   -0.096047

 Total Charge           Charge          ....    0
 Multiplicity           Mult            ....    1
 Number of Electrons    NEL             ....   96
 Basis Dimension        Dim             ....  192

ORBITAL ENERGIES
----------------

  NO   OCC          E(Eh)            E(eV)
   0   2.0000     -18.786507      -511.2069
   1   2.0000     -18.776159      -510.9253
   2   2.0000     -18.754104      -510.3251
   3   2.0000     -18.747957      -510.1578
   4   2.0000     -18.745229      -510.0836
   5   2.0000     -18.739014      -509.9145
   6   2.0000      -9.984778      -271.6996
   7   2.0000      -9.952480      -270.8207
   8   2.0000      -9.952174      -270.8124
   9   2.0000      -9.938504      -270.4405
  10   2.0000      -9.933700      -270.3097
  11   2.0000      -9.932102      -270.2662
  12   2.0000      -0.984797       -26.7977
  13   2.0000      -0.959404       -26.1067
  14   2.0000      -0.940143       -25.5826
  15   2.0000      -0.925429       -25.1822
  16   2.0000      -0.913751       -24.8644
  17   2.0000      -0.907999       -24.7079
  18   2.0000      -0.704775       -19.1779
  19   2.0000      -0.693713       -18.8769
  20   2.0000      -0.625798       -17.0288
  21   2.0000      -0.573606       -15.6086
  22   2.0000      -0.560666       -15.2565
  23   2.0000      -0.526381       -14.3236
  24   2.0000      -0.508797       -13.8451
  25   2.0000      -0.490684       -13.3522
  26   2.0000      -0.474641       -12.9157
  27   2.0000      -0.460275       -12.5247
  28   2.0000      -0.457447       -12.4478
  29   2.0000      -0.440065       -11.9748
  30   2.0000      -0.412033       -11.2120
  31   2.0000      -0.402909       -10.9637
  32   2.0000      -0.390333       -10.6215
  33   2.0000      -0.381663       -10.3856
  34   2.0000      -0.355967        -9.6863
  35   2.0000      -0.349414        -9.5080
  36   2.0000      -0.336089        -9.1454
  37   2.0000      -0.323286        -8.7971
  38   2.0000      -0.303531        -8.2595
  39   2.0000      -0.301273        -8.1980
  40   2.0000      -0.279813        -7.6141
  41   2.0000      -0.270749        -7.3675
  42   2.0000      -0.249237        -6.7821
  43   2.0000      -0.245402        -6.6777
  44   2.0000      -0.230684        -6.2772
  45   2.0000      -0.221060        -6.0153
  46   2.0000      -0.210911        -5.7392
  47   2.0000      -0.205175        -5.5831
  48   0.0000      -0.001636        -0.0445
  49   0.0000       0.033707         0.9172
  50   0.0000       0.039100         1.0640
  51   0.0000       0.050121         1.3639
  52   0.0000       0.063014         1.7147

MULLIKEN ATOMIC CHARGES
-----------------------
   0 C :    0.074450
   1 C :   -0.022187
   2 H :    0.063342
   3 C :    0.045553
   4 H :    0.049013
   5 C :    0.069303
   6 H :    0.049890
   7 C :    0.058844
   8 H :    0.060305
   9 C :    0.201551
  10 H :    0.041003
  11 O :   -0.320190
  12 O :   -0.366409
  13 O :   -0.411705
  14 O :   -0.427480
  15 O :   -0.437554
  16 O :   -0.445072
  17 H :    0.089980
  18 H :    0.080169
  19 H :    0.301248
  20 H :    0.308213
  21 H :    0.312714
  22 H :    0.306616
  23 H :    0.318405
Sum of atomic charges:   -0.0000000

LOEWDIN ATOMIC CHARGES
----------------------
   0 C :   -0.121724
   1 C :   -0.068523
   2 H :    0.105768
   3 C :   -0.079509
   4 H :    0.101086
   5 C :   -0.077657
   6 H :    0.102588
   7 C :   -0.076059
   8 H :    0.110002
   9 C :    0.014386
  10 H :    0.083619
  11 O :   -0.153348
  12 O :   -0.285863
  13 O :   -0.313025
  14 O :   -0.325643
  15 O :   -0.335467
  16 O :   -0.332322
  17 H :    0.106618
  18 H :    0.104492
  19 H :    0.287207
  20 H :    0.289150
  21 H :    0.290660
  22 H :    0.275618
  23 H :    0.297946

  Mayer bond orders larger than 0.100000
B(  0-C ,  1-C ) :   1.0567 B(  0-C , 16-O ) :   1.0437 B(  0-C , 17-H ) :   0.9182
B(  0-C , 18-H ) :   0.9076 B(  1-C ,  2-H ) :   0.8772 B(  1-C ,  3-C ) :   1.0164
B(  1-C , 11-O ) :   1.0000 B(  3-C ,  4-H ) :   0.8656 B(  3-C ,  5-C ) :   1.0069
B(  3-C , 15-O ) :   1.0765 B(  5-C ,  6-H ) :   0.8707 B(  5-C ,  7-C ) :   1.0205
B(  5-C , 14-O ) :   1.0810 B(  7-C ,  8-H ) :   0.8633 B(  7-C ,  9-C ) :   1.0009
B(  7-C , 13-O ) :   1.0790 B(  9-C , 10-H ) :   0.8859 B(  9-C , 11-O ) :   0.9923
B(  9-C , 12-O ) :   1.1967 B( 12-O , 19-H ) :   0.8435 B( 13-O , 20-H ) :   0.8407
B( 14-O , 21-H ) :   0.8353 B( 15-O , 22-H ) :   0.8032 B( 16-O , 22-H ) :   0.1083
B( 16-O , 23-H ) :   0.8415

Dispersion correction           -0.023774554
FINAL SINGLE POINT ENERGY      -685.700519526067

DIPOLE MOMENT
-------------

Method             : SCF
Type of density    : Electron Density
Multiplicity       :   1
Irrep              :   0
Energy             :  -685.8319653932273923 Eh
Relativity type    :
Basis              : AO
                                X                 Y                 Z
Electronic contribution:      2.705752844       0.265676656      -0.095863825
Nuclear contribution   :     -4.438120972      -0.915427999       0.015556522
                        -----------------------------------------
Total Dipole Moment    :     -1.732368128      -0.649751343      -0.080307303
                        -----------------------------------------
Magnitude (a.u.)       :      1.851951781
Magnitude (Debye)      :      4.707287334

Rotational constants in cm-1:             0.043841             0.024672             0.016526
Rotational constants in MHz :          1314.306986           739.634655           495.429560

                             ****ORCA TERMINATED NORMALLY****
TOTAL RUN TIME: 0 days 0 hours 0 minutes 9 seconds 985 msec
