                         Program Version 6.0.1  -  RELEASE   -
|  1> ! pbe def2-sv(p) def2/J RI DEFGRID1 loosescf d4 GCP(DFT/SV(P)) printgap
|  2> %output
|  3>     printlevel normal
|  4> end
|  5> * xyz 0 1
|  6> C -2.5067978387 -0.6812195644 -0.0388587931
|  7> C -1.1556538751 -0.4346790591 0.6514012542
|  8> H -1.2202752187 -0.729772583 1.7113575141
|  9> C -0.718846556 1.0558233372 0.6189521613
| 10> H -1.5909596819 1.6745492873 0.3777238011
| 11> C 0.3644337365 1.2756324462 -0.447410146
| 12> H 0.7258842543 2.3117432795 -0.353881609
| 13> C 1.5673431889 0.3456551091 -0.1365233999
| 14> H 2.1717962079 0.234339309 -1.0443361355
| 15> C 1.1020181714 -1.0599336959 0.285191599
| 16> H 1.2381057841 -1.1509466689 1.3840108482
| 17> O -0.2491074605 -1.2892558106 -0.0292319251
| 18> O 1.8576030445 -1.9949896243 -0.3943949665
| 19> O 2.3286785953 0.8614153766 0.937975956
| 20> O -0.1002283915 1.124172432 -1.7548512548
| 21> O -0.2826275565 1.4854668959 1.8822014882
| 22> O -2.3837191245 -0.5644433329 -1.4348491147
| 23> H -3.2387837368 0.0608628436 0.2819013221
| 24> H -2.8689310503 -1.6807760475 0.2290110113
| 25> H 1.475305054 -2.8693090863 -0.250771103
| 26> H 2.8279141185 1.6266981077 0.6318218828
| 27> H -0.9070851807 0.5787205024 -1.7607428157
| 28> H 0.6460545648 1.2283348642 1.9968711224
| 29> H -1.7831076012 -1.2635473993 -1.727989357
| 30> *
| 31>
| 32>                          ****END OF INPUT****

CARTESIAN COORDINATES (ANGSTROEM)
---------------------------------
  C     -2.506798   -0.681220   -0.038859
  C     -1.155654   -0.434679    0.651401
  H     -1.220275   -0.729773    1.711358
  C     -0.718847    1.055823    0.618952
  H     -1.590960    1.674549    0.377724
  C      0.364434    1.275632   -0.447410
  H      0.725884    2.311743   -0.353882
  C      1.567343    0.345655   -0.136523
  H      2.171796    0.234339   -1.044336
  C      1.102018   -1.059934    0.285192
  H      1.238106   -1.150947    1.384011
  O     -0.249107   -1.289256   -0.029232
  O      1.857603   -1.994990   -0.394395
  O      2.328679    0.861415    0.937976
  O     -0.100228    1.124172   -1.754851
  O     -0.282628    1.485467    1.882201
  O     -2.383719   -0.564443   -1.434849
  H     -3.238784    0.060863    0.281901
  H     -2.868931   -1.680776    0.229011
  H      1.475305   -2.869309   -0.250771
  H      2.827914    1.626698    0.631822
  H     -0.907085    0.578721   -1.760743
  H      0.646055    1.228335    1.996871
  H     -1.783108   -1.263547   -1.727989

 Total Charge           Charge          ....    0
 Multiplicity           Mult            ....    1
 Number of Electrons    NEL             ....   96
 Basis Dimension        Dim             ....  192

ORBITAL ENERGIES
----------------

  NO   OCC          E(Eh)            E(eV)
   0   2.0000     -18.784257      -511.1456
   1   2.0000     -18.778864      -510.9989
   2   2.0000     -18.776547      -510.9358
   3   2.0000     -18.766655      -510.6666
   4   2.0000     -18.741155      -509.9728
   5   2.0000     -18.735812      -509.8274
   6   2.0000      -9.995954      -272.0037
   7   2.0000      -9.950787      -270.7747
   8   2.0000      -9.949406      -270.7371
   9   2.0000      -9.943806      -270.5847
  10   2.0000      -9.943412      -270.5740
  11   2.0000      -9.940241      -270.4877
  12   2.0000      -0.997089       -27.1322
  13   2.0000      -0.956546       -26.0289
  14   2.0000      -0.951443       -25.8901
  15   2.0000      -0.930104       -25.3094
  16   2.0000      -0.917644       -24.9704
  17   2.0000      -0.913217       -24.8499
  18   2.0000      -0.704021       -19.1574
  19   2.0000      -0.691710       -18.8224
  20   2.0000      -0.627381       -17.0719
  21   2.0000      -0.592012       -16.1095
  22   2.0000      -0.579262       -15.7625
  23   2.0000      -0.520446       -14.1621
  24   2.0000      -0.512863       -13.9557
  25   2.0000      -0.493590       -13.4313
  26   2.0000      -0.491188       -13.3659
  27   2.0000      -0.472303       -12.8520
  28   2.0000      -0.449327       -12.2268
  29   2.0000      -0.438870       -11.9423
  30   2.0000      -0.423333       -11.5195
  31   2.0000      -0.403915       -10.9911
  32   2.0000      -0.393549       -10.7090
  33   2.0000      -0.380113       -10.3434
  34   2.0000      -0.362863        -9.8740
  35   2.0000      -0.352621        -9.5953
  36   2.0000      -0.337510        -9.1841
  37   2.0000      -0.318898        -8.6777
  38   2.0000      -0.311310        -8.4712
  39   2.0000      -0.308811        -8.4032
  40   2.0000      -0.301004        -8.1907
  41   2.0000      -0.274627        -7.4730
  42   2.0000      -0.259612        -7.0644
  43   2.0000      -0.251218        -6.8360
  44   2.0000      -0.244723        -6.6593
  45   2.0000      -0.235574        -6.4103
  46   2.0000      -0.210955        -5.7404
  47   2.0000      -0.199438        -5.4270
  48   0.0000       0.010678         0.2906
  49   0.0000       0.020572         0.5598
  50   0.0000       0.034941         0.9508
  51   0.0000       0.052955         1.4410
  52   0.0000       0.055494         1.5101

MULLIKEN ATOMIC CHARGES
-----------------------
   0 C :    0.054696
   1 C :    0.015674
   2 H :    0.070064
   3 C :   -0.006515
   4 H :    0.082473
   5 C :    0.061853
   6 H :    0.059640
   7 C :    0.006172
   8 H :    0.086116
   9 C :    0.209974
  10 H :    0.047833
  11 O :   -0.330236
  12 O :   -0.376493
  13 O :   -0.417286
  14 O :   -0.420375
  15 O :   -0.425374
  16 O :   -0.428658
  17 H :    0.107761
  18 H :    0.091463
  19 H :    0.301073
  20 H :    0.313904
  21 H :    0.282547
  22 H :    0.297304
  23 H :    0.316390
Sum of atomic charges:    0.0000000

LOEWDIN ATOMIC CHARGES
----------------------
   0 C :   -0.123192
   1 C :   -0.082777
   2 H :    0.111310
   3 C :   -0.076564
   4 H :    0.117379
   5 C :   -0.079151
   6 H :    0.105364
   7 C :   -0.088896
   8 H :    0.119829
   9 C :    0.008837
  10 H :    0.082935
  11 O :   -0.165361
  12 O :   -0.290368
  13 O :   -0.307707
  14 O :   -0.325922
  15 O :   -0.322088
  16 O :   -0.311204
  17 H :    0.122910
  18 H :    0.107372
  19 H :    0.286476
  20 H :    0.294683
  21 H :    0.261023
  22 H :    0.268272
  23 H :    0.286839

  Mayer bond orders larger than 0.100000
B(  0-C ,  1-C ) :   1.0315 B(  0-C , 16-O ) :   1.0360 B(  0-C , 17-H ) :   0.9248
B(  0-C , 18-H ) :   0.9212 B(  1-C ,  2-H ) :   0.8803 B(  1-C ,  3-C ) :   0.9408
B(  1-C , 11-O ) :   0.9874 B(  3-C ,  4-H ) :   0.8975 B(  3-C ,  5-C ) :   1.0165
B(  3-C , 15-O ) :   1.0717 B(  5-C ,  6-H ) :   0.8986 B(  5-C ,  7-C ) :   0.9488
B(  5-C , 14-O ) :   1.1099 B(  7-C ,  8-H ) :   0.8800 B(  7-C ,  9-C ) :   0.9845
B(  7-C , 13-O ) :   1.0178 B(  9-C , 10-H ) :   0.8895 B(  9-C , 11-O ) :   1.0312
B(  9-C , 12-O ) :   1.1758 B( 12-O , 19-H ) :   0.8425 B( 13-O , 20-H ) :   0.8415
B( 13-O , 22-H ) :   0.1107 B( 14-O , 21-H ) :   0.7827 B( 15-O , 22-H ) :   0.8083
B( 16-O , 21-H ) :   0.1626 B( 16-O , 23-H ) :   0.8184

Dispersion correction           -0.025539326
FINAL SINGLE POINT ENERGY      -685.695964442937

DIPOLE MOMENT
-------------

Method             : SCF
Type of density    : Electron Density
Multiplicity       :   1
Irrep              :   0
Energy             :  -685.8306161146434761 Eh
Relativity type    :
Basis              : AO
                                X                 Y                 Z
Electronic contribution:      2.434821476      -0.780943902      -1.038752686
Nuclear contribution   :     -2.350676934       0.014009930       1.372028749
                        -----------------------------------------
Total Dipole Moment    :      0.084144543      -0.766933972       0.333276063
                        -----------------------------------------
Magnitude (a.u.)       :      0.840440929
Magnitude (Debye)      :      2.136231073

Rotational constants in cm-1:             0.040715             0.028486             0.023949
Rotational constants in MHz :          1220.613659           853.980790           717.966440

                             ****ORCA TERMINATED NORMALLY****
TOTAL RUN TIME: 0 days 0 hours 0 minutes 10 seconds 110 msec
