                         Program Version 6.0.1  -  RELEASE   -
|  1> ! pbe def2-sv(p) def2/J RI DEFGRID1 loosescf d4 GCP(DFT/SV(P)) printgap
|  2> %output
|  3>     printlevel normal
|  4> end
|  5> * xyz 0 1
|  6> C -3.2232229942 0.3293865173 0.9482719997
|  7> C -1.7413624669 0.2350422424 0.5929468182
|  8> H -1.1780930539 0.1620686182 1.5289845561
|  9> C -1.2818585568 1.4809504549 -0.1818169507
| 10> C -0.1759229868 1.1735750832 -1.1978255258
| 11> C 0.785809882 0.0813769541 -0.723562427
| 12> H 1.5254286214 -0.1155457765 -1.5090289041
| 13> C 0.0022351251 -1.206759947 -0.5433173085
| 14> O 0.4952269185 -2.296658021 -0.7019262149
| 15> C -1.4614466796 -1.0306099563 -0.214013215
| 16> C 1.5830426941 0.4714129857 0.545253219
| 17> C 2.293089762 -0.737410995 1.1508403461
| 18> C 2.612762528 1.5504320568 0.2115433771
| 19> H -3.419333366 1.2355426887 1.5171785081
| 20> H -3.8323856311 0.3504006098 0.0467903174
| 21> H -3.5290588074 -0.5245509714 1.5486261496
| 22> H -2.1321749678 1.9078148533 -0.7178627759
| 23> H -0.9390286284 2.2381953718 0.5252011634
| 24> H -0.6270776286 0.8352005998 -2.1337118275
| 25> H 0.3737223373 2.0874279032 -1.4252149569
| 26> H -2.0022733604 -0.9892492201 -1.1645574111
| 27> H -1.8108214301 -1.9195420793 0.3152007985
| 28> H 0.8927655375 0.8762978771 1.2897304933
| 29> H 2.9238791837 -0.4227519373 1.979665803
| 30> H 2.9170164953 -1.2250949571 0.4058652139
| 31> H 1.5810813839 -1.4693032713 1.5232371214
| 32> H 3.3249819395 1.1816119712 -0.5234986079
| 33> H 3.1618292222 1.8291771695 1.1082527816
| 34> H 2.1403392223 2.4458646351 -0.1834140704
| 35> *
| 36>
| 37>                          ****END OF INPUT****

CARTESIAN COORDINATES (ANGSTROEM)
---------------------------------
  C     -3.223223    0.329387    0.948272
  C     -1.741362    0.235042    0.592947
  H     -1.178093    0.162069    1.528985
  C     -1.281859    1.480950   -0.181817
  C     -0.175923    1.173575   -1.197826
  C      0.785810    0.081377   -0.723562
  H      1.525429   -0.115546   -1.509029
  C      0.002235   -1.206760   -0.543317
  O      0.495227   -2.296658   -0.701926
  C     -1.461447   -1.030610   -0.214013
  C      1.583043    0.471413    0.545253
  C      2.293090   -0.737411    1.150840
  C      2.612763    1.550432    0.211543
  H     -3.419333    1.235543    1.517179
  H     -3.832386    0.350401    0.046790
  H     -3.529059   -0.524551    1.548626
  H     -2.132175    1.907815   -0.717863
  H     -0.939029    2.238195    0.525201
  H     -0.627078    0.835201   -2.133712
  H      0.373722    2.087428   -1.425215
  H     -2.002273   -0.989249   -1.164557
  H     -1.810821   -1.919542    0.315201
  H      0.892766    0.876298    1.289730
  H      2.923879   -0.422752    1.979666
  H      2.917016   -1.225095    0.405865
  H      1.581081   -1.469303    1.523237
  H      3.324982    1.181612   -0.523499
  H      3.161829    1.829177    1.108253
  H      2.140339    2.445865   -0.183414

 Total Charge           Charge          ....    0
 Multiplicity           Mult            ....    1
 Number of Electrons    NEL             ....   86
 Basis Dimension        Dim             ....  190

ORBITAL ENERGIES
----------------

  NO   OCC          E(Eh)            E(eV)
   0   2.0000     -18.729909      -509.6667
   1   2.0000      -9.965622      -271.1784
   2   2.0000      -9.905251      -269.5356
   3   2.0000      -9.904992      -269.5285
   4   2.0000      -9.896664      -269.3019
   5   2.0000      -9.891929      -269.1731
   6   2.0000      -9.890664      -269.1386
   7   2.0000      -9.888615      -269.0829
   8   2.0000      -9.879793      -268.8428
   9   2.0000      -9.877693      -268.7857
  10   2.0000      -9.868810      -268.5440
  11   2.0000      -0.933501       -25.4019
  12   2.0000      -0.769089       -20.9280
  13   2.0000      -0.729080       -19.8393
  14   2.0000      -0.679146       -18.4805
  15   2.0000      -0.652789       -17.7633
  16   2.0000      -0.614337       -16.7170
  17   2.0000      -0.610689       -16.6177
  18   2.0000      -0.557235       -15.1631
  19   2.0000      -0.514295       -13.9947
  20   2.0000      -0.506859       -13.7923
  21   2.0000      -0.470216       -12.7952
  22   2.0000      -0.445204       -12.1146
  23   2.0000      -0.414576       -11.2812
  24   2.0000      -0.412696       -11.2300
  25   2.0000      -0.400412       -10.8958
  26   2.0000      -0.389945       -10.6109
  27   2.0000      -0.372848       -10.1457
  28   2.0000      -0.368794       -10.0354
  29   2.0000      -0.357409        -9.7256
  30   2.0000      -0.347967        -9.4687
  31   2.0000      -0.344241        -9.3673
  32   2.0000      -0.336177        -9.1478
  33   2.0000      -0.332674        -9.0525
  34   2.0000      -0.326390        -8.8815
  35   2.0000      -0.312505        -8.5037
  36   2.0000      -0.301496        -8.2041
  37   2.0000      -0.299482        -8.1493
  38   2.0000      -0.291822        -7.9409
  39   2.0000      -0.277247        -7.5443
  40   2.0000      -0.275585        -7.4990
  41   2.0000      -0.268717        -7.3122
  42   2.0000      -0.185224        -5.0402
  43   0.0000      -0.047820        -1.3012
  44   0.0000       0.019160         0.5214
  45   0.0000       0.038144         1.0379
  46   0.0000       0.049401         1.3443
  47   0.0000       0.064996         1.7686

MULLIKEN ATOMIC CHARGES
-----------------------
   0 C :   -0.216680
   1 C :   -0.211316
   2 H :    0.083268
   3 C :   -0.135867
   4 C :   -0.092583
   5 C :   -0.105648
   6 H :    0.069799
   7 C :    0.008808
   8 O :   -0.156774
   9 C :   -0.092739
  10 C :   -0.222029
  11 C :   -0.211951
  12 C :   -0.235671
  13 H :    0.103480
  14 H :    0.093785
  15 H :    0.099964
  16 H :    0.077657
  17 H :    0.088491
  18 H :    0.079318
  19 H :    0.090688
  20 H :    0.099385
  21 H :    0.093438
  22 H :    0.084745
  23 H :    0.094810
  24 H :    0.100232
  25 H :    0.112406
  26 H :    0.096427
  27 H :    0.102293
  28 H :    0.102267
Sum of atomic charges:   -0.0000000

LOEWDIN ATOMIC CHARGES
----------------------
   0 C :   -0.325717
   1 C :   -0.154315
   2 H :    0.117548
   3 C :   -0.220987
   4 C :   -0.217800
   5 C :   -0.158729
   6 H :    0.131824
   7 C :    0.050028
   8 O :   -0.120674
   9 C :   -0.238954
  10 C :   -0.143223
  11 C :   -0.330133
  12 C :   -0.327344
  13 H :    0.119568
  14 H :    0.116534
  15 H :    0.118807
  16 H :    0.119919
  17 H :    0.118848
  18 H :    0.119187
  19 H :    0.120721
  20 H :    0.141898
  21 H :    0.132423
  22 H :    0.115888
  23 H :    0.116243
  24 H :    0.123280
  25 H :    0.119511
  26 H :    0.119504
  27 H :    0.120349
  28 H :    0.115796

  Mayer bond orders larger than 0.100000
B(  0-C ,  1-C ) :   1.1179 B(  0-C , 13-H ) :   0.9505 B(  0-C , 14-H ) :   0.9438
B(  0-C , 15-H ) :   0.9479 B(  1-C ,  2-H ) :   0.8855 B(  1-C ,  3-C ) :   1.0840
B(  1-C ,  9-C ) :   1.1198 B(  3-C ,  4-C ) :   1.1485 B(  3-C , 16-H ) :   0.9093
B(  3-C , 17-H ) :   0.9116 B(  4-C ,  5-C ) :   1.1033 B(  4-C , 18-H ) :   0.8983
B(  4-C , 19-H ) :   0.9049 B(  5-C ,  6-H ) :   0.8533 B(  5-C ,  7-C ) :   0.9529
B(  5-C , 10-C ) :   1.0228 B(  7-C ,  8-O ) :   2.1615 B(  7-C ,  9-C ) :   1.0364
B(  9-C , 20-H ) :   0.8622 B(  9-C , 21-H ) :   0.8958 B( 10-C , 11-C ) :   1.1329
B( 10-C , 12-C ) :   1.1124 B( 10-C , 22-H ) :   0.8866 B( 11-C , 23-H ) :   0.9468
B( 11-C , 24-H ) :   0.9425 B( 11-C , 25-H ) :   0.9315 B( 12-C , 26-H ) :   0.9466
B( 12-C , 27-H ) :   0.9464 B( 12-C , 28-H ) :   0.9435

Dispersion correction           -0.030622777
FINAL SINGLE POINT ENERGY      -466.028548469571

DIPOLE MOMENT
-------------

Method             : SCF
Type of density    : Electron Density
Multiplicity       :   1
Irrep              :   0
Energy             :  -466.1246790468028394 Eh
Relativity type    :
Basis              : AO
                                X                 Y                 Z
Electronic contribution:      0.196792292      -6.955701951      -3.674574233
Nuclear contribution   :     -0.582950692       7.924920173       3.865566627
                        -----------------------------------------
Total Dipole Moment    :     -0.386158400       0.969218223       0.190992393
                        -----------------------------------------
Magnitude (a.u.)       :      1.060650917
Magnitude (Debye)      :      2.695960379

Rotational constants in cm-1:             0.050704             0.028391             0.023059
Rotational constants in MHz :          1520.073261           851.141325           691.280534

                             ****ORCA TERMINATED NORMALLY****
TOTAL RUN TIME: 0 days 0 hours 0 minutes 18 seconds 276 msec
