                         Program Version 6.0.1  -  RELEASE   -
|  1> ! r2scan-3c def2/J RI DEFGRID2 scfconv6 printgap
|  2> %output
|  3>     printlevel normal
|  4> end
|  5> * xyz 0 1
|  6> C 0.7261947326 -1.1978320583 0.2460160604
|  7> C -0.7252449469 -1.1896101245 -0.2494671403
|  8> N -1.4450943134 5.65645e-05 0.1684851431
|  9> C -0.7253025275 1.1897456673 -0.2495182837
| 10> C 0.7261058275 1.1976869132 0.2460505101
| 11> N 1.3836061341 -4.38239e-05 -0.2464524687
| 12> H 1.2526305629 -2.0717010315 -0.1431701042
| 13> H 0.7289394336 -1.2522286491 1.3524321696
| 14> H -0.7254644923 -1.2039115076 -1.3421901585
| 15> H -1.2564545861 -2.0704642185 0.1171252313
| 16> H -1.5300234126 0.0001005333 1.1829606544
| 17> H -0.7254827197 1.2039681124 -1.3422545707
| 18> H -1.2565627782 2.0705983343 0.1170092029
| 19> H 1.2525367891 2.0715855531 -0.1430423146
| 20> H 0.7288034147 1.252026189 1.3524832776
| 21> H 2.3646824813 -3.5941e-05 0.0146028471
| 22> *
| 23>
| 24>                          ****END OF INPUT****

CARTESIAN COORDINATES (ANGSTROEM)
---------------------------------
  C      0.726195   -1.197832    0.246016
  C     -0.725245   -1.189610   -0.249467
  N     -1.445094    0.000057    0.168485
  C     -0.725303    1.189746   -0.249518
  C      0.726106    1.197687    0.246051
  N      1.383606   -0.000044   -0.246452
  H      1.252631   -2.071701   -0.143170
  H      0.728939   -1.252229    1.352432
  H     -0.725464   -1.203912   -1.342190
  H     -1.256455   -2.070464    0.117125
  H     -1.530023    0.000101    1.182961
  H     -0.725483    1.203968   -1.342255
  H     -1.256563    2.070598    0.117009
  H      1.252537    2.071586   -0.143042
  H      0.728803    1.252026    1.352483
  H      2.364682   -0.000036    0.014603

 Total Charge           Charge          ....    0
 Multiplicity           Mult            ....    1
 Number of Electrons    NEL             ....   48
 Basis Dimension        Dim             ....  174

ORBITAL ENERGIES
----------------

  NO   OCC          E(Eh)            E(eV)
   0   2.0000     -14.143052      -384.8520
   1   2.0000     -14.138793      -384.7361
   2   2.0000     -10.048259      -273.4270
   3   2.0000     -10.048255      -273.4269
   4   2.0000     -10.045398      -273.3492
   5   2.0000     -10.045391      -273.3490
   6   2.0000      -0.898124       -24.4392
   7   2.0000      -0.842786       -22.9334
   8   2.0000      -0.720932       -19.6176
   9   2.0000      -0.628882       -17.1127
  10   2.0000      -0.598176       -16.2772
  11   2.0000      -0.541227       -14.7275
  12   2.0000      -0.484687       -13.1890
  13   2.0000      -0.426758       -11.6127
  14   2.0000      -0.421669       -11.4742
  15   2.0000      -0.412056       -11.2126
  16   2.0000      -0.395204       -10.7540
  17   2.0000      -0.358242        -9.7483
  18   2.0000      -0.351503        -9.5649
  19   2.0000      -0.316900        -8.6233
  20   2.0000      -0.314699        -8.5634
  21   2.0000      -0.303192        -8.2503
  22   2.0000      -0.202617        -5.5135
  23   2.0000      -0.180158        -4.9023
  24   0.0000       0.067838         1.8460
  25   0.0000       0.094331         2.5669
  26   0.0000       0.110832         3.0159
  27   0.0000       0.115323         3.1381
  28   0.0000       0.122768         3.3407

MULLIKEN ATOMIC CHARGES
-----------------------
   0 C :   -0.219650
   1 C :   -0.250925
   2 N :   -0.346726
   3 C :   -0.250795
   4 C :   -0.219768
   5 N :   -0.312492
   6 H :    0.137481
   7 H :    0.129844
   8 H :    0.158812
   9 H :    0.145534
  10 H :    0.231298
  11 H :    0.158801
  12 H :    0.145537
  13 H :    0.137480
  14 H :    0.129857
  15 H :    0.225712
Sum of atomic charges:    0.0000000

LOEWDIN ATOMIC CHARGES
----------------------
   0 C :   -0.055996
   1 C :   -0.044253
   2 N :   -0.820467
   3 C :   -0.044259
   4 C :   -0.055983
   5 N :   -0.839404
   6 H :    0.175284
   7 H :    0.152013
   8 H :    0.182145
   9 H :    0.174368
  10 H :    0.245219
  11 H :    0.182147
  12 H :    0.174373
  13 H :    0.175279
  14 H :    0.152015
  15 H :    0.247520

  Mayer bond orders larger than 0.100000
B(  0-C ,  1-C ) :   0.8847 B(  0-C ,  5-N ) :   0.9431 B(  0-C ,  6-H ) :   0.9536
B(  0-C ,  7-H ) :   0.9755 B(  1-C ,  2-N ) :   0.9758 B(  1-C ,  8-H ) :   0.9799
B(  1-C ,  9-H ) :   0.9811 B(  2-N ,  3-C ) :   0.9757 B(  2-N , 10-H ) :   0.8973
B(  3-C ,  4-C ) :   0.8847 B(  3-C , 11-H ) :   0.9798 B(  3-C , 12-H ) :   0.9810
B(  4-C ,  5-N ) :   0.9432 B(  4-C , 13-H ) :   0.9536 B(  4-C , 14-H ) :   0.9755
B(  5-N , 15-H ) :   0.9113

Dispersion correction           -0.004200901
FINAL SINGLE POINT ENERGY      -267.844317863449

DIPOLE MOMENT
-------------

Method             : SCF
Type of density    : Electron Density
Multiplicity       :   1
Irrep              :   0
Energy             :  -267.8560079532612690 Eh
Relativity type    :
Basis              : AO
                                X                 Y                 Z
Electronic contribution:     -0.294590692       0.000115857      -0.557383451
Nuclear contribution   :      0.781722591      -0.000058683       1.093433140
                        -----------------------------------------
Total Dipole Moment    :      0.487131899       0.000057173       0.536049689
                        -----------------------------------------
Magnitude (a.u.)       :      0.724325037
Magnitude (Debye)      :      1.841087931

Rotational constants in cm-1:             0.160868             0.152091             0.088852
Rotational constants in MHz :          4822.714731          4559.572802          2663.723303

                             ****ORCA TERMINATED NORMALLY****
TOTAL RUN TIME: 0 days 0 hours 0 minutes 38 seconds 375 msec
