                         Program Version 6.0.1  -  RELEASE   -
|  1> ! pbe def2-sv(p) def2/J RI DEFGRID1 loosescf d4 GCP(DFT/SV(P)) printgap
|  2> %output
|  3>     printlevel normal
|  4> end
|  5> * xyz 0 1
|  6> C -1.7961776992 -1.0285492877 -0.6858267329
|  7> C -1.0339379858 -0.4403396743 0.5206533467
|  8> H -1.6988823088 -0.514056806 1.3912926658
|  9> C -0.6842116545 1.0540744274 0.3293367234
| 10> H -1.5058488032 1.535469535 -0.2203290121
| 11> C 0.6224526418 1.2499939021 -0.4715389333
| 12> H 0.943884948 2.2920873263 -0.326718629
| 13> C 1.7332010571 0.3445024685 0.0826225718
| 14> H 2.6028844707 0.4054589216 -0.5897892477
| 15> C 1.2473603716 -1.1180214566 0.1197866641
| 16> H 1.9719827513 -1.741442107 0.6639482824
| 17> O 0.0842598524 -1.2262012385 0.8983973086
| 18> O 1.1504375747 -1.6589516296 -1.1517890765
| 19> O 2.0514753522 0.8176600096 1.3707988801
| 20> O 0.4678428246 0.9591395979 -1.8459537822
| 21> O -0.6099854135 1.7336078667 1.5513864413
| 22> O -3.1767808922 -0.7765993527 -0.6117080512
| 23> H -1.6866481825 -2.1146733365 -0.6678797084
| 24> H -1.3887569027 -0.6487404863 -1.632745035
| 25> H 0.7785302213 -0.9985293682 -1.7554154809
| 26> H 2.646014227 0.1918278909 1.7997900981
| 27> H -0.0709136355 1.6448323725 -2.2555032099
| 28> H 0.1989475798 1.4458452467 2.0009829967
| 29> H -3.3281769517 0.1695687132 -0.5082685961
| 30> *
| 31>
| 32>                          ****END OF INPUT****

CARTESIAN COORDINATES (ANGSTROEM)
---------------------------------
  C     -1.796178   -1.028549   -0.685827
  C     -1.033938   -0.440340    0.520653
  H     -1.698882   -0.514057    1.391293
  C     -0.684212    1.054074    0.329337
  H     -1.505849    1.535470   -0.220329
  C      0.622453    1.249994   -0.471539
  H      0.943885    2.292087   -0.326719
  C      1.733201    0.344502    0.082623
  H      2.602884    0.405459   -0.589789
  C      1.247360   -1.118021    0.119787
  H      1.971983   -1.741442    0.663948
  O      0.084260   -1.226201    0.898397
  O      1.150438   -1.658952   -1.151789
  O      2.051475    0.817660    1.370799
  O      0.467843    0.959140   -1.845954
  O     -0.609985    1.733608    1.551386
  O     -3.176781   -0.776599   -0.611708
  H     -1.686648   -2.114673   -0.667880
  H     -1.388757   -0.648740   -1.632745
  H      0.778530   -0.998529   -1.755415
  H      2.646014    0.191828    1.799790
  H     -0.070914    1.644832   -2.255503
  H      0.198948    1.445845    2.000983
  H     -3.328177    0.169569   -0.508269

 Total Charge           Charge          ....    0
 Multiplicity           Mult            ....    1
 Number of Electrons    NEL             ....   96
 Basis Dimension        Dim             ....  192

ORBITAL ENERGIES
----------------

  NO   OCC          E(Eh)            E(eV)
   0   2.0000     -18.793786      -511.4049
   1   2.0000     -18.784674      -511.1570
   2   2.0000     -18.763427      -510.5788
   3   2.0000     -18.755865      -510.3730
   4   2.0000     -18.746762      -510.1253
   5   2.0000     -18.743902      -510.0475
   6   2.0000      -9.988847      -271.8103
   7   2.0000      -9.964497      -271.1477
   8   2.0000      -9.959509      -271.0120
   9   2.0000      -9.952266      -270.8149
  10   2.0000      -9.939328      -270.4629
  11   2.0000      -9.926004      -270.1003
  12   2.0000      -0.987015       -26.8580
  13   2.0000      -0.963054       -26.2060
  14   2.0000      -0.954586       -25.9756
  15   2.0000      -0.930198       -25.3120
  16   2.0000      -0.923368       -25.1261
  17   2.0000      -0.909445       -24.7472
  18   2.0000      -0.711132       -19.3509
  19   2.0000      -0.695705       -18.9311
  20   2.0000      -0.614714       -16.7272
  21   2.0000      -0.606857       -16.5134
  22   2.0000      -0.574221       -15.6254
  23   2.0000      -0.538529       -14.6541
  24   2.0000      -0.518893       -14.1198
  25   2.0000      -0.499889       -13.6027
  26   2.0000      -0.476898       -12.9771
  27   2.0000      -0.461998       -12.5716
  28   2.0000      -0.453404       -12.3377
  29   2.0000      -0.434681       -11.8283
  30   2.0000      -0.421348       -11.4655
  31   2.0000      -0.411232       -11.1902
  32   2.0000      -0.391927       -10.6649
  33   2.0000      -0.381192       -10.3728
  34   2.0000      -0.363447        -9.8899
  35   2.0000      -0.349046        -9.4980
  36   2.0000      -0.343978        -9.3601
  37   2.0000      -0.337486        -9.1835
  38   2.0000      -0.319054        -8.6819
  39   2.0000      -0.294028        -8.0009
  40   2.0000      -0.285472        -7.7681
  41   2.0000      -0.276310        -7.5188
  42   2.0000      -0.263745        -7.1769
  43   2.0000      -0.251837        -6.8528
  44   2.0000      -0.242513        -6.5991
  45   2.0000      -0.232596        -6.3293
  46   2.0000      -0.216335        -5.8868
  47   2.0000      -0.199334        -5.4242
  48   0.0000      -0.010952        -0.2980
  49   0.0000       0.007460         0.2030
  50   0.0000       0.021283         0.5791
  51   0.0000       0.060950         1.6585
  52   0.0000       0.064519         1.7557

MULLIKEN ATOMIC CHARGES
-----------------------
   0 C :    0.026101
   1 C :    0.022536
   2 H :    0.082978
   3 C :    0.065256
   4 H :    0.036794
   5 C :   -0.001754
   6 H :    0.090611
   7 C :    0.022211
   8 H :    0.088127
   9 C :    0.180737
  10 H :    0.060557
  11 O :   -0.297164
  12 O :   -0.398728
  13 O :   -0.418659
  14 O :   -0.415240
  15 O :   -0.423629
  16 O :   -0.430109
  17 H :    0.100718
  18 H :    0.055949
  19 H :    0.318052
  20 H :    0.314336
  21 H :    0.320120
  22 H :    0.304766
  23 H :    0.295433
Sum of atomic charges:    0.0000000

LOEWDIN ATOMIC CHARGES
----------------------
   0 C :   -0.146678
   1 C :   -0.080141
   2 H :    0.122752
   3 C :   -0.076982
   4 H :    0.098821
   5 C :   -0.072101
   6 H :    0.113685
   7 C :   -0.086715
   8 H :    0.111510
   9 C :   -0.014139
  10 H :    0.102443
  11 O :   -0.138573
  12 O :   -0.301116
  13 O :   -0.304342
  14 O :   -0.307986
  15 O :   -0.318474
  16 O :   -0.330576
  17 H :    0.122277
  18 H :    0.086703
  19 H :    0.274045
  20 H :    0.294374
  21 H :    0.298371
  22 H :    0.275285
  23 H :    0.277557

  Mayer bond orders larger than 0.100000
B(  0-C ,  1-C ) :   1.0254 B(  0-C , 16-O ) :   1.0518 B(  0-C , 17-H ) :   0.9090
B(  0-C , 18-H ) :   0.9029 B(  1-C ,  2-H ) :   0.8945 B(  1-C ,  3-C ) :   0.9675
B(  1-C , 11-O ) :   1.0087 B(  3-C ,  4-H ) :   0.8865 B(  3-C ,  5-C ) :   0.9686
B(  3-C , 15-O ) :   1.0642 B(  5-C ,  6-H ) :   0.9014 B(  5-C ,  7-C ) :   1.0081
B(  5-C , 14-O ) :   1.0297 B(  7-C ,  8-H ) :   0.8952 B(  7-C ,  9-C ) :   0.9857
B(  7-C , 13-O ) :   1.0232 B(  9-C , 10-H ) :   0.9083 B(  9-C , 11-O ) :   1.0546
B(  9-C , 12-O ) :   1.1474 B( 12-O , 19-H ) :   0.7989 B( 13-O , 20-H ) :   0.8395
B( 14-O , 21-H ) :   0.8363 B( 15-O , 22-H ) :   0.8155 B( 16-O , 23-H ) :   0.8508

Dispersion correction           -0.025961834
FINAL SINGLE POINT ENERGY      -685.693063299311

DIPOLE MOMENT
-------------

Method             : SCF
Type of density    : Electron Density
Multiplicity       :   1
Irrep              :   0
Energy             :  -685.8262486347051663 Eh
Relativity type    :
Basis              : AO
                                X                 Y                 Z
Electronic contribution:      1.287692476      -0.521133035       1.584563691
Nuclear contribution   :     -0.504266201       1.562295334      -1.967625060
                        -----------------------------------------
Total Dipole Moment    :      0.783426275       1.041162299      -0.383061370
                        -----------------------------------------
Magnitude (a.u.)       :      1.358128003
Magnitude (Debye)      :      3.452087043

Rotational constants in cm-1:             0.040818             0.028210             0.024331
Rotational constants in MHz :          1223.705971           845.704055           729.439829

                             ****ORCA TERMINATED NORMALLY****
TOTAL RUN TIME: 0 days 0 hours 14 minutes 46 seconds 796 msec
