                         Program Version 6.0.1  -  RELEASE   -
|  1> ! pbe def2-sv(p) def2/J RI DEFGRID1 loosescf d4 GCP(DFT/SV(P)) printgap
|  2> %output
|  3>     printlevel normal
|  4> end
|  5> * xyz 0 1
|  6> C -2.2163753167 -0.9744499413 -0.4873202634
|  7> C -1.2321154707 -0.171275987 0.3803353338
|  8> H -1.7762617894 0.1977182828 1.2574812054
|  9> C -0.6556278478 1.0425064653 -0.3558721044
| 10> H -0.5496491064 0.8298040263 -1.4360846985
| 11> C 0.7405393647 1.3332436511 0.2038561294
| 12> H 0.6868787523 1.424868963 1.2987631148
| 13> C 1.654667138 0.156905733 -0.1447977199
| 14> H 1.8139578137 0.1526126648 -1.2369695049
| 15> C 0.9825298213 -1.1855055901 0.2546205302
| 16> H 1.6234459696 -1.7007156629 0.9825343476
| 17> O -0.227931801 -1.021801371 0.9338147168
| 18> O 0.8964411181 -2.0597515367 -0.8301741432
| 19> O 2.8788194754 0.369577881 0.5158022008
| 20> O 1.1980443143 2.532788787 -0.3686005669
| 21> O -1.522454446 2.1245472295 -0.1759453455
| 22> O -2.6701144175 -2.1143589738 0.1811640648
| 23> H -1.7425715248 -1.2542559658 -1.4447819521
| 24> H -3.0858202922 -0.351327983 -0.7063792927
| 25> H 0.2568487931 -1.7318534847 -1.4747188908
| 26> H 3.478134547 -0.3600275618 0.3237553112
| 27> H 2.1150249348 2.6522546888 -0.0950359111
| 28> H -1.0269683739 2.9250971057 -0.3968744724
| 29> H -1.9120377545 -2.5018467618 0.6413347539
| 30> *
| 31>
| 32>                          ****END OF INPUT****

CARTESIAN COORDINATES (ANGSTROEM)
---------------------------------
  C     -2.216375   -0.974450   -0.487320
  C     -1.232115   -0.171276    0.380335
  H     -1.776262    0.197718    1.257481
  C     -0.655628    1.042506   -0.355872
  H     -0.549649    0.829804   -1.436085
  C      0.740539    1.333244    0.203856
  H      0.686879    1.424869    1.298763
  C      1.654667    0.156906   -0.144798
  H      1.813958    0.152613   -1.236970
  C      0.982530   -1.185506    0.254621
  H      1.623446   -1.700716    0.982534
  O     -0.227932   -1.021801    0.933815
  O      0.896441   -2.059752   -0.830174
  O      2.878819    0.369578    0.515802
  O      1.198044    2.532789   -0.368601
  O     -1.522454    2.124547   -0.175945
  O     -2.670114   -2.114359    0.181164
  H     -1.742572   -1.254256   -1.444782
  H     -3.085820   -0.351328   -0.706379
  H      0.256849   -1.731853   -1.474719
  H      3.478135   -0.360028    0.323755
  H      2.115025    2.652255   -0.095036
  H     -1.026968    2.925097   -0.396874
  H     -1.912038   -2.501847    0.641335

 Total Charge           Charge          ....    0
 Multiplicity           Mult            ....    1
 Number of Electrons    NEL             ....   96
 Basis Dimension        Dim             ....  192

ORBITAL ENERGIES
----------------

  NO   OCC          E(Eh)            E(eV)
   0   2.0000     -18.785621      -511.1827
   1   2.0000     -18.773939      -510.8649
   2   2.0000     -18.768753      -510.7237
   3   2.0000     -18.767343      -510.6854
   4   2.0000     -18.756108      -510.3796
   5   2.0000     -18.742959      -510.0218
   6   2.0000      -9.997489      -272.0455
   7   2.0000      -9.954799      -270.8839
   8   2.0000      -9.954061      -270.8638
   9   2.0000      -9.952018      -270.8082
  10   2.0000      -9.951594      -270.7966
  11   2.0000      -9.937446      -270.4117
  12   2.0000      -0.994138       -27.0519
  13   2.0000      -0.960160       -26.1273
  14   2.0000      -0.946533       -25.7565
  15   2.0000      -0.931022       -25.3344
  16   2.0000      -0.926603       -25.2141
  17   2.0000      -0.916334       -24.9347
  18   2.0000      -0.718448       -19.5500
  19   2.0000      -0.701788       -19.0966
  20   2.0000      -0.624511       -16.9938
  21   2.0000      -0.599376       -16.3098
  22   2.0000      -0.573509       -15.6060
  23   2.0000      -0.538598       -14.6560
  24   2.0000      -0.517757       -14.0889
  25   2.0000      -0.496965       -13.5231
  26   2.0000      -0.478124       -13.0104
  27   2.0000      -0.468261       -12.7420
  28   2.0000      -0.450891       -12.2694
  29   2.0000      -0.439755       -11.9663
  30   2.0000      -0.424288       -11.5455
  31   2.0000      -0.408157       -11.1065
  32   2.0000      -0.395828       -10.7710
  33   2.0000      -0.388545       -10.5728
  34   2.0000      -0.377793       -10.2803
  35   2.0000      -0.352638        -9.5958
  36   2.0000      -0.329019        -8.9531
  37   2.0000      -0.327898        -8.9226
  38   2.0000      -0.319942        -8.7061
  39   2.0000      -0.306960        -8.3528
  40   2.0000      -0.289686        -7.8827
  41   2.0000      -0.276879        -7.5343
  42   2.0000      -0.268664        -7.3107
  43   2.0000      -0.245245        -6.6735
  44   2.0000      -0.240222        -6.5368
  45   2.0000      -0.227796        -6.1987
  46   2.0000      -0.225248        -6.1293
  47   2.0000      -0.213075        -5.7981
  48   0.0000       0.002225         0.0605
  49   0.0000       0.010877         0.2960
  50   0.0000       0.030868         0.8400
  51   0.0000       0.041403         1.1266
  52   0.0000       0.055870         1.5203

MULLIKEN ATOMIC CHARGES
-----------------------
   0 C :    0.061878
   1 C :    0.024205
   2 H :    0.091383
   3 C :    0.020970
   4 H :    0.042779
   5 C :    0.073150
   6 H :    0.071985
   7 C :    0.007234
   8 H :    0.059457
   9 C :    0.199859
  10 H :    0.065240
  11 O :   -0.315311
  12 O :   -0.404924
  13 O :   -0.418589
  14 O :   -0.427060
  15 O :   -0.411137
  16 O :   -0.425988
  17 H :    0.045097
  18 H :    0.102612
  19 H :    0.300740
  20 H :    0.310666
  21 H :    0.314405
  22 H :    0.311392
  23 H :    0.299956
Sum of atomic charges:   -0.0000000

LOEWDIN ATOMIC CHARGES
----------------------
   0 C :   -0.130861
   1 C :   -0.069693
   2 H :    0.129398
   3 C :   -0.067563
   4 H :    0.093468
   5 C :   -0.076963
   6 H :    0.113472
   7 C :   -0.095474
   8 H :    0.102642
   9 C :   -0.008230
  10 H :    0.112121
  11 O :   -0.137038
  12 O :   -0.310639
  13 O :   -0.319681
  14 O :   -0.321522
  15 O :   -0.312425
  16 O :   -0.331587
  17 H :    0.079786
  18 H :    0.124876
  19 H :    0.274905
  20 H :    0.291787
  21 H :    0.293677
  22 H :    0.288464
  23 H :    0.277079

  Mayer bond orders larger than 0.100000
B(  0-C ,  1-C ) :   1.0775 B(  0-C , 16-O ) :   1.0949 B(  0-C , 17-H ) :   0.8847
B(  0-C , 18-H ) :   0.9123 B(  1-C ,  2-H ) :   0.8717 B(  1-C ,  3-C ) :   0.9816
B(  1-C , 11-O ) :   0.9753 B(  3-C ,  4-H ) :   0.8782 B(  3-C ,  5-C ) :   1.0103
B(  3-C , 15-O ) :   1.0988 B(  5-C ,  6-H ) :   0.8697 B(  5-C ,  7-C ) :   1.0220
B(  5-C , 14-O ) :   1.0720 B(  7-C ,  8-H ) :   0.8840 B(  7-C ,  9-C ) :   0.9664
B(  7-C , 13-O ) :   1.0745 B(  9-C , 10-H ) :   0.8935 B(  9-C , 11-O ) :   1.0716
B(  9-C , 12-O ) :   1.0977 B( 12-O , 19-H ) :   0.8292 B( 13-O , 20-H ) :   0.8440
B( 14-O , 21-H ) :   0.8361 B( 15-O , 22-H ) :   0.8298 B( 16-O , 23-H ) :   0.8315

Dispersion correction           -0.024482035
FINAL SINGLE POINT ENERGY      -685.690137419001

DIPOLE MOMENT
-------------

Method             : SCF
Type of density    : Electron Density
Multiplicity       :   1
Irrep              :   0
Energy             :  -685.8213966677773215 Eh
Relativity type    :
Basis              : AO
                                X                 Y                 Z
Electronic contribution:      1.382299166       0.082455997       1.757361874
Nuclear contribution   :     -0.103469646       0.262368366      -2.141779122
                        -----------------------------------------
Total Dipole Moment    :      1.278829520       0.344824363      -0.384417248
                        -----------------------------------------
Magnitude (a.u.)       :      1.379161123
Magnitude (Debye)      :      3.505548985

Rotational constants in cm-1:             0.041602             0.026855             0.018164
Rotational constants in MHz :          1247.182739           805.107145           544.551783

                             ****ORCA TERMINATED NORMALLY****
TOTAL RUN TIME: 0 days 0 hours 0 minutes 9 seconds 480 msec
