                         Program Version 6.0.1  -  RELEASE   -
|  1> ! pbe def2-sv(p) def2/J RI DEFGRID1 loosescf d4 GCP(DFT/SV(P)) printgap
|  2> %output
|  3>     printlevel normal
|  4> end
|  5> * xyz 0 1
|  6> C -1.763975211 -1.3197224616 -0.5722506571
|  7> C -1.1333086764 -0.4984411748 0.5696285467
|  8> H -1.8497574345 -0.4492815102 1.3994144661
|  9> C -0.8588928373 0.9560210877 0.1367335632
| 10> H -1.1648453157 1.091178984 -0.913346802
| 11> C 0.6386404698 1.2656505613 0.2268493163
| 12> H 0.9341901469 1.3357681557 1.2860824435
| 13> C 1.4031291392 0.1078679929 -0.4164910784
| 14> H 1.0075081107 -0.0666157006 -1.4313447762
| 15> C 1.1969484026 -1.1535609245 0.4470890979
| 16> H 1.9822007673 -1.1759711629 1.2166231616
| 17> O -0.0124699775 -1.1480458376 1.1466262525
| 18> O 1.3914713908 -2.3205910081 -0.3045617737
| 19> O 2.7631789521 0.4611292922 -0.4927255263
| 20> O 0.8782193648 2.4836073854 -0.4282573697
| 21> O -1.613680792 1.8075942864 0.9599219626
| 22> O -2.9337506833 -0.7298031029 -1.0656693409
| 23> H -1.9571128793 -2.3393098501 -0.2041631268
| 24> H -1.089189643 -1.3718982254 -1.4322598204
| 25> H 0.5675358098 -2.5753152895 -0.7344092112
| 26> H 3.2657434977 -0.3131586526 -0.7704022278
| 27> H 1.829356015 2.5395267731 -0.5846589123
| 28> H -1.3440321022 2.7132061829 0.7631994164
| 29> H -3.5230114919 -0.5277674158 -0.3295006403
| 30> *
| 31>
| 32>                          ****END OF INPUT****

CARTESIAN COORDINATES (ANGSTROEM)
---------------------------------
  C     -1.763975   -1.319722   -0.572251
  C     -1.133309   -0.498441    0.569629
  H     -1.849757   -0.449282    1.399414
  C     -0.858893    0.956021    0.136734
  H     -1.164845    1.091179   -0.913347
  C      0.638640    1.265651    0.226849
  H      0.934190    1.335768    1.286082
  C      1.403129    0.107868   -0.416491
  H      1.007508   -0.066616   -1.431345
  C      1.196948   -1.153561    0.447089
  H      1.982201   -1.175971    1.216623
  O     -0.012470   -1.148046    1.146626
  O      1.391471   -2.320591   -0.304562
  O      2.763179    0.461129   -0.492726
  O      0.878219    2.483607   -0.428257
  O     -1.613681    1.807594    0.959922
  O     -2.933751   -0.729803   -1.065669
  H     -1.957113   -2.339310   -0.204163
  H     -1.089190   -1.371898   -1.432260
  H      0.567536   -2.575315   -0.734409
  H      3.265743   -0.313159   -0.770402
  H      1.829356    2.539527   -0.584659
  H     -1.344032    2.713206    0.763199
  H     -3.523011   -0.527767   -0.329501

 Total Charge           Charge          ....    0
 Multiplicity           Mult            ....    1
 Number of Electrons    NEL             ....   96
 Basis Dimension        Dim             ....  192

ORBITAL ENERGIES
----------------

  NO   OCC          E(Eh)            E(eV)
   0   2.0000     -18.780638      -511.0471
   1   2.0000     -18.769457      -510.7429
   2   2.0000     -18.763202      -510.5727
   3   2.0000     -18.762750      -510.5604
   4   2.0000     -18.754265      -510.3295
   5   2.0000     -18.750795      -510.2351
   6   2.0000      -9.991688      -271.8877
   7   2.0000      -9.953566      -270.8503
   8   2.0000      -9.948423      -270.7103
   9   2.0000      -9.947400      -270.6825
  10   2.0000      -9.943149      -270.5669
  11   2.0000      -9.943029      -270.5636
  12   2.0000      -0.989232       -26.9184
  13   2.0000      -0.952548       -25.9201
  14   2.0000      -0.943220       -25.6663
  15   2.0000      -0.936597       -25.4861
  16   2.0000      -0.919383       -25.0177
  17   2.0000      -0.918236       -24.9865
  18   2.0000      -0.711102       -19.3501
  19   2.0000      -0.699399       -19.0316
  20   2.0000      -0.626197       -17.0397
  21   2.0000      -0.592397       -16.1199
  22   2.0000      -0.580634       -15.7999
  23   2.0000      -0.531859       -14.4726
  24   2.0000      -0.509360       -13.8604
  25   2.0000      -0.490741       -13.3537
  26   2.0000      -0.483562       -13.1584
  27   2.0000      -0.462977       -12.5982
  28   2.0000      -0.449013       -12.2183
  29   2.0000      -0.439474       -11.9587
  30   2.0000      -0.428190       -11.6516
  31   2.0000      -0.402044       -10.9402
  32   2.0000      -0.395148       -10.7525
  33   2.0000      -0.385323       -10.4852
  34   2.0000      -0.359815        -9.7911
  35   2.0000      -0.354131        -9.6364
  36   2.0000      -0.329373        -8.9627
  37   2.0000      -0.325059        -8.8453
  38   2.0000      -0.313045        -8.5184
  39   2.0000      -0.310794        -8.4571
  40   2.0000      -0.293247        -7.9797
  41   2.0000      -0.275937        -7.5086
  42   2.0000      -0.265061        -7.2127
  43   2.0000      -0.244905        -6.6642
  44   2.0000      -0.230260        -6.2657
  45   2.0000      -0.222120        -6.0442
  46   2.0000      -0.219649        -5.9769
  47   2.0000      -0.217553        -5.9199
  48   0.0000       0.015247         0.4149
  49   0.0000       0.018888         0.5140
  50   0.0000       0.023286         0.6336
  51   0.0000       0.043385         1.1806
  52   0.0000       0.051118         1.3910

MULLIKEN ATOMIC CHARGES
-----------------------
   0 C :   -0.009672
   1 C :    0.013431
   2 H :    0.083267
   3 C :    0.070592
   4 H :    0.076513
   5 C :    0.056646
   6 H :    0.061206
   7 C :   -0.007558
   8 H :    0.055517
   9 C :    0.193319
  10 H :    0.072061
  11 O :   -0.295795
  12 O :   -0.405032
  13 O :   -0.422347
  14 O :   -0.424927
  15 O :   -0.418170
  16 O :   -0.416519
  17 H :    0.091711
  18 H :    0.085138
  19 H :    0.301021
  20 H :    0.312484
  21 H :    0.312135
  22 H :    0.308398
  23 H :    0.306586
Sum of atomic charges:   -0.0000000

LOEWDIN ATOMIC CHARGES
----------------------
   0 C :   -0.147386
   1 C :   -0.068759
   2 H :    0.123627
   3 C :   -0.068401
   4 H :    0.109634
   5 C :   -0.077544
   6 H :    0.107506
   7 C :   -0.097109
   8 H :    0.100175
   9 C :   -0.007082
  10 H :    0.111948
  11 O :   -0.128067
  12 O :   -0.318158
  13 O :   -0.319865
  14 O :   -0.323833
  15 O :   -0.320203
  16 O :   -0.320494
  17 H :    0.099809
  18 H :    0.103414
  19 H :    0.279078
  20 H :    0.293775
  21 H :    0.288820
  22 H :    0.289416
  23 H :    0.289701

  Mayer bond orders larger than 0.100000
B(  0-C ,  1-C ) :   1.0288 B(  0-C , 16-O ) :   1.0653 B(  0-C , 17-H ) :   0.9100
B(  0-C , 18-H ) :   0.9067 B(  1-C ,  2-H ) :   0.8871 B(  1-C ,  3-C ) :   0.9660
B(  1-C , 11-O ) :   1.0206 B(  3-C ,  4-H ) :   0.8837 B(  3-C ,  5-C ) :   1.0407
B(  3-C , 15-O ) :   1.0749 B(  5-C ,  6-H ) :   0.8645 B(  5-C ,  7-C ) :   1.0069
B(  5-C , 14-O ) :   1.0854 B(  7-C ,  8-H ) :   0.8766 B(  7-C ,  9-C ) :   0.9736
B(  7-C , 13-O ) :   1.0623 B(  9-C , 10-H ) :   0.8880 B(  9-C , 11-O ) :   1.0615
B(  9-C , 12-O ) :   1.0953 B( 12-O , 19-H ) :   0.8374 B( 13-O , 20-H ) :   0.8390
B( 14-O , 21-H ) :   0.8320 B( 15-O , 22-H ) :   0.8424 B( 16-O , 23-H ) :   0.8454

Dispersion correction           -0.024545287
FINAL SINGLE POINT ENERGY      -685.688456918702

DIPOLE MOMENT
-------------

Method             : SCF
Type of density    : Electron Density
Multiplicity       :   1
Irrep              :   0
Energy             :  -685.8191944426566806 Eh
Relativity type    :
Basis              : AO
                                X                 Y                 Z
Electronic contribution:      1.407635472       0.855805900       1.425281758
Nuclear contribution   :     -1.251468234      -1.060968433      -1.630241380
                        -----------------------------------------
Total Dipole Moment    :      0.156167239      -0.205162533      -0.204959622
                        -----------------------------------------
Magnitude (a.u.)       :      0.329375649
Magnitude (Debye)      :      0.837206366

Rotational constants in cm-1:             0.036728             0.028798             0.019345
Rotational constants in MHz :          1101.084895           863.342304           579.962543

                             ****ORCA TERMINATED NORMALLY****
TOTAL RUN TIME: 0 days 0 hours 0 minutes 8 seconds 521 msec
