                         Program Version 6.0.1  -  RELEASE   -
|  1> ! r2scan-3c def2/J RI DEFGRID2 scfconv6 printgap
|  2> %output
|  3>     printlevel normal
|  4> end
|  5> * xyz 0 1
|  6> C 1.1030633511 -1.4988644046 0.397447463
|  7> C 0.7471779921 -0.0148007638 0.398129198
|  8> C 1.5755930674 0.7486730474 -0.6413655773
|  9> C -0.7255876982 0.256374928 0.1275422599
| 10> O -1.3278166273 1.1014183481 0.7414270218
| 11> C -1.3765162673 -0.5635636785 -0.955822691
| 12> H 0.481622169 -2.0445933497 1.1039686451
| 13> H 0.9780492418 -1.9348703058 -0.590382026
| 14> H 2.1426815439 -1.6244871384 0.6923741888
| 15> H 0.9671761985 0.4078707725 1.3844427592
| 16> H 1.4117275979 0.3476327271 -1.639250877
| 17> H 2.6340028429 0.6612205039 -0.4068859974
| 18> H 1.307232673 1.8025315699 -0.6417228616
| 19> H -0.7421290462 -0.6211540662 -1.8357277553
| 20> H -2.3368124477 -0.1275570162 -1.2186127535
| 21> H -1.5405018881 -1.5734775862 -0.584824575
| 22> *
| 23>
| 24>                          ****END OF INPUT****

CARTESIAN COORDINATES (ANGSTROEM)
---------------------------------
  C      1.103063   -1.498864    0.397447
  C      0.747178   -0.014801    0.398129
  C      1.575593    0.748673   -0.641366
  C     -0.725588    0.256375    0.127542
  O     -1.327817    1.101418    0.741427
  C     -1.376516   -0.563564   -0.955823
  H      0.481622   -2.044593    1.103969
  H      0.978049   -1.934870   -0.590382
  H      2.142682   -1.624487    0.692374
  H      0.967176    0.407871    1.384443
  H      1.411728    0.347633   -1.639251
  H      2.634003    0.661221   -0.406886
  H      1.307233    1.802532   -0.641723
  H     -0.742129   -0.621154   -1.835728
  H     -2.336812   -0.127557   -1.218613
  H     -1.540502   -1.573478   -0.584825

 Total Charge           Charge          ....    0
 Multiplicity           Mult            ....    1
 Number of Electrons    NEL             ....   48
 Basis Dimension        Dim             ....  169

ORBITAL ENERGIES
----------------

  NO   OCC          E(Eh)            E(eV)
   0   2.0000     -18.935573      -515.2631
   1   2.0000     -10.115361      -275.2530
   2   2.0000     -10.045752      -273.3588
   3   2.0000     -10.033692      -273.0306
   4   2.0000     -10.032963      -273.0108
   5   2.0000     -10.031920      -272.9824
   6   2.0000      -1.006983       -27.4014
   7   2.0000      -0.782014       -21.2797
   8   2.0000      -0.706607       -19.2277
   9   2.0000      -0.665613       -18.1122
  10   2.0000      -0.593572       -16.1519
  11   2.0000      -0.494926       -13.4676
  12   2.0000      -0.444666       -12.1000
  13   2.0000      -0.432567       -11.7708
  14   2.0000      -0.422943       -11.5089
  15   2.0000      -0.392367       -10.6769
  16   2.0000      -0.382896       -10.4191
  17   2.0000      -0.376257       -10.2385
  18   2.0000      -0.362418        -9.8619
  19   2.0000      -0.339449        -9.2369
  20   2.0000      -0.335509        -9.1297
  21   2.0000      -0.315786        -8.5930
  22   2.0000      -0.308784        -8.4024
  23   2.0000      -0.209428        -5.6988
  24   0.0000      -0.041990        -1.1426
  25   0.0000       0.069668         1.8958
  26   0.0000       0.113277         3.0824
  27   0.0000       0.117369         3.1938
  28   0.0000       0.125676         3.4198

MULLIKEN ATOMIC CHARGES
-----------------------
   0 C :   -0.484311
   1 C :   -0.037749
   2 C :   -0.499145
   3 C :    0.269899
   4 O :   -0.336735
   5 C :   -0.520680
   6 H :    0.158541
   7 H :    0.150709
   8 H :    0.152421
   9 H :    0.168682
  10 H :    0.148841
  11 H :    0.152488
  12 H :    0.163645
  13 H :    0.164628
  14 H :    0.176551
  15 H :    0.172215
Sum of atomic charges:    0.0000000

LOEWDIN ATOMIC CHARGES
----------------------
   0 C :   -0.405376
   1 C :   -0.223994
   2 C :   -0.392051
   3 C :    0.219003
   4 O :   -0.454511
   5 C :   -0.387268
   6 H :    0.157750
   7 H :    0.155374
   8 H :    0.158319
   9 H :    0.177774
  10 H :    0.152785
  11 H :    0.157907
  12 H :    0.163273
  13 H :    0.167302
  14 H :    0.175565
  15 H :    0.178146

  Mayer bond orders larger than 0.100000
B(  0-C ,  1-C ) :   0.8782 B(  0-C ,  6-H ) :   0.9788 B(  0-C ,  7-H ) :   0.9667
B(  0-C ,  8-H ) :   0.9653 B(  1-C ,  2-C ) :   0.9082 B(  1-C ,  3-C ) :   0.8919
B(  1-C ,  9-H ) :   0.9646 B(  2-C , 10-H ) :   0.9808 B(  2-C , 11-H ) :   0.9661
B(  2-C , 12-H ) :   0.9668 B(  3-C ,  4-O ) :   1.9660 B(  3-C ,  5-C ) :   0.8912
B(  5-C , 13-H ) :   0.9631 B(  5-C , 14-H ) :   0.9721 B(  5-C , 15-H ) :   0.9357

Dispersion correction           -0.003999431
FINAL SINGLE POINT ENERGY      -271.703870926466

DIPOLE MOMENT
-------------

Method             : SCF
Type of density    : Electron Density
Multiplicity       :   1
Irrep              :   0
Energy             :  -271.7074645584219752 Eh
Relativity type    :
Basis              : AO
                                X                 Y                 Z
Electronic contribution:     -4.298348938       3.607987283       2.927450568
Nuclear contribution   :      4.955442129      -4.399498844      -3.494571634
                        -----------------------------------------
Total Dipole Moment    :      0.657093191      -0.791511561      -0.567121065
                        -----------------------------------------
Magnitude (a.u.)       :      1.174686475
Magnitude (Debye)      :      2.985815733

Rotational constants in cm-1:             0.153038             0.093119             0.080050
Rotational constants in MHz :          4587.977984          2791.648935          2399.839785

                             ****ORCA TERMINATED NORMALLY****
TOTAL RUN TIME: 0 days 0 hours 0 minutes 13 seconds 224 msec
