                         Program Version 6.0.1  -  RELEASE   -
|  1> ! pbe def2-sv(p) def2/J RI DEFGRID1 loosescf d4 GCP(DFT/SV(P)) printgap
|  2> %output
|  3>     printlevel normal
|  4> end
|  5> * xyz 0 1
|  6> C 1.5868707626 0.4797262777 0.1202968128
|  7> C 0.7830100485 -0.4947968798 -0.2648630764
|  8> C -0.6458750612 -0.6249377704 0.2003849168
|  9> O -1.4346351879 0.5074572857 -0.0943698716
| 10> H 2.5980920582 0.5604719209 -0.2388168965
| 11> H 1.2742851309 1.2419912533 0.8180886237
| 12> H 1.1303294972 -1.2445667807 -0.960838232
| 13> H -0.6578974131 -0.8180680722 1.2863251869
| 14> H -1.1385049043 -1.4600341707 -0.3005486032
| 15> H -0.9776416413 1.2917193566 0.2286339336
| 16> *
| 17>
| 18>                          ****END OF INPUT****

CARTESIAN COORDINATES (ANGSTROEM)
---------------------------------
  C      1.586871    0.479726    0.120297
  C      0.783010   -0.494797   -0.264863
  C     -0.645875   -0.624938    0.200385
  O     -1.434635    0.507457   -0.094370
  H      2.598092    0.560472   -0.238817
  H      1.274285    1.241991    0.818089
  H      1.130329   -1.244567   -0.960838
  H     -0.657897   -0.818068    1.286325
  H     -1.138505   -1.460034   -0.300549
  H     -0.977642    1.291719    0.228634

 Total Charge           Charge          ....    0
 Multiplicity           Mult            ....    1
 Number of Electrons    NEL             ....   32
 Basis Dimension        Dim             ....   68

ORBITAL ENERGIES
----------------

  NO   OCC          E(Eh)            E(eV)
   0   2.0000     -18.741847      -509.9916
   1   2.0000      -9.933226      -270.2968
   2   2.0000      -9.897975      -269.3376
   3   2.0000      -9.890195      -269.1259
   4   2.0000      -0.919633       -25.0245
   5   2.0000      -0.705302       -19.1922
   6   2.0000      -0.611199       -16.6316
   7   2.0000      -0.508445       -13.8355
   8   2.0000      -0.459548       -12.5049
   9   2.0000      -0.421089       -11.4584
  10   2.0000      -0.399507       -10.8711
  11   2.0000      -0.353264        -9.6128
  12   2.0000      -0.330784        -9.0011
  13   2.0000      -0.288567        -7.8523
  14   2.0000      -0.237612        -6.4657
  15   2.0000      -0.213108        -5.7990
  16   0.0000      -0.035574        -0.9680
  17   0.0000       0.031154         0.8477
  18   0.0000       0.055025         1.4973
  19   0.0000       0.085931         2.3383
  20   0.0000       0.105775         2.8783

MULLIKEN ATOMIC CHARGES
-----------------------
   0 C :   -0.216137
   1 C :   -0.149880
   2 C :    0.052876
   3 O :   -0.437134
   4 H :    0.109610
   5 H :    0.090497
   6 H :    0.084860
   7 H :    0.086851
   8 H :    0.087256
   9 H :    0.291202
Sum of atomic charges:   -0.0000000

LOEWDIN ATOMIC CHARGES
----------------------
   0 C :   -0.247584
   1 C :   -0.155068
   2 C :   -0.120126
   3 O :   -0.338586
   4 H :    0.126729
   5 H :    0.113157
   6 H :    0.124617
   7 H :    0.104607
   8 H :    0.115574
   9 H :    0.276680

  Mayer bond orders larger than 0.100000
B(  0-C ,  1-C ) :   2.0630 B(  0-C ,  4-H ) :   0.9274 B(  0-C ,  5-H ) :   0.9246
B(  1-C ,  2-C ) :   1.0481 B(  1-C ,  6-H ) :   0.9321 B(  2-C ,  3-O ) :   1.0683
B(  2-C ,  7-H ) :   0.9127 B(  2-C ,  8-H ) :   0.9303 B(  3-O ,  9-H ) :   0.8529

Dispersion correction           -0.005416578
FINAL SINGLE POINT ENERGY      -192.657711980147

DIPOLE MOMENT
-------------

Method             : SCF
Type of density    : Electron Density
Multiplicity       :   1
Irrep              :   0
Energy             :  -192.6971866008653365 Eh
Relativity type    :
Basis              : AO
                                X                 Y                 Z
Electronic contribution:     -1.537528142       0.432677049      -0.523069229
Nuclear contribution   :      2.069584144      -0.394467097       0.779947186
                        -----------------------------------------
Total Dipole Moment    :      0.532056002       0.038209952       0.256877957
                        -----------------------------------------
Magnitude (a.u.)       :      0.592055634
Magnitude (Debye)      :      1.504885827

Rotational constants in cm-1:             0.611752             0.181419             0.152380
Rotational constants in MHz :         18339.865981          5438.817130          4568.240758

                             ****ORCA TERMINATED NORMALLY****
TOTAL RUN TIME: 0 days 0 hours 1 minutes 29 seconds 523 msec
