                         Program Version 6.0.1  -  RELEASE   -
|  1> ! pbe def2-sv(p) def2/J RI DEFGRID1 loosescf d4 GCP(DFT/SV(P)) printgap
|  2> %output
|  3>     printlevel normal
|  4> end
|  5> * xyz 0 1
|  6> C 1.279013257 1.2130365671 -0.2449756307
|  7> C 0.4818745164 0.097039048 0.4389596526
|  8> C 0.9108266577 -1.2652714244 -0.0959404918
|  9> C -0.985928306 0.3757117967 0.2796939927
| 10> C -1.8832236399 -0.3931983343 -0.3070812351
| 11> H 1.0052585196 2.1857502951 0.1577766457
| 12> H 1.077708985 1.2145386165 -1.314252748
| 13> H 2.3461068965 1.0655323175 -0.0941741186
| 14> H 0.705522335 0.1333580901 1.5138963767
| 15> H 0.3639556618 -2.0635082804 0.4000809885
| 16> H 0.7321175591 -1.3285360417 -1.1668240114
| 17> H 1.9733704077 -1.4162825745 0.0823694844
| 18> H -1.2946650096 1.3276383964 0.6960125734
| 19> H -2.91655602 -0.0964148184 -0.3764034441
| 20> H -1.6399847377 -1.3476165606 -0.7404826112
| 21> *
| 22>
| 23>                          ****END OF INPUT****

CARTESIAN COORDINATES (ANGSTROEM)
---------------------------------
  C      1.279013    1.213037   -0.244976
  C      0.481875    0.097039    0.438960
  C      0.910827   -1.265271   -0.095940
  C     -0.985928    0.375712    0.279694
  C     -1.883224   -0.393198   -0.307081
  H      1.005259    2.185750    0.157777
  H      1.077709    1.214539   -1.314253
  H      2.346107    1.065532   -0.094174
  H      0.705522    0.133358    1.513896
  H      0.363956   -2.063508    0.400081
  H      0.732118   -1.328536   -1.166824
  H      1.973370   -1.416283    0.082369
  H     -1.294665    1.327638    0.696013
  H     -2.916556   -0.096415   -0.376403
  H     -1.639985   -1.347617   -0.740483

 Total Charge           Charge          ....    0
 Multiplicity           Mult            ....    1
 Number of Electrons    NEL             ....   40
 Basis Dimension        Dim             ....   90

ORBITAL ENERGIES
----------------

  NO   OCC          E(Eh)            E(eV)
   0   2.0000      -9.899152      -269.3696
   1   2.0000      -9.887750      -269.0593
   2   2.0000      -9.875934      -268.7378
   3   2.0000      -9.872997      -268.6579
   4   2.0000      -9.871862      -268.6270
   5   2.0000      -0.735212       -20.0061
   6   2.0000      -0.657083       -17.8801
   7   2.0000      -0.612329       -16.6623
   8   2.0000      -0.546898       -14.8819
   9   2.0000      -0.471094       -12.8191
  10   2.0000      -0.430388       -11.7115
  11   2.0000      -0.398632       -10.8473
  12   2.0000      -0.389998       -10.6124
  13   2.0000      -0.351076        -9.5533
  14   2.0000      -0.336598        -9.1593
  15   2.0000      -0.332858        -9.0575
  16   2.0000      -0.303742        -8.2652
  17   2.0000      -0.290502        -7.9050
  18   2.0000      -0.283349        -7.7103
  19   2.0000      -0.225911        -6.1473
  20   0.0000      -0.011390        -0.3099
  21   0.0000       0.041744         1.1359
  22   0.0000       0.068424         1.8619
  23   0.0000       0.084549         2.3007
  24   0.0000       0.087574         2.3830

MULLIKEN ATOMIC CHARGES
-----------------------
   0 C :   -0.262283
   1 C :   -0.131413
   2 C :   -0.251430
   3 C :   -0.103487
   4 C :   -0.201346
   5 H :    0.100888
   6 H :    0.103361
   7 H :    0.100347
   8 H :    0.083373
   9 H :    0.108898
  10 H :    0.102765
  11 H :    0.097904
  12 H :    0.065413
  13 H :    0.093752
  14 H :    0.093259
Sum of atomic charges:    0.0000000

LOEWDIN ATOMIC CHARGES
----------------------
   0 C :   -0.324672
   1 C :   -0.156006
   2 C :   -0.330135
   3 C :   -0.124496
   4 C :   -0.263404
   5 H :    0.117332
   6 H :    0.120293
   7 H :    0.117561
   8 H :    0.125141
   9 H :    0.120695
  10 H :    0.119529
  11 H :    0.119536
  12 H :    0.117747
  13 H :    0.121466
  14 H :    0.119412

  Mayer bond orders larger than 0.100000
B(  0-C ,  1-C ) :   1.0871 B(  0-C ,  5-H ) :   0.9525 B(  0-C ,  6-H ) :   0.9516
B(  0-C ,  7-H ) :   0.9493 B(  1-C ,  2-C ) :   1.1451 B(  1-C ,  3-C ) :   1.0348
B(  1-C ,  8-H ) :   0.8852 B(  2-C ,  9-H ) :   0.9420 B(  2-C , 10-H ) :   0.9407
B(  2-C , 11-H ) :   0.9476 B(  3-C ,  4-C ) :   2.0837 B(  3-C , 12-H ) :   0.9322
B(  4-C , 13-H ) :   0.9190 B(  4-C , 14-H ) :   0.9024

Dispersion correction           -0.010531770
FINAL SINGLE POINT ENERGY      -196.027184746494

DIPOLE MOMENT
-------------

Method             : SCF
Type of density    : Electron Density
Multiplicity       :   1
Irrep              :   0
Energy             :  -196.0752410048309002 Eh
Relativity type    :
Basis              : AO
                                X                 Y                 Z
Electronic contribution:     -2.067499664       0.349400202       0.855815347
Nuclear contribution   :      2.207342458      -0.305410121      -0.789934091
                        -----------------------------------------
Total Dipole Moment    :      0.139842794       0.043990080       0.065881257
                        -----------------------------------------
Magnitude (a.u.)       :      0.160721729
Magnitude (Debye)      :      0.408522169

Rotational constants in cm-1:             0.244156             0.132641             0.097794
Rotational constants in MHz :          7319.621153          3976.467177          2931.780846

                             ****ORCA TERMINATED NORMALLY****
TOTAL RUN TIME: 0 days 0 hours 0 minutes 17 seconds 268 msec
