                         Program Version 6.0.1  -  RELEASE   -
|  1> ! pbe def2-sv(p) def2/J RI DEFGRID1 loosescf d4 GCP(DFT/SV(P)) printgap
|  2> %output
|  3>     printlevel normal
|  4> end
|  5> * xyz 0 1
|  6> C -1.0935118621 -1.8636271303 0.0002989422
|  7> C 0.239111021 -1.4887476557 1.01122e-05
|  8> C 0.5490594571 -0.1361100983 -0.0002249364
|  9> C -0.4401615984 0.8386420875 -0.0002929937
| 10> C -1.7731398108 0.4510019816 -8.17614e-05
| 11> C -2.0925025534 -0.9088718823 0.000273632
| 12> O -2.7851961798 1.3445836606 -0.0001979578
| 13> N 1.9300776108 0.2782062712 -6.17266e-05
| 14> O 2.1598142735 1.4694777099 0.0007056072
| 15> O 2.778501484 -0.5868586118 -0.0004660248
| 16> H -1.355835995 -2.9097981633 0.0005245559
| 17> H 1.0350891107 -2.2160009347 2.51291e-05
| 18> H -0.1543732749 1.8811058446 -0.0005034013
| 19> H -3.1336051893 -1.1889720806 0.00052885
| 20> H -2.4416493741 2.2470174655 -0.0001754267
| 21> *
| 22>
| 23>                          ****END OF INPUT****

CARTESIAN COORDINATES (ANGSTROEM)
---------------------------------
  C     -1.093512   -1.863627    0.000299
  C      0.239111   -1.488748    0.000010
  C      0.549059   -0.136110   -0.000225
  C     -0.440162    0.838642   -0.000293
  C     -1.773140    0.451002   -0.000082
  C     -2.092503   -0.908872    0.000274
  O     -2.785196    1.344584   -0.000198
  N      1.930078    0.278206   -0.000062
  O      2.159814    1.469478    0.000706
  O      2.778501   -0.586859   -0.000466
  H     -1.355836   -2.909798    0.000525
  H      1.035089   -2.216001    0.000025
  H     -0.154373    1.881106   -0.000503
  H     -3.133605   -1.188972    0.000529
  H     -2.441649    2.247017   -0.000175

 Total Charge           Charge          ....    0
 Multiplicity           Mult            ....    1
 Number of Electrons    NEL             ....   72
 Basis Dimension        Dim             ....  150

ORBITAL ENERGIES
----------------

  NO   OCC          E(Eh)            E(eV)
   0   2.0000     -18.806701      -511.7563
   1   2.0000     -18.778489      -510.9887
   2   2.0000     -18.775673      -510.9120
   3   2.0000     -14.211746      -386.7213
   4   2.0000      -9.980833      -271.5923
   5   2.0000      -9.954649      -270.8798
   6   2.0000      -9.922184      -269.9964
   7   2.0000      -9.919223      -269.9158
   8   2.0000      -9.917878      -269.8792
   9   2.0000      -9.916155      -269.8323
  10   2.0000      -1.136036       -30.9131
  11   2.0000      -0.991560       -26.9817
  12   2.0000      -0.966224       -26.2923
  13   2.0000      -0.811159       -22.0728
  14   2.0000      -0.736669       -20.0458
  15   2.0000      -0.693871       -18.8812
  16   2.0000      -0.642457       -17.4821
  17   2.0000      -0.589140       -16.0313
  18   2.0000      -0.540868       -14.7178
  19   2.0000      -0.510007       -13.8780
  20   2.0000      -0.493995       -13.4423
  21   2.0000      -0.487598       -13.2682
  22   2.0000      -0.458432       -12.4746
  23   2.0000      -0.452629       -12.3167
  24   2.0000      -0.432241       -11.7619
  25   2.0000      -0.410648       -11.1743
  26   2.0000      -0.391065       -10.6414
  27   2.0000      -0.366604        -9.9758
  28   2.0000      -0.344994        -9.3878
  29   2.0000      -0.332702        -9.0533
  30   2.0000      -0.324927        -8.8417
  31   2.0000      -0.273566        -7.4441
  32   2.0000      -0.260019        -7.0755
  33   2.0000      -0.257783        -7.0146
  34   2.0000      -0.236259        -6.4289
  35   2.0000      -0.223452        -6.0804
  36   0.0000      -0.115671        -3.1476
  37   0.0000      -0.050939        -1.3861
  38   0.0000      -0.026656        -0.7253
  39   0.0000       0.008029         0.2185
  40   0.0000       0.037715         1.0263

MULLIKEN ATOMIC CHARGES
-----------------------
   0 C :   -0.054254
   1 C :   -0.116994
   2 C :    0.213281
   3 C :   -0.241226
   4 C :    0.247207
   5 C :   -0.087454
   6 O :   -0.318666
   7 N :    0.198221
   8 O :   -0.215627
   9 O :   -0.207656
  10 H :    0.071586
  11 H :    0.070289
  12 H :    0.054412
  13 H :    0.062234
  14 H :    0.324647
Sum of atomic charges:   -0.0000000

LOEWDIN ATOMIC CHARGES
----------------------
   0 C :   -0.104640
   1 C :   -0.128544
   2 C :   -0.034070
   3 C :   -0.160760
   4 C :    0.025887
   5 C :   -0.124180
   6 O :   -0.218887
   7 N :    0.251141
   8 O :   -0.186847
   9 O :   -0.177335
  10 H :    0.133907
  11 H :    0.142424
  12 H :    0.139912
  13 H :    0.137779
  14 H :    0.304212

  Mayer bond orders larger than 0.100000
B(  0-C ,  1-C ) :   1.3044 B(  0-C ,  5-C ) :   1.3726 B(  0-C , 10-H ) :   0.9633
B(  1-C ,  2-C ) :   1.3918 B(  1-C , 11-H ) :   0.9506 B(  2-C ,  3-C ) :   1.3568
B(  2-C ,  7-N ) :   0.8675 B(  3-C ,  4-C ) :   1.2460 B(  3-C , 12-H ) :   0.9400
B(  4-C ,  5-C ) :   1.3522 B(  4-C ,  6-O ) :   1.2061 B(  5-C , 13-H ) :   0.9639
B(  6-O , 14-H ) :   0.8387 B(  7-N ,  8-O ) :   1.5473 B(  7-N ,  9-O ) :   1.5582
B(  8-O ,  9-O ) :   0.2984

Dispersion correction           -0.016057071
FINAL SINGLE POINT ENERGY      -510.971482172938

DIPOLE MOMENT
-------------

Method             : SCF
Type of density    : Electron Density
Multiplicity       :   1
Irrep              :   0
Energy             :  -511.0219363063025071 Eh
Relativity type    :
Basis              : AO
                                X                 Y                 Z
Electronic contribution:      4.281194663       2.047979290      -0.000481044
Nuclear contribution   :     -5.633817242      -2.016955742       0.000375271
                        -----------------------------------------
Total Dipole Moment    :     -1.352622579       0.031023547      -0.000105773
                        -----------------------------------------
Magnitude (a.u.)       :      1.352978312
Magnitude (Debye)      :      3.438997569

Rotational constants in cm-1:             0.092116             0.033405             0.024515
Rotational constants in MHz :          2761.581572          1001.447518           734.934299

                             ****ORCA TERMINATED NORMALLY****
TOTAL RUN TIME: 0 days 0 hours 0 minutes 15 seconds 708 msec
