                         Program Version 6.0.1  -  RELEASE   -
|  1> ! r2scan-3c def2/J RI DEFGRID2 scfconv6 printgap
|  2> %output
|  3>     printlevel normal
|  4> end
|  5> * xyz 0 1
|  6> C -1.8977502775 0.0454081174 -0.445035974
|  7> C -0.8704761973 -0.2293049221 0.6531611801
|  8> C 0.537615186 -0.0885473237 0.101479807
|  9> O 1.2355944735 -1.0242156373 -0.2127937217
| 10> N 0.9500025717 1.195273549 -0.0329088068
| 11> H -1.8052248829 1.0618199844 -0.8225632466
| 12> H -1.7508296552 -0.6431051425 -1.2735360819
| 13> H -2.9056119693 -0.0884979265 -0.0590652543
| 14> H -0.9895176044 -1.2493108966 1.0183626905
| 15> H -1.012958867 0.4630341181 1.4849694779
| 16> H 0.3705820019 1.9742930606 0.2209584926
| 17> H 1.8595109215 1.37622466 -0.4234272562
| 18> *
| 19>
| 20>                          ****END OF INPUT****

CARTESIAN COORDINATES (ANGSTROEM)
---------------------------------
  C     -1.897750    0.045408   -0.445036
  C     -0.870476   -0.229305    0.653161
  C      0.537615   -0.088547    0.101480
  O      1.235594   -1.024216   -0.212794
  N      0.950003    1.195274   -0.032909
  H     -1.805225    1.061820   -0.822563
  H     -1.750830   -0.643105   -1.273536
  H     -2.905612   -0.088498   -0.059065
  H     -0.989518   -1.249311    1.018363
  H     -1.012959    0.463034    1.484969
  H      0.370582    1.974293    0.220958
  H      1.859511    1.376225   -0.423427

 Total Charge           Charge          ....    0
 Multiplicity           Mult            ....    1
 Number of Electrons    NEL             ....   40
 Basis Dimension        Dim             ....  140

ORBITAL ENERGIES
----------------

  NO   OCC          E(Eh)            E(eV)
   0   2.0000     -18.910189      -514.5724
   1   2.0000     -14.180567      -385.8728
   2   2.0000     -10.127033      -275.5706
   3   2.0000     -10.040930      -273.2276
   4   2.0000     -10.033313      -273.0203
   5   2.0000      -1.001598       -27.2549
   6   2.0000      -0.874219       -23.7887
   7   2.0000      -0.748596       -20.3703
   8   2.0000      -0.623850       -16.9758
   9   2.0000      -0.553458       -15.0604
  10   2.0000      -0.508945       -13.8491
  11   2.0000      -0.450547       -12.2600
  12   2.0000      -0.412235       -11.2175
  13   2.0000      -0.401146       -10.9157
  14   2.0000      -0.376788       -10.2529
  15   2.0000      -0.343717        -9.3530
  16   2.0000      -0.332958        -9.0602
  17   2.0000      -0.326235        -8.8773
  18   2.0000      -0.245301        -6.6750
  19   2.0000      -0.215854        -5.8737
  20   0.0000       0.000739         0.0201
  21   0.0000       0.066357         1.8057
  22   0.0000       0.115334         3.1384
  23   0.0000       0.123887         3.3711
  24   0.0000       0.126918         3.4536

MULLIKEN ATOMIC CHARGES
-----------------------
   0 C :   -0.462920
   1 C :   -0.318656
   2 C :    0.325138
   3 O :   -0.405618
   4 N :   -0.385214
   5 H :    0.137335
   6 H :    0.162358
   7 H :    0.152118
   8 H :    0.165015
   9 H :    0.138871
  10 H :    0.248336
  11 H :    0.243238
Sum of atomic charges:   -0.0000000

LOEWDIN ATOMIC CHARGES
----------------------
   0 C :   -0.398051
   1 C :   -0.256476
   2 C :    0.292412
   3 O :   -0.445889
   4 N :   -0.510178
   5 H :    0.149200
   6 H :    0.161315
   7 H :    0.152374
   8 H :    0.176186
   9 H :    0.162736
  10 H :    0.256439
  11 H :    0.259930

  Mayer bond orders larger than 0.100000
B(  0-C ,  1-C ) :   0.9118 B(  0-C ,  5-H ) :   0.9788 B(  0-C ,  6-H ) :   0.9737
B(  0-C ,  7-H ) :   0.9696 B(  1-C ,  2-C ) :   0.9401 B(  1-C ,  8-H ) :   0.9594
B(  1-C ,  9-H ) :   0.9705 B(  2-C ,  3-O ) :   1.9817 B(  2-C ,  4-N ) :   1.0582
B(  4-N , 10-H ) :   0.9211 B(  4-N , 11-H ) :   0.9181

Dispersion correction           -0.002478581
FINAL SINGLE POINT ENERGY      -248.471303645304

DIPOLE MOMENT
-------------

Method             : SCF
Type of density    : Electron Density
Multiplicity       :   1
Irrep              :   0
Energy             :  -248.4771185402437084 Eh
Relativity type    :
Basis              : AO
                                X                 Y                 Z
Electronic contribution:      5.152402374      -1.368177667       0.097826478
Nuclear contribution   :     -5.825058790       2.706851303       0.133354817
                        -----------------------------------------
Total Dipole Moment    :     -0.672656417       1.338673636       0.231181295
                        -----------------------------------------
Magnitude (a.u.)       :      1.515901893
Magnitude (Debye)      :      3.853116400

Rotational constants in cm-1:             0.276723             0.132101             0.105254
Rotational constants in MHz :          8295.949737          3960.295537          3155.450385

                             ****ORCA TERMINATED NORMALLY****
TOTAL RUN TIME: 0 days 0 hours 0 minutes 28 seconds 364 msec
