                         Program Version 6.0.1  -  RELEASE   -
|  1> ! pbe def2-sv(p) def2/J RI DEFGRID1 loosescf d4 GCP(DFT/SV(P)) printgap
|  2> %output
|  3>     printlevel normal
|  4> end
|  5> * xyz 0 1
|  6> C -2.4434971892 -0.8634841468 0.0225311926
|  7> C -1.0579515187 -0.5263212669 0.5897220068
|  8> H -1.0075405922 -0.8064146783 1.6540228002
|  9> C -0.7571754129 0.9844017655 0.4880913305
| 10> H -1.6361242998 1.493489906 0.0717616028
| 11> C 0.431870164 1.2248164611 -0.4630636424
| 12> H 0.7205471607 2.2885624786 -0.3998600514
| 13> C 1.6384902537 0.3853097064 0.006920159
| 14> H 2.4256171103 0.4015944839 -0.7572500651
| 15> C 1.2064388117 -1.0981437363 0.2186376264
| 16> H 1.3641542725 -1.350174185 1.2828128318
| 17> O -0.134054464 -1.2996980363 -0.1455874258
| 18> O 1.9686566823 -1.9800500643 -0.5295056329
| 19> O 2.2114696197 0.9430672413 1.1553168521
| 20> O 0.0146443385 0.9054782953 -1.7674749378
| 21> O -0.4685195406 1.4573309706 1.7886832067
| 22> O -2.7019415558 -0.2109705833 -1.188243164
| 23> H -3.2193744071 -0.5456144157 0.7229369343
| 24> H -2.4938536182 -1.9542309188 -0.1009738255
| 25> H 1.5171583237 -2.1077294063 -1.3730955245
| 26> H 1.5196663908 1.0125397038 1.832473685
| 27> H 0.7486468033 1.0480470226 -2.3753780602
| 28> H -0.4739712439 2.4215451016 1.7857776896
| 29> H -1.8965643123 -0.2375153206 -1.7231166578
| 30> *
| 31>
| 32>                          ****END OF INPUT****

CARTESIAN COORDINATES (ANGSTROEM)
---------------------------------
  C     -2.443497   -0.863484    0.022531
  C     -1.057952   -0.526321    0.589722
  H     -1.007541   -0.806415    1.654023
  C     -0.757175    0.984402    0.488091
  H     -1.636124    1.493490    0.071762
  C      0.431870    1.224816   -0.463064
  H      0.720547    2.288562   -0.399860
  C      1.638490    0.385310    0.006920
  H      2.425617    0.401594   -0.757250
  C      1.206439   -1.098144    0.218638
  H      1.364154   -1.350174    1.282813
  O     -0.134054   -1.299698   -0.145587
  O      1.968657   -1.980050   -0.529506
  O      2.211470    0.943067    1.155317
  O      0.014644    0.905478   -1.767475
  O     -0.468520    1.457331    1.788683
  O     -2.701942   -0.210971   -1.188243
  H     -3.219374   -0.545614    0.722937
  H     -2.493854   -1.954231   -0.100974
  H      1.517158   -2.107729   -1.373096
  H      1.519666    1.012540    1.832474
  H      0.748647    1.048047   -2.375378
  H     -0.473971    2.421545    1.785778
  H     -1.896564   -0.237515   -1.723117

 Total Charge           Charge          ....    0
 Multiplicity           Mult            ....    1
 Number of Electrons    NEL             ....   96
 Basis Dimension        Dim             ....  192

ORBITAL ENERGIES
----------------

  NO   OCC          E(Eh)            E(eV)
   0   2.0000     -18.784648      -511.1562
   1   2.0000     -18.777060      -510.9498
   2   2.0000     -18.775073      -510.8957
   3   2.0000     -18.753799      -510.3168
   4   2.0000     -18.743999      -510.0501
   5   2.0000     -18.741116      -509.9717
   6   2.0000      -9.985259      -271.7127
   7   2.0000      -9.955704      -270.9085
   8   2.0000      -9.954165      -270.8666
   9   2.0000      -9.951267      -270.7877
  10   2.0000      -9.939230      -270.4602
  11   2.0000      -9.932805      -270.2854
  12   2.0000      -0.991468       -26.9792
  13   2.0000      -0.961406       -26.1612
  14   2.0000      -0.949577       -25.8393
  15   2.0000      -0.928131       -25.2557
  16   2.0000      -0.922299       -25.0970
  17   2.0000      -0.911141       -24.7934
  18   2.0000      -0.708584       -19.2815
  19   2.0000      -0.686253       -18.6739
  20   2.0000      -0.623089       -16.9551
  21   2.0000      -0.596068       -16.2198
  22   2.0000      -0.570668       -15.5287
  23   2.0000      -0.534154       -14.5351
  24   2.0000      -0.506067       -13.7708
  25   2.0000      -0.496672       -13.5151
  26   2.0000      -0.474694       -12.9171
  27   2.0000      -0.468375       -12.7451
  28   2.0000      -0.458878       -12.4867
  29   2.0000      -0.445729       -12.1289
  30   2.0000      -0.418268       -11.3816
  31   2.0000      -0.396721       -10.7953
  32   2.0000      -0.383740       -10.4421
  33   2.0000      -0.377438       -10.2706
  34   2.0000      -0.362983        -9.8773
  35   2.0000      -0.355921        -9.6851
  36   2.0000      -0.341210        -9.2848
  37   2.0000      -0.329968        -8.9789
  38   2.0000      -0.308292        -8.3890
  39   2.0000      -0.301248        -8.1974
  40   2.0000      -0.298720        -8.1286
  41   2.0000      -0.275557        -7.4983
  42   2.0000      -0.258083        -7.0228
  43   2.0000      -0.251057        -6.8316
  44   2.0000      -0.239689        -6.5223
  45   2.0000      -0.228921        -6.2292
  46   2.0000      -0.214792        -5.8448
  47   2.0000      -0.194704        -5.2982
  48   0.0000      -0.001985        -0.0540
  49   0.0000       0.008434         0.2295
  50   0.0000       0.042769         1.1638
  51   0.0000       0.052409         1.4261
  52   0.0000       0.063676         1.7327

MULLIKEN ATOMIC CHARGES
-----------------------
   0 C :    0.081346
   1 C :   -0.003762
   2 H :    0.072623
   3 C :   -0.008862
   4 H :    0.096595
   5 C :    0.033793
   6 H :    0.063004
   7 C :    0.023069
   8 H :    0.059941
   9 C :    0.236071
  10 H :    0.050220
  11 O :   -0.303413
  12 O :   -0.390518
  13 O :   -0.426314
  14 O :   -0.413717
  15 O :   -0.414640
  16 O :   -0.439986
  17 H :    0.089301
  18 H :    0.084652
  19 H :    0.294583
  20 H :    0.292810
  21 H :    0.307563
  22 H :    0.311383
  23 H :    0.304260
Sum of atomic charges:   -0.0000000

LOEWDIN ATOMIC CHARGES
----------------------
   0 C :   -0.119243
   1 C :   -0.070953
   2 H :    0.112339
   3 C :   -0.075652
   4 H :    0.116651
   5 C :   -0.085988
   6 H :    0.098234
   7 C :   -0.097517
   8 H :    0.111042
   9 C :    0.008620
  10 H :    0.094553
  11 O :   -0.149663
  12 O :   -0.300657
  13 O :   -0.317152
  14 O :   -0.311306
  15 O :   -0.304543
  16 O :   -0.334534
  17 H :    0.114923
  18 H :    0.104657
  19 H :    0.282846
  20 H :    0.266368
  21 H :    0.290100
  22 H :    0.292406
  23 H :    0.274466

  Mayer bond orders larger than 0.100000
B(  0-C ,  1-C ) :   1.0570 B(  0-C , 16-O ) :   1.0852 B(  0-C , 17-H ) :   0.9228
B(  0-C , 18-H ) :   0.9116 B(  1-C ,  2-H ) :   0.8748 B(  1-C ,  3-C ) :   0.9844
B(  1-C , 11-O ) :   1.0152 B(  3-C ,  4-H ) :   0.8890 B(  3-C ,  5-C ) :   1.0091
B(  3-C , 15-O ) :   1.0291 B(  5-C ,  6-H ) :   0.8976 B(  5-C ,  7-C ) :   0.9602
B(  5-C , 14-O ) :   1.0276 B(  7-C ,  8-H ) :   0.8945 B(  7-C ,  9-C ) :   0.9301
B(  7-C , 13-O ) :   1.0619 B(  9-C , 10-H ) :   0.8851 B(  9-C , 11-O ) :   1.0369
B(  9-C , 12-O ) :   1.1263 B( 12-O , 19-H ) :   0.8452 B( 13-O , 20-H ) :   0.8106
B( 14-O , 21-H ) :   0.8416 B( 15-O , 20-H ) :   0.1088 B( 15-O , 22-H ) :   0.8388
B( 16-O , 23-H ) :   0.8167

Dispersion correction           -0.025451874
FINAL SINGLE POINT ENERGY      -685.688160122902

DIPOLE MOMENT
-------------

Method             : SCF
Type of density    : Electron Density
Multiplicity       :   1
Irrep              :   0
Energy             :  -685.8210370362540971 Eh
Relativity type    :
Basis              : AO
                                X                 Y                 Z
Electronic contribution:      2.169566181      -0.741220018      -0.845770637
Nuclear contribution   :     -2.268101820       1.558470336       0.571595190
                        -----------------------------------------
Total Dipole Moment    :     -0.098535639       0.817250318      -0.274175446
                        -----------------------------------------
Magnitude (a.u.)       :      0.867628682
Magnitude (Debye)      :      2.205336849

Rotational constants in cm-1:             0.040985             0.028255             0.023501
Rotational constants in MHz :          1228.707180           847.055859           704.551954

                             ****ORCA TERMINATED NORMALLY****
TOTAL RUN TIME: 0 days 0 hours 0 minutes 10 seconds 308 msec
