                         Program Version 6.0.1  -  RELEASE   -
|  1> ! r2scan-3c def2/J RI DEFGRID2 scfconv6 printgap
|  2> %output
|  3>     printlevel normal
|  4> end
|  5> * xyz 0 1
|  6> C -2.1592529644 -0.9031555772 -0.191369071
|  7> C -1.1279770651 -0.3291472715 0.8024582193
|  8> H -1.6261285548 -0.315517278 1.7805684873
|  9> C -0.7263883011 1.1370692627 0.5074061837
| 10> H -1.5854336898 1.6464270826 0.0547456517
| 11> C 0.4698358263 1.2624236551 -0.4556005604
| 12> H 0.8653790682 2.2851089311 -0.3451315392
| 13> C 1.584838346 0.2913382932 -0.0413052935
| 14> H 2.3593356959 0.26672292 -0.8275011088
| 15> C 1.0513868351 -1.1527685992 0.1274616226
| 16> H 1.8340302052 -1.7472505196 0.628650871
| 17> O -0.0219839873 -1.1978052964 1.0215791702
| 18> O 0.829480712 -1.7545609092 -1.1008635778
| 19> O 2.1176846122 0.7833007732 1.1679437313
| 20> O 0.024223224 1.0607420757 -1.7768928829
| 21> O -0.4593093841 1.8252885248 1.6975178645
| 22> O -1.7307370415 -0.9939814336 -1.5274399444
| 23> H -3.0682748355 -0.2917217486 -0.1219158957
| 24> H -2.3969189123 -1.9254474475 0.1133326766
| 25> H -0.1086827154 -1.6247040009 -1.3691035763
| 26> H 2.7193932062 0.1286441677 1.5410882156
| 27> H 0.7827814582 0.9183777946 -2.3549863937
| 28> H 0.4055249251 1.5326865824 2.0232774306
| 29> H -1.4198227415 -0.1196668719 -1.8241592951
| 30> *
| 31>
| 32>                          ****END OF INPUT****

CARTESIAN COORDINATES (ANGSTROEM)
---------------------------------
  C     -2.159253   -0.903156   -0.191369
  C     -1.127977   -0.329147    0.802458
  H     -1.626129   -0.315517    1.780568
  C     -0.726388    1.137069    0.507406
  H     -1.585434    1.646427    0.054746
  C      0.469836    1.262424   -0.455601
  H      0.865379    2.285109   -0.345132
  C      1.584838    0.291338   -0.041305
  H      2.359336    0.266723   -0.827501
  C      1.051387   -1.152769    0.127462
  H      1.834030   -1.747251    0.628651
  O     -0.021984   -1.197805    1.021579
  O      0.829481   -1.754561   -1.100864
  O      2.117685    0.783301    1.167944
  O      0.024223    1.060742   -1.776893
  O     -0.459309    1.825289    1.697518
  O     -1.730737   -0.993981   -1.527440
  H     -3.068275   -0.291722   -0.121916
  H     -2.396919   -1.925447    0.113333
  H     -0.108683   -1.624704   -1.369104
  H      2.719393    0.128644    1.541088
  H      0.782781    0.918378   -2.354986
  H      0.405525    1.532687    2.023277
  H     -1.419823   -0.119667   -1.824159

 Total Charge           Charge          ....    0
 Multiplicity           Mult            ....    1
 Number of Electrons    NEL             ....   96
 Basis Dimension        Dim             ....  318

ORBITAL ENERGIES
----------------

  NO   OCC          E(Eh)            E(eV)
   0   2.0000     -18.990324      -516.7530
   1   2.0000     -18.984700      -516.6000
   2   2.0000     -18.970092      -516.2025
   3   2.0000     -18.965523      -516.0781
   4   2.0000     -18.950252      -515.6626
   5   2.0000     -18.940765      -515.4044
   6   2.0000     -10.137947      -275.8676
   7   2.0000     -10.107748      -275.0458
   8   2.0000     -10.103728      -274.9364
   9   2.0000     -10.099501      -274.8214
  10   2.0000     -10.094606      -274.6882
  11   2.0000     -10.088220      -274.5144
  12   2.0000      -1.050840       -28.5948
  13   2.0000      -1.027514       -27.9601
  14   2.0000      -1.019905       -27.7530
  15   2.0000      -1.001855       -27.2619
  16   2.0000      -0.995583       -27.0912
  17   2.0000      -0.967047       -26.3147
  18   2.0000      -0.756213       -20.5776
  19   2.0000      -0.740795       -20.1581
  20   2.0000      -0.669019       -18.2049
  21   2.0000      -0.635534       -17.2938
  22   2.0000      -0.616315       -16.7708
  23   2.0000      -0.555371       -15.1124
  24   2.0000      -0.522279       -14.2119
  25   2.0000      -0.514145       -13.9906
  26   2.0000      -0.504121       -13.7178
  27   2.0000      -0.486720       -13.2443
  28   2.0000      -0.468510       -12.7488
  29   2.0000      -0.459316       -12.4986
  30   2.0000      -0.448960       -12.2168
  31   2.0000      -0.443920       -12.0797
  32   2.0000      -0.416905       -11.3446
  33   2.0000      -0.401975       -10.9383
  34   2.0000      -0.398935       -10.8556
  35   2.0000      -0.374305       -10.1853
  36   2.0000      -0.362372        -9.8606
  37   2.0000      -0.351009        -9.5514
  38   2.0000      -0.336172        -9.1477
  39   2.0000      -0.322930        -8.7874
  40   2.0000      -0.315770        -8.5925
  41   2.0000      -0.302722        -8.2375
  42   2.0000      -0.286135        -7.7861
  43   2.0000      -0.274716        -7.4754
  44   2.0000      -0.268281        -7.3003
  45   2.0000      -0.252271        -6.8646
  46   2.0000      -0.229267        -6.2387
  47   2.0000      -0.223467        -6.0808
  48   0.0000       0.013468         0.3665
  49   0.0000       0.042828         1.1654
  50   0.0000       0.067447         1.8353
  51   0.0000       0.080811         2.1990
  52   0.0000       0.083460         2.2711

MULLIKEN ATOMIC CHARGES
-----------------------
   0 C :   -0.204140
   1 C :    0.021671
   2 H :    0.174522
   3 C :   -0.173853
   4 H :    0.171212
   5 C :    0.050467
   6 H :    0.161991
   7 C :   -0.084944
   8 H :    0.155422
   9 C :   -0.115365
  10 H :    0.134110
  11 O :   -0.163903
  12 O :   -0.396695
  13 O :   -0.408083
  14 O :   -0.420652
  15 O :   -0.402661
  16 O :   -0.475750
  17 H :    0.138966
  18 H :    0.156922
  19 H :    0.403618
  20 H :    0.301158
  21 H :    0.309020
  22 H :    0.334074
  23 H :    0.332891
Sum of atomic charges:    0.0000000

LOEWDIN ATOMIC CHARGES
----------------------
   0 C :    0.025762
   1 C :    0.100374
   2 H :    0.212603
   3 C :    0.114900
   4 H :    0.199668
   5 C :    0.128538
   6 H :    0.195398
   7 C :    0.114489
   8 H :    0.180184
   9 C :    0.278355
  10 H :    0.201294
  11 O :   -0.646856
  12 O :   -0.520226
  13 O :   -0.585529
  14 O :   -0.590044
  15 O :   -0.569575
  16 O :   -0.612370
  17 H :    0.170534
  18 H :    0.189581
  19 H :    0.290384
  20 H :    0.276396
  21 H :    0.278741
  22 H :    0.283927
  23 H :    0.283472

  Mayer bond orders larger than 0.100000
B(  0-C ,  1-C ) :   0.8893 B(  0-C , 16-O ) :   0.9679 B(  0-C , 17-H ) :   0.9781
B(  0-C , 18-H ) :   0.9727 B(  1-C ,  2-H ) :   0.9541 B(  1-C ,  3-C ) :   0.8201
B(  1-C , 11-O ) :   0.8969 B(  3-C ,  4-H ) :   0.9931 B(  3-C ,  5-C ) :   0.8583
B(  3-C , 15-O ) :   0.9845 B(  5-C ,  6-H ) :   0.9566 B(  5-C ,  7-C ) :   0.8836
B(  5-C , 14-O ) :   0.9032 B(  7-C ,  8-H ) :   0.9701 B(  7-C ,  9-C ) :   0.8973
B(  7-C , 13-O ) :   0.9031 B(  9-C , 10-H ) :   0.9915 B(  9-C , 11-O ) :   0.9894
B(  9-C , 12-O ) :   1.0520 B( 12-O , 19-H ) :   0.7598 B( 13-O , 20-H ) :   0.8936
B( 14-O , 21-H ) :   0.8860 B( 15-O , 22-H ) :   0.8390 B( 16-O , 23-H ) :   0.8176

Dispersion correction           -0.008894865
FINAL SINGLE POINT ENERGY      -687.073803460858

DIPOLE MOMENT
-------------

Method             : SCF
Type of density    : Electron Density
Multiplicity       :   1
Irrep              :   0
Energy             :  -687.0876137612572165 Eh
Relativity type    :
Basis              : AO
                                X                 Y                 Z
Electronic contribution:      1.741798872      -0.366649360       0.537621895
Nuclear contribution   :     -1.150971484       0.702957072      -0.665459626
                        -----------------------------------------
Total Dipole Moment    :      0.590827389       0.336307712      -0.127837731
                        -----------------------------------------
Magnitude (a.u.)       :      0.691753110
Magnitude (Debye)      :      1.758296672

Rotational constants in cm-1:             0.040447             0.031636             0.027729
Rotational constants in MHz :          1212.577313           948.415257           831.309352

                             ****ORCA TERMINATED NORMALLY****
TOTAL RUN TIME: 0 days 0 hours 0 minutes 41 seconds 451 msec
