                         Program Version 6.0.1  -  RELEASE   -
|  1> ! pbe def2-sv(p) def2/J RI DEFGRID1 loosescf d4 GCP(DFT/SV(P)) printgap
|  2> %output
|  3>     printlevel normal
|  4> end
|  5> * xyz 0 1
|  6> C -3.0021031423 -1.0212960618 1.7429917344
|  7> N -2.1304787994 -0.2905489798 0.8574968519
|  8> C -2.3171775293 -0.2810009176 -0.4838255553
|  9> O -3.2151930925 -0.8427937041 -1.0499665914
| 10> O -1.4180658068 0.4511683313 -1.1947274306
| 11> C -0.2381331051 0.8993870433 -0.6262345128
| 12> C -0.0443095609 2.249793353 -0.4849733912
| 13> C 1.1605060304 2.7397394132 0.0383731571
| 14> C 2.148895856 1.8787388309 0.4233152677
| 15> C 1.9857438599 0.4842741777 0.2823493125
| 16> C 0.7769171337 -0.0268013626 -0.2607011213
| 17> C 0.6313471491 -1.4200692447 -0.4267328124
| 18> C 1.6337549919 -2.2720754756 -0.0550860088
| 19> C 2.8220746912 -1.7722085372 0.4984989072
| 20> C 2.9951695969 -0.4261176719 0.6596035761
| 21> H -3.4910486463 -0.3462185681 2.447662635
| 22> H -2.4400489977 -1.7754927994 2.2974211407
| 23> H -3.7565927963 -1.5094567695 1.1288478718
| 24> H -1.3715692276 0.2348749805 1.262755101
| 25> H -0.8273075658 2.9279758664 -0.7867391175
| 26> H 1.2923028796 3.8063550867 0.1384746229
| 27> H 3.074837412 2.2524314931 0.8349233489
| 28> H -0.2772139386 -1.8058810137 -0.8653077883
| 29> H 1.5167656348 -3.3369147654 -0.1895699417
| 30> H 3.6017712418 -2.4605988712 0.7891711795
| 31> H 3.9123818399 -0.0352095499 1.0758368652
| 32> *
| 33>
| 34>                          ****END OF INPUT****

CARTESIAN COORDINATES (ANGSTROEM)
---------------------------------
  C     -3.002103   -1.021296    1.742992
  N     -2.130479   -0.290549    0.857497
  C     -2.317178   -0.281001   -0.483826
  O     -3.215193   -0.842794   -1.049967
  O     -1.418066    0.451168   -1.194727
  C     -0.238133    0.899387   -0.626235
  C     -0.044310    2.249793   -0.484973
  C      1.160506    2.739739    0.038373
  C      2.148896    1.878739    0.423315
  C      1.985744    0.484274    0.282349
  C      0.776917   -0.026801   -0.260701
  C      0.631347   -1.420069   -0.426733
  C      1.633755   -2.272075   -0.055086
  C      2.822075   -1.772209    0.498499
  C      2.995170   -0.426118    0.659604
  H     -3.491049   -0.346219    2.447663
  H     -2.440049   -1.775493    2.297421
  H     -3.756593   -1.509457    1.128848
  H     -1.371569    0.234875    1.262755
  H     -0.827308    2.927976   -0.786739
  H      1.292303    3.806355    0.138475
  H      3.074837    2.252431    0.834923
  H     -0.277214   -1.805881   -0.865308
  H      1.516766   -3.336915   -0.189570
  H      3.601771   -2.460599    0.789171
  H      3.912382   -0.035210    1.075837

 Total Charge           Charge          ....    0
 Multiplicity           Mult            ....    1
 Number of Electrons    NEL             ....  106
 Basis Dimension        Dim             ....  232

ORBITAL ENERGIES
----------------

  NO   OCC          E(Eh)            E(eV)
   0   2.0000     -18.804493      -511.6963
   1   2.0000     -18.716365      -509.2982
   2   2.0000     -14.020871      -381.5273
   3   2.0000     -10.024552      -272.7819
   4   2.0000      -9.967185      -271.2209
   5   2.0000      -9.920806      -269.9589
   6   2.0000      -9.918876      -269.9063
   7   2.0000      -9.917604      -269.8717
   8   2.0000      -9.908298      -269.6185
   9   2.0000      -9.906516      -269.5700
  10   2.0000      -9.905709      -269.5481
  11   2.0000      -9.905614      -269.5455
  12   2.0000      -9.905157      -269.5330
  13   2.0000      -9.905110      -269.5318
  14   2.0000      -9.904557      -269.5167
  15   2.0000      -1.013883       -27.5892
  16   2.0000      -0.922751       -25.1093
  17   2.0000      -0.840572       -22.8731
  18   2.0000      -0.807349       -21.9691
  19   2.0000      -0.758277       -20.6338
  20   2.0000      -0.708949       -19.2915
  21   2.0000      -0.682468       -18.5709
  22   2.0000      -0.665681       -18.1141
  23   2.0000      -0.641135       -17.4462
  24   2.0000      -0.588604       -16.0167
  25   2.0000      -0.569702       -15.5024
  26   2.0000      -0.565089       -15.3769
  27   2.0000      -0.535976       -14.5847
  28   2.0000      -0.517028       -14.0691
  29   2.0000      -0.475407       -12.9365
  30   2.0000      -0.462096       -12.5743
  31   2.0000      -0.457583       -12.4515
  32   2.0000      -0.438230       -11.9248
  33   2.0000      -0.425896       -11.5892
  34   2.0000      -0.409168       -11.1340
  35   2.0000      -0.394083       -10.7235
  36   2.0000      -0.391157       -10.6439
  37   2.0000      -0.382889       -10.4189
  38   2.0000      -0.371753       -10.1159
  39   2.0000      -0.368997       -10.0409
  40   2.0000      -0.361398        -9.8341
  41   2.0000      -0.355400        -9.6709
  42   2.0000      -0.349268        -9.5041
  43   2.0000      -0.338014        -9.1978
  44   2.0000      -0.316220        -8.6048
  45   2.0000      -0.310326        -8.4444
  46   2.0000      -0.304186        -8.2773
  47   2.0000      -0.274239        -7.4624
  48   2.0000      -0.254835        -6.9344
  49   2.0000      -0.240723        -6.5504
  50   2.0000      -0.226039        -6.1508
  51   2.0000      -0.217265        -5.9121
  52   2.0000      -0.205336        -5.5875
  53   0.0000      -0.082302        -2.2395
  54   0.0000      -0.053875        -1.4660
  55   0.0000      -0.016771        -0.4564
  56   0.0000       0.025046         0.6815
  57   0.0000       0.035869         0.9760

MULLIKEN ATOMIC CHARGES
-----------------------
   0 C :   -0.180110
   1 N :   -0.324438
   2 C :    0.185356
   3 O :   -0.191435
   4 O :   -0.207678
   5 C :    0.091376
   6 C :   -0.116898
   7 C :   -0.037659
   8 C :   -0.112580
   9 C :    0.141180
  10 C :    0.083437
  11 C :   -0.138149
  12 C :   -0.041255
  13 C :   -0.033476
  14 C :   -0.130750
  15 H :    0.114413
  16 H :    0.113832
  17 H :    0.140079
  18 H :    0.248751
  19 H :    0.051013
  20 H :    0.060417
  21 H :    0.042066
  22 H :    0.081214
  23 H :    0.059299
  24 H :    0.058099
  25 H :    0.043895
Sum of atomic charges:   -0.0000000

LOEWDIN ATOMIC CHARGES
----------------------
   0 C :   -0.257946
   1 N :   -0.189738
   2 C :    0.023478
   3 O :   -0.179745
   4 O :   -0.039756
   5 C :    0.023074
   6 C :   -0.137160
   7 C :   -0.119669
   8 C :   -0.116008
   9 C :   -0.024019
  10 C :   -0.046577
  11 C :   -0.112379
  12 C :   -0.117869
  13 C :   -0.119969
  14 C :   -0.108501
  15 H :    0.117284
  16 H :    0.116991
  17 H :    0.138616
  18 H :    0.239178
  19 H :    0.136069
  20 H :    0.128995
  21 H :    0.126577
  22 H :    0.137349
  23 H :    0.128301
  24 H :    0.127046
  25 H :    0.126375

  Mayer bond orders larger than 0.100000
B(  0-C ,  1-N ) :   1.0275 B(  0-C , 15-H ) :   0.9588 B(  0-C , 16-H ) :   0.9569
B(  0-C , 17-H ) :   0.9351 B(  1-N ,  2-C ) :   1.1955 B(  1-N , 18-H ) :   0.8379
B(  2-C ,  3-O ) :   2.0968 B(  2-C ,  4-O ) :   1.0356 B(  4-O ,  5-C ) :   1.0658
B(  5-C ,  6-C ) :   1.4756 B(  5-C , 10-C ) :   1.2023 B(  6-C ,  7-C ) :   1.2145
B(  6-C , 19-H ) :   0.9659 B(  7-C ,  8-C ) :   1.4402 B(  7-C , 20-H ) :   0.9625
B(  8-C ,  9-C ) :   1.2346 B(  8-C , 21-H ) :   0.9676 B(  9-C , 10-C ) :   1.2521
B(  9-C , 14-C ) :   1.2404 B( 10-C , 11-C ) :   1.2601 B( 11-C , 12-C ) :   1.4501
B( 11-C , 22-H ) :   0.9480 B( 12-C , 13-C ) :   1.2542 B( 12-C , 23-H ) :   0.9627
B( 13-C , 14-C ) :   1.4608 B( 13-C , 24-H ) :   0.9624 B( 14-C , 25-H ) :   0.9654

Dispersion correction           -0.033719371
FINAL SINGLE POINT ENERGY      -667.731523131618

DIPOLE MOMENT
-------------

Method             : SCF
Type of density    : Electron Density
Multiplicity       :   1
Irrep              :   0
Energy             :  -667.8068561935205025 Eh
Relativity type    :
Basis              : AO
                                X                 Y                 Z
Electronic contribution:      0.021874937       2.254518083      -6.162534663
Nuclear contribution   :      1.077647070      -1.928896723       7.602058481
                        -----------------------------------------
Total Dipole Moment    :      1.099522007       0.325621360       1.439523818
                        -----------------------------------------
Magnitude (a.u.)       :      1.840436561
Magnitude (Debye)      :      4.678017971

Rotational constants in cm-1:             0.031423             0.016704             0.012936
Rotational constants in MHz :           942.049013           500.769907           387.821874

                             ****ORCA TERMINATED NORMALLY****
TOTAL RUN TIME: 0 days 0 hours 0 minutes 19 seconds 101 msec
