                         Program Version 6.0.1  -  RELEASE   -
|  1> ! r2scan-3c def2/J RI DEFGRID2 scfconv6 printgap
|  2> %output
|  3>     printlevel normal
|  4> end
|  5> * xyz 0 1
|  6> C 4.8143687704 0.1154809643 -0.0004056082
|  7> C 4.5284174103 1.4679890093 -0.0008342198
|  8> C 3.2116868407 1.9015671922 -0.0006048709
|  9> C 2.1823659618 0.9772189272 3.71298e-05
| 10> C 2.4704271568 -0.3862153784 0.0003229795
| 11> C 3.786219061 -0.8142863319 0.0001564572
| 12> O 1.4750206062 -1.3402116956 0.0007075193
| 13> C 0.1950159005 -0.8675228807 0.000357934
| 14> C -0.8527256103 -1.7828104006 -1.30229e-05
| 15> C -2.173353245 -1.3566069579 -0.0003031042
| 16> C -2.4536602971 -0.002493162 -0.0001215151
| 17> C -1.4175367827 0.9317890829 0.0002529694
| 18> C -0.0940839604 0.5004202143 0.0003892995
| 19> O 0.8848989371 1.4478149928 0.000455741
| 20> Cl -1.7376547796 2.6182563296 0.0004004799
| 21> Cl -4.0828137426 0.5338099067 -0.000528297
| 22> Cl -0.4846206675 -3.4599971339 -5.45098e-05
| 23> H 5.8377239485 -0.2248369887 -0.0006140128
| 24> H 5.32633841 2.1935186043 -0.0012844548
| 25> H 2.9616310355 2.9499918287 -0.0007441993
| 26> H 3.9823632329 -1.8741438463 0.0003935995
| 27> H -2.9724605588 -2.0785679525 -0.0006799399
| 28> *
| 29>
| 30>                          ****END OF INPUT****

CARTESIAN COORDINATES (ANGSTROEM)
---------------------------------
  C      4.814369    0.115481   -0.000406
  C      4.528417    1.467989   -0.000834
  C      3.211687    1.901567   -0.000605
  C      2.182366    0.977219    0.000037
  C      2.470427   -0.386215    0.000323
  C      3.786219   -0.814286    0.000156
  O      1.475021   -1.340212    0.000708
  C      0.195016   -0.867523    0.000358
  C     -0.852726   -1.782810   -0.000013
  C     -2.173353   -1.356607   -0.000303
  C     -2.453660   -0.002493   -0.000122
  C     -1.417537    0.931789    0.000253
  C     -0.094084    0.500420    0.000389
  O      0.884899    1.447815    0.000456
  Cl    -1.737655    2.618256    0.000400
  Cl    -4.082814    0.533810   -0.000528
  Cl    -0.484621   -3.459997   -0.000055
  H      5.837724   -0.224837   -0.000614
  H      5.326338    2.193519   -0.001284
  H      2.961631    2.949992   -0.000744
  H      3.982363   -1.874144    0.000394
  H     -2.972461   -2.078568   -0.000680

 Total Charge           Charge          ....    0
 Multiplicity           Mult            ....    1
 Number of Electrons    NEL             ....  144
 Basis Dimension        Dim             ....  382

ORBITAL ENERGIES
----------------

  NO   OCC          E(Eh)            E(eV)
   0   2.0000    -101.236315     -2754.7802
   1   2.0000    -101.235945     -2754.7701
   2   2.0000    -101.235048     -2754.7457
   3   2.0000     -19.035498      -517.9822
   4   2.0000     -19.034148      -517.9455
   5   2.0000     -10.141150      -275.9547
   6   2.0000     -10.136999      -275.8418
   7   2.0000     -10.124545      -275.5029
   8   2.0000     -10.124200      -275.4935
   9   2.0000     -10.124118      -275.4913
  10   2.0000     -10.123764      -275.4816
  11   2.0000     -10.122849      -275.4567
  12   2.0000     -10.070476      -274.0316
  13   2.0000     -10.057280      -273.6725
  14   2.0000     -10.057085      -273.6672
  15   2.0000     -10.053095      -273.5586
  16   2.0000     -10.052606      -273.5453
  17   2.0000      -9.392117      -255.5725
  18   2.0000      -9.391585      -255.5580
  19   2.0000      -9.390990      -255.5418
  20   2.0000      -7.138636      -194.2522
  21   2.0000      -7.138278      -194.2424
  22   2.0000      -7.137490      -194.2210
  23   2.0000      -7.128328      -193.9717
  24   2.0000      -7.127832      -193.9582
  25   2.0000      -7.127655      -193.9533
  26   2.0000      -7.127188      -193.9406
  27   2.0000      -7.126924      -193.9335
  28   2.0000      -7.126524      -193.9226
  29   2.0000      -1.106491       -30.1091
  30   2.0000      -1.072703       -29.1897
  31   2.0000      -0.907984       -24.7075
  32   2.0000      -0.869308       -23.6551
  33   2.0000      -0.853362       -23.2212
  34   2.0000      -0.836308       -22.7571
  35   2.0000      -0.803755       -21.8713
  36   2.0000      -0.754185       -20.5224
  37   2.0000      -0.753297       -20.4983
  38   2.0000      -0.714990       -19.4559
  39   2.0000      -0.704525       -19.1711
  40   2.0000      -0.653521       -17.7832
  41   2.0000      -0.623320       -16.9614
  42   2.0000      -0.594514       -16.1775
  43   2.0000      -0.575171       -15.6512
  44   2.0000      -0.567422       -15.4403
  45   2.0000      -0.517305       -14.0766
  46   2.0000      -0.501973       -13.6594
  47   2.0000      -0.479968       -13.0606
  48   2.0000      -0.473077       -12.8731
  49   2.0000      -0.469745       -12.7824
  50   2.0000      -0.443138       -12.0584
  51   2.0000      -0.441188       -12.0053
  52   2.0000      -0.428929       -11.6718
  53   2.0000      -0.413114       -11.2414
  54   2.0000      -0.410517       -11.1707
  55   2.0000      -0.405855       -11.0439
  56   2.0000      -0.405504       -11.0343
  57   2.0000      -0.397714       -10.8223
  58   2.0000      -0.365284        -9.9399
  59   2.0000      -0.361031        -9.8241
  60   2.0000      -0.358611        -9.7583
  61   2.0000      -0.349858        -9.5201
  62   2.0000      -0.327466        -8.9108
  63   2.0000      -0.325418        -8.8551
  64   2.0000      -0.312102        -8.4927
  65   2.0000      -0.300747        -8.1837
  66   2.0000      -0.294264        -8.0073
  67   2.0000      -0.288408        -7.8480
  68   2.0000      -0.260788        -7.0964
  69   2.0000      -0.255384        -6.9493
  70   2.0000      -0.227390        -6.1876
  71   2.0000      -0.200847        -5.4653
  72   0.0000      -0.067989        -1.8501
  73   0.0000      -0.060118        -1.6359
  74   0.0000      -0.050462        -1.3731
  75   0.0000      -0.040448        -1.1006
  76   0.0000      -0.022220        -0.6046

MULLIKEN ATOMIC CHARGES
-----------------------
   0 C :   -0.124304
   1 C :   -0.125406
   2 C :   -0.323606
   3 C :    0.200721
   4 C :    0.206700
   5 C :   -0.325038
   6 O :   -0.081253
   7 C :    0.342670
   8 C :   -0.136140
   9 C :   -0.439224
  10 C :    0.218322
  11 C :   -0.345811
  12 C :    0.489935
  13 O :   -0.083943
  14 Cl:   -0.080440
  15 Cl:   -0.094323
  16 Cl:   -0.102351
  17 H :    0.152386
  18 H :    0.152449
  19 H :    0.160234
  20 H :    0.160212
  21 H :    0.178211
Sum of atomic charges:   -0.0000000

LOEWDIN ATOMIC CHARGES
----------------------
   0 C :   -0.159670
   1 C :   -0.160438
   2 C :   -0.114818
   3 C :    0.222416
   4 C :    0.222743
   5 C :   -0.115567
   6 O :   -0.569176
   7 C :    0.206413
   8 C :   -0.136847
   9 C :   -0.181456
  10 C :   -0.184931
  11 C :   -0.156318
  12 C :    0.216408
  13 O :   -0.569042
  14 Cl:    0.208046
  15 Cl:    0.168872
  16 Cl:    0.195419
  17 H :    0.171858
  18 H :    0.171889
  19 H :    0.186232
  20 H :    0.186115
  21 H :    0.191853

  Mayer bond orders larger than 0.100000
B(  0-C ,  1-C ) :   1.4135 B(  0-C ,  5-C ) :   1.3346 B(  0-C , 17-H ) :   0.9508
B(  1-C ,  2-C ) :   1.3339 B(  1-C , 18-H ) :   0.9509 B(  2-C ,  3-C ) :   1.3515
B(  2-C , 19-H ) :   0.9652 B(  3-C ,  4-C ) :   1.4601 B(  3-C , 13-O ) :   0.9055
B(  4-C ,  5-C ) :   1.3502 B(  4-C ,  6-O ) :   0.9034 B(  5-C , 20-H ) :   0.9651
B(  6-O ,  7-C ) :   1.0748 B(  7-C ,  8-C ) :   1.1193 B(  7-C , 10-C ) :   0.1028
B(  7-C , 11-C ) :  -0.1439 B(  7-C , 12-C ) :   1.3273 B(  7-C , 16-Cl) :  -0.1665
B(  8-C ,  9-C ) :   1.2536 B(  8-C , 11-C ) :   0.1090 B(  8-C , 12-C ) :  -0.1730
B(  8-C , 16-Cl) :   1.1855 B(  9-C , 10-C ) :   1.3021 B(  9-C , 15-Cl) :   0.1070
B(  9-C , 21-H ) :   0.9233 B( 10-C , 11-C ) :   1.1062 B( 10-C , 15-Cl) :   1.0421
B( 11-C , 12-C ) :   0.8402 B( 11-C , 14-Cl) :   1.3600 B( 12-C , 13-O ) :   1.0876
B( 12-C , 14-Cl) :  -0.1972

Dispersion correction           -0.011954908
FINAL SINGLE POINT ENERGY     -1991.125321146583

DIPOLE MOMENT
-------------

Method             : SCF
Type of density    : Electron Density
Multiplicity       :   1
Irrep              :   0
Energy             : -1991.1242278118620561 Eh
Relativity type    :
Basis              : AO
                                X                 Y                 Z
Electronic contribution:    -21.783967510      -1.328662346       0.002202731
Nuclear contribution   :     22.697497123       1.321140827      -0.002485999
                        -----------------------------------------
Total Dipole Moment    :      0.913529613      -0.007521519      -0.000283268
                        -----------------------------------------
Magnitude (a.u.)       :      0.913560620
Magnitude (Debye)      :      2.322086557

Rotational constants in cm-1:             0.018032             0.008583             0.005815
Rotational constants in MHz :           540.588111           257.304364           174.328859

                             ****ORCA TERMINATED NORMALLY****
TOTAL RUN TIME: 0 days 0 hours 0 minutes 49 seconds 890 msec
