                         Program Version 6.0.1  -  RELEASE   -
|  1> ! r2scan-3c def2/J RI DEFGRID2 scfconv6 printgap
|  2> %output
|  3>     printlevel normal
|  4> end
|  5> * xyz 0 1
|  6> C -2.9703875144 0.6456744465 -0.7520531272
|  7> C -2.2693931862 0.3510744972 0.5755551034
|  8> C -0.8522499722 -0.084309627 0.3334976027
|  9> C -0.5471897494 -1.4263758354 0.1373306231
| 10> C 0.7519939857 -1.8165461089 -0.1277660079
| 11> C 1.764439255 -0.8767879966 -0.2035551614
| 12> C 1.4694727153 0.4667885848 -0.0112075589
| 13> C 0.1620591432 0.8559199146 0.2554551504
| 14> O 2.4272964199 1.4340013534 -0.0738101724
| 15> H -2.9807691151 -0.2428243672 -1.3793168605
| 16> H -2.4476565112 1.4351506898 -1.2869844047
| 17> H -3.9966298474 0.9620085456 -0.5796186862
| 18> H -2.8131745743 -0.4351403598 1.1031056199
| 19> H -2.2798393062 1.2498710527 1.1948480086
| 20> H -1.3310276175 -2.1671221216 0.1959870886
| 21> H 0.9834106167 -2.8610779065 -0.2767247503
| 22> H 2.7820193895 -1.1824723886 -0.4099230052
| 23> H -0.0425826905 1.905148548 0.4027776657
| 24> H 3.2832903772 1.0311843977 -0.2623358544
| 25> *
| 26>
| 27>                          ****END OF INPUT****

CARTESIAN COORDINATES (ANGSTROEM)
---------------------------------
  C     -2.970388    0.645674   -0.752053
  C     -2.269393    0.351074    0.575555
  C     -0.852250   -0.084310    0.333498
  C     -0.547190   -1.426376    0.137331
  C      0.751994   -1.816546   -0.127766
  C      1.764439   -0.876788   -0.203555
  C      1.469473    0.466789   -0.011208
  C      0.162059    0.855920    0.255455
  O      2.427296    1.434001   -0.073810
  H     -2.980769   -0.242824   -1.379317
  H     -2.447657    1.435151   -1.286984
  H     -3.996630    0.962009   -0.579619
  H     -2.813175   -0.435140    1.103106
  H     -2.279839    1.249871    1.194848
  H     -1.331028   -2.167122    0.195987
  H      0.983411   -2.861078   -0.276725
  H      2.782019   -1.182472   -0.409923
  H     -0.042583    1.905149    0.402778
  H      3.283290    1.031184   -0.262336

 Total Charge           Charge          ....    0
 Multiplicity           Mult            ....    1
 Number of Electrons    NEL             ....   66
 Basis Dimension        Dim             ....  226

ORBITAL ENERGIES
----------------

  NO   OCC          E(Eh)            E(eV)
   0   2.0000     -18.984019      -516.5814
   1   2.0000     -10.094566      -274.6871
   2   2.0000     -10.040385      -273.2128
   3   2.0000     -10.034966      -273.0653
   4   2.0000     -10.032642      -273.0021
   5   2.0000     -10.031072      -272.9593
   6   2.0000     -10.024991      -272.7939
   7   2.0000     -10.022645      -272.7300
   8   2.0000     -10.020129      -272.6616
   9   2.0000      -1.028577       -27.9890
  10   2.0000      -0.825204       -22.4550
  11   2.0000      -0.755504       -20.5583
  12   2.0000      -0.711008       -19.3475
  13   2.0000      -0.689981       -18.7753
  14   2.0000      -0.607302       -16.5255
  15   2.0000      -0.575949       -15.6724
  16   2.0000      -0.565427       -15.3860
  17   2.0000      -0.495194       -13.4749
  18   2.0000      -0.467229       -12.7140
  19   2.0000      -0.447344       -12.1728
  20   2.0000      -0.416034       -11.3209
  21   2.0000      -0.401980       -10.9384
  22   2.0000      -0.388731       -10.5779
  23   2.0000      -0.381732       -10.3875
  24   2.0000      -0.361996        -9.8504
  25   2.0000      -0.355691        -9.6789
  26   2.0000      -0.341498        -9.2926
  27   2.0000      -0.321780        -8.7561
  28   2.0000      -0.309832        -8.4310
  29   2.0000      -0.302850        -8.2410
  30   2.0000      -0.296983        -8.0813
  31   2.0000      -0.228508        -6.2180
  32   2.0000      -0.203406        -5.5349
  33   0.0000      -0.029501        -0.8028
  34   0.0000      -0.013706        -0.3730
  35   0.0000       0.059105         1.6083
  36   0.0000       0.076999         2.0952
  37   0.0000       0.098908         2.6914

MULLIKEN ATOMIC CHARGES
-----------------------
   0 C :   -0.463919
   1 C :   -0.309262
   2 C :    0.269091
   3 C :   -0.266379
   4 C :   -0.137438
   5 C :   -0.337535
   6 C :    0.420503
   7 C :   -0.398712
   8 O :   -0.413589
   9 H :    0.150400
  10 H :    0.151130
  11 H :    0.146928
  12 H :    0.147217
  13 H :    0.147006
  14 H :    0.147758
  15 H :    0.145064
  16 H :    0.136200
  17 H :    0.157242
  18 H :    0.308294
Sum of atomic charges:   -0.0000000

LOEWDIN ATOMIC CHARGES
----------------------
   0 C :   -0.405171
   1 C :   -0.286746
   2 C :   -0.080796
   3 C :   -0.189748
   4 C :   -0.148671
   5 C :   -0.183033
   6 C :    0.185426
   7 C :   -0.142545
   8 O :   -0.495628
   9 H :    0.154061
  10 H :    0.154416
  11 H :    0.148937
  12 H :    0.161399
  13 H :    0.161645
  14 H :    0.168543
  15 H :    0.167649
  16 H :    0.167752
  17 H :    0.181546
  18 H :    0.280962

  Mayer bond orders larger than 0.100000
B(  0-C ,  1-C ) :   0.9249 B(  0-C ,  9-H ) :   0.9789 B(  0-C , 10-H ) :   0.9785
B(  0-C , 11-H ) :   0.9723 B(  1-C ,  2-C ) :   0.7790 B(  1-C , 12-H ) :   0.9922
B(  1-C , 13-H ) :   0.9927 B(  2-C ,  3-C ) :   1.3742 B(  2-C ,  7-C ) :   1.3992
B(  3-C ,  4-C ) :   1.4659 B(  3-C , 14-H ) :   0.9450 B(  4-C ,  5-C ) :   1.4235
B(  4-C , 15-H ) :   0.9416 B(  5-C ,  6-C ) :   1.3491 B(  5-C , 16-H ) :   0.9375
B(  6-C ,  7-C ) :   1.4799 B(  6-C ,  8-O ) :   0.9008 B(  7-C ,  8-O ) :   0.1185
B(  7-C , 17-H ) :   0.9359 B(  8-O , 18-H ) :   0.8857

Dispersion correction           -0.006115159
FINAL SINGLE POINT ENERGY      -386.001973076504

DIPOLE MOMENT
-------------

Method             : SCF
Type of density    : Electron Density
Multiplicity       :   1
Irrep              :   0
Energy             :  -386.0025556097155004 Eh
Relativity type    :
Basis              : AO
                                X                 Y                 Z
Electronic contribution:      8.451618002      -0.024665055       1.114261523
Nuclear contribution   :     -8.260215141      -0.265146443      -1.219010605
                        -----------------------------------------
Total Dipole Moment    :      0.191402861      -0.289811498      -0.104749082
                        -----------------------------------------
Magnitude (a.u.)       :      0.362764565
Magnitude (Debye)      :      0.922074246

Rotational constants in cm-1:             0.099653             0.039058             0.030170
Rotational constants in MHz :          2987.519197          1170.926913           904.483876

                             ****ORCA TERMINATED NORMALLY****
TOTAL RUN TIME: 0 days 0 hours 0 minutes 25 seconds 444 msec
