                         Program Version 6.0.1  -  RELEASE   -
|  1> ! r2scan-3c def2/J RI DEFGRID2 scfconv6 printgap
|  2> %output
|  3>     printlevel normal
|  4> end
|  5> * xyz 0 1
|  6> C -2.6734608894 0.0020685257 -0.4054852024
|  7> C -2.0177254367 -1.1969597219 -0.1828376069
|  8> C -0.7092707942 -1.1993740945 0.2656985958
|  9> C -0.0434995283 -0.0018877476 0.500007257
| 10> C -0.7067750033 1.1976118504 0.2688800751
| 11> C -2.0152593977 1.1991238085 -0.1795416125
| 12> C 1.378831248 -0.0039124242 0.9539149904
| 13> Cl 2.4664546158 0.0013596468 -0.4831659872
| 14> H -3.6947190093 0.003586467 -0.7563707144
| 15> H -2.526295466 -2.1330025261 -0.3602870211
| 16> H -0.1971155512 -2.135543528 0.4345357383
| 17> H -0.1927197313 2.1322515301 0.4403750254
| 18> H -2.5218538207 2.1366897712 -0.3545688632
| 19> H 1.6280587476 -0.9007033545 1.5195029288
| 20> H 1.628427829 0.8885766964 1.526082462
| 21> *
| 22>
| 23>                          ****END OF INPUT****

CARTESIAN COORDINATES (ANGSTROEM)
---------------------------------
  C     -2.673461    0.002069   -0.405485
  C     -2.017725   -1.196960   -0.182838
  C     -0.709271   -1.199374    0.265699
  C     -0.043500   -0.001888    0.500007
  C     -0.706775    1.197612    0.268880
  C     -2.015259    1.199124   -0.179542
  C      1.378831   -0.003912    0.953915
  Cl     2.466455    0.001360   -0.483166
  H     -3.694719    0.003586   -0.756371
  H     -2.526295   -2.133003   -0.360287
  H     -0.197116   -2.135544    0.434536
  H     -0.192720    2.132252    0.440375
  H     -2.521854    2.136690   -0.354569
  H      1.628059   -0.900703    1.519503
  H      1.628428    0.888577    1.526082

 Total Charge           Charge          ....    0
 Multiplicity           Mult            ....    1
 Number of Electrons    NEL             ....   66
 Basis Dimension        Dim             ....  195

ORBITAL ENERGIES
----------------

  NO   OCC          E(Eh)            E(eV)
   0   2.0000    -101.200448     -2753.8042
   1   2.0000     -10.099036      -274.8088
   2   2.0000     -10.055721      -273.6301
   3   2.0000     -10.044379      -273.3215
   4   2.0000     -10.044362      -273.3210
   5   2.0000     -10.043527      -273.2983
   6   2.0000     -10.043309      -273.2923
   7   2.0000     -10.042841      -273.2796
   8   2.0000      -9.356461      -254.6023
   9   2.0000      -7.102812      -193.2773
  10   2.0000      -7.092470      -192.9959
  11   2.0000      -7.092396      -192.9939
  12   2.0000      -0.847735       -23.0680
  13   2.0000      -0.811670       -22.0867
  14   2.0000      -0.733348       -19.9554
  15   2.0000      -0.726283       -19.7632
  16   2.0000      -0.644305       -17.5324
  17   2.0000      -0.587369       -15.9831
  18   2.0000      -0.563152       -15.3241
  19   2.0000      -0.494940       -13.4680
  20   2.0000      -0.453416       -12.3381
  21   2.0000      -0.439114       -11.9489
  22   2.0000      -0.408630       -11.1194
  23   2.0000      -0.401901       -10.9363
  24   2.0000      -0.396256       -10.7827
  25   2.0000      -0.391272       -10.6470
  26   2.0000      -0.347656        -9.4602
  27   2.0000      -0.330386        -8.9903
  28   2.0000      -0.320331        -8.7166
  29   2.0000      -0.270496        -7.3606
  30   2.0000      -0.267510        -7.2793
  31   2.0000      -0.245790        -6.6883
  32   2.0000      -0.239248        -6.5103
  33   0.0000      -0.054414        -1.4807
  34   0.0000      -0.040596        -1.1047
  35   0.0000       0.020665         0.5623
  36   0.0000       0.069106         1.8805
  37   0.0000       0.099039         2.6950

MULLIKEN ATOMIC CHARGES
-----------------------
   0 C :   -0.134377
   1 C :   -0.154194
   2 C :   -0.188634
   3 C :    0.179759
   4 C :   -0.188585
   5 C :   -0.154176
   6 C :   -0.237742
   7 Cl:   -0.190144
   8 H :    0.148369
   9 H :    0.147340
  10 H :    0.149516
  11 H :    0.149555
  12 H :    0.147342
  13 H :    0.162974
  14 H :    0.162997
Sum of atomic charges:   -0.0000000

LOEWDIN ATOMIC CHARGES
----------------------
   0 C :   -0.159720
   1 C :   -0.157639
   2 C :   -0.149501
   3 C :   -0.127970
   4 C :   -0.149462
   5 C :   -0.157624
   6 C :   -0.290671
   7 Cl:    0.010253
   8 H :    0.168416
   9 H :    0.168770
  10 H :    0.172150
  11 H :    0.172181
  12 H :    0.168772
  13 H :    0.166013
  14 H :    0.166032

  Mayer bond orders larger than 0.100000
B(  0-C ,  1-C ) :   1.4248 B(  0-C ,  5-C ) :   1.4246 B(  0-C ,  8-H ) :   0.9467
B(  1-C ,  2-C ) :   1.4517 B(  1-C ,  9-H ) :   0.9479 B(  2-C ,  3-C ) :   1.3977
B(  2-C , 10-H ) :   0.9393 B(  3-C ,  4-C ) :   1.3976 B(  3-C ,  6-C ) :   0.8514
B(  4-C ,  5-C ) :   1.4518 B(  4-C , 11-H ) :   0.9394 B(  5-C , 12-H ) :   0.9479
B(  6-C ,  7-Cl) :   1.0260 B(  6-C , 13-H ) :   0.9731 B(  6-C , 14-H ) :   0.9730

Dispersion correction           -0.005179732
FINAL SINGLE POINT ENERGY      -731.058958132994

DIPOLE MOMENT
-------------

Method             : SCF
Type of density    : Electron Density
Multiplicity       :   1
Irrep              :   0
Energy             :  -731.0600262921759622 Eh
Relativity type    :
Basis              : AO
                                X                 Y                 Z
Electronic contribution:      8.187391617       0.007802259      -2.440242812
Nuclear contribution   :     -8.823397707      -0.009466289       2.946345811
                        -----------------------------------------
Total Dipole Moment    :     -0.636006090      -0.001664030       0.506102999
                        -----------------------------------------
Magnitude (a.u.)       :      0.812801797
Magnitude (Debye)      :      2.065977981

Rotational constants in cm-1:             0.138690             0.033802             0.030369
Rotational constants in MHz :          4157.815219          1013.373016           910.442085

                             ****ORCA TERMINATED NORMALLY****
TOTAL RUN TIME: 0 days 0 hours 0 minutes 21 seconds 843 msec
