                         Program Version 6.0.1  -  RELEASE   -
|  1> ! pbe def2-sv(p) def2/J RI DEFGRID1 loosescf d4 GCP(DFT/SV(P)) printgap
|  2> %output
|  3>     printlevel normal
|  4> end
|  5> * xyz 0 1
|  6> C -2.517408642 -0.7345888351 -0.0539605451
|  7> C -1.1311714795 -0.5130860085 0.5751892937
|  8> H -1.1599583532 -0.9038594408 1.6085652491
|  9> C -0.7208051284 0.9814344824 0.6410403563
| 10> H -1.592806602 1.6182685881 0.4275695158
| 11> C 0.3631891961 1.2565824626 -0.4249674605
| 12> H 0.659441229 2.308990154 -0.3673504976
| 13> C 1.603886325 0.3846864557 -0.1278451367
| 14> H 2.2119005412 0.3254857881 -1.0386104817
| 15> C 1.1417536207 -1.0488355358 0.2649447908
| 16> H 1.200014207 -1.1550847738 1.3601112938
| 17> O -0.1929664606 -1.2579095196 -0.1712454066
| 18> O 1.928605504 -2.0507558305 -0.2567082838
| 19> O 2.4251434436 0.9586780893 0.8451482689
| 20> O -0.1398199614 1.0548699936 -1.7154372258
| 21> O -0.1747477269 1.3225655597 1.8982138884
| 22> O -2.617144607 -0.3490171559 -1.3922063838
| 23> H -3.2614632126 -0.2122532623 0.5684057004
| 24> H -2.7348306145 -1.8044589402 -0.0409924351
| 25> H 1.8044459226 -2.0856969067 -1.2132427808
| 26> H 1.8766274395 1.1794242803 1.6110339844
| 27> H -0.3199495123 0.1068583443 -1.8265027675
| 28> H -0.8604570281 1.2778354977 2.573357641
| 29> H -2.3113519635 0.5618778085 -1.506522469
| 30> *
| 31>
| 32>                          ****END OF INPUT****

CARTESIAN COORDINATES (ANGSTROEM)
---------------------------------
  C     -2.517409   -0.734589   -0.053961
  C     -1.131171   -0.513086    0.575189
  H     -1.159958   -0.903859    1.608565
  C     -0.720805    0.981434    0.641040
  H     -1.592807    1.618269    0.427570
  C      0.363189    1.256582   -0.424967
  H      0.659441    2.308990   -0.367350
  C      1.603886    0.384686   -0.127845
  H      2.211901    0.325486   -1.038610
  C      1.141754   -1.048836    0.264945
  H      1.200014   -1.155085    1.360111
  O     -0.192966   -1.257910   -0.171245
  O      1.928606   -2.050756   -0.256708
  O      2.425143    0.958678    0.845148
  O     -0.139820    1.054870   -1.715437
  O     -0.174748    1.322566    1.898214
  O     -2.617145   -0.349017   -1.392206
  H     -3.261463   -0.212253    0.568406
  H     -2.734831   -1.804459   -0.040992
  H      1.804446   -2.085697   -1.213243
  H      1.876627    1.179424    1.611034
  H     -0.319950    0.106858   -1.826503
  H     -0.860457    1.277835    2.573358
  H     -2.311352    0.561878   -1.506522

 Total Charge           Charge          ....    0
 Multiplicity           Mult            ....    1
 Number of Electrons    NEL             ....   96
 Basis Dimension        Dim             ....  192

ORBITAL ENERGIES
----------------

  NO   OCC          E(Eh)            E(eV)
   0   2.0000     -18.788954      -511.2734
   1   2.0000     -18.784559      -511.1538
   2   2.0000     -18.765418      -510.6330
   3   2.0000     -18.761550      -510.5277
   4   2.0000     -18.758694      -510.4500
   5   2.0000     -18.742657      -510.0136
   6   2.0000      -9.988940      -271.8129
   7   2.0000      -9.964523      -271.1484
   8   2.0000      -9.961665      -271.0707
   9   2.0000      -9.950970      -270.7797
  10   2.0000      -9.947723      -270.6913
  11   2.0000      -9.939803      -270.4758
  12   2.0000      -0.996372       -27.1127
  13   2.0000      -0.964382       -26.2422
  14   2.0000      -0.946691       -25.7608
  15   2.0000      -0.936876       -25.4937
  16   2.0000      -0.925283       -25.1782
  17   2.0000      -0.920007       -25.0347
  18   2.0000      -0.711820       -19.3696
  19   2.0000      -0.690877       -18.7997
  20   2.0000      -0.630135       -17.1468
  21   2.0000      -0.598044       -16.2736
  22   2.0000      -0.578970       -15.7546
  23   2.0000      -0.541787       -14.7428
  24   2.0000      -0.516377       -14.0513
  25   2.0000      -0.503674       -13.7057
  26   2.0000      -0.491088       -13.3632
  27   2.0000      -0.471860       -12.8400
  28   2.0000      -0.447783       -12.1848
  29   2.0000      -0.444655       -12.0997
  30   2.0000      -0.420246       -11.4355
  31   2.0000      -0.405332       -11.0297
  32   2.0000      -0.400665       -10.9026
  33   2.0000      -0.382487       -10.4080
  34   2.0000      -0.372065       -10.1244
  35   2.0000      -0.357385        -9.7249
  36   2.0000      -0.340366        -9.2618
  37   2.0000      -0.329231        -8.9588
  38   2.0000      -0.317182        -8.6310
  39   2.0000      -0.312315        -8.4985
  40   2.0000      -0.290689        -7.9100
  41   2.0000      -0.277011        -7.5379
  42   2.0000      -0.261355        -7.1118
  43   2.0000      -0.257271        -7.0007
  44   2.0000      -0.248822        -6.7708
  45   2.0000      -0.232667        -6.3312
  46   2.0000      -0.228259        -6.2112
  47   2.0000      -0.199606        -5.4315
  48   0.0000      -0.006336        -0.1724
  49   0.0000       0.014525         0.3952
  50   0.0000       0.031877         0.8674
  51   0.0000       0.040779         1.1097
  52   0.0000       0.063496         1.7278

MULLIKEN ATOMIC CHARGES
-----------------------
   0 C :    0.088508
   1 C :   -0.007985
   2 H :    0.058879
   3 C :   -0.022663
   4 H :    0.077779
   5 C :    0.049619
   6 H :    0.086555
   7 C :    0.055437
   8 H :    0.063911
   9 C :    0.198652
  10 H :    0.049690
  11 O :   -0.303694
  12 O :   -0.372336
  13 O :   -0.420821
  14 O :   -0.424566
  15 O :   -0.423184
  16 O :   -0.435259
  17 H :    0.070769
  18 H :    0.098567
  19 H :    0.300706
  20 H :    0.304788
  21 H :    0.301318
  22 H :    0.312770
  23 H :    0.292562
Sum of atomic charges:    0.0000000

LOEWDIN ATOMIC CHARGES
----------------------
   0 C :   -0.122448
   1 C :   -0.086002
   2 H :    0.106939
   3 C :   -0.084833
   4 H :    0.104716
   5 C :   -0.075261
   6 H :    0.122514
   7 C :   -0.092220
   8 H :    0.116993
   9 C :   -0.001424
  10 H :    0.099119
  11 O :   -0.156315
  12 O :   -0.282149
  13 O :   -0.310075
  14 O :   -0.305107
  15 O :   -0.313483
  16 O :   -0.326713
  17 H :    0.095993
  18 H :    0.122288
  19 H :    0.285932
  20 H :    0.273879
  21 H :    0.266593
  22 H :    0.292596
  23 H :    0.268468

  Mayer bond orders larger than 0.100000
B(  0-C ,  1-C ) :   1.0231 B(  0-C , 16-O ) :   1.1053 B(  0-C , 17-H ) :   0.9136
B(  0-C , 18-H ) :   0.9137 B(  1-C ,  2-H ) :   0.8796 B(  1-C ,  3-C ) :   0.9358
B(  1-C , 11-O ) :   1.0047 B(  3-C ,  4-H ) :   0.9024 B(  3-C ,  5-C ) :   0.9925
B(  3-C , 15-O ) :   1.0271 B(  5-C ,  6-H ) :   0.8879 B(  5-C ,  7-C ) :   0.9723
B(  5-C , 14-O ) :   1.0409 B(  7-C ,  8-H ) :   0.8903 B(  7-C ,  9-C ) :   0.9598
B(  7-C , 13-O ) :   1.0649 B(  9-C , 10-H ) :   0.8714 B(  9-C , 11-O ) :   0.9980
B(  9-C , 12-O ) :   1.1481 B( 12-O , 19-H ) :   0.8447 B( 13-O , 20-H ) :   0.8230
B( 14-O , 21-H ) :   0.7991 B( 15-O , 22-H ) :   0.8403 B( 16-O , 23-H ) :   0.8090

Dispersion correction           -0.025603404
FINAL SINGLE POINT ENERGY      -685.690807865334

DIPOLE MOMENT
-------------

Method             : SCF
Type of density    : Electron Density
Multiplicity       :   1
Irrep              :   0
Energy             :  -685.8249314895676889 Eh
Relativity type    :
Basis              : AO
                                X                 Y                 Z
Electronic contribution:      3.131432602      -0.828825594      -1.133271003
Nuclear contribution   :     -4.192663400       1.137352355       2.010791175
                        -----------------------------------------
Total Dipole Moment    :     -1.061230798       0.308526761       0.877520172
                        -----------------------------------------
Magnitude (a.u.)       :      1.411184333
Magnitude (Debye)      :      3.586945515

Rotational constants in cm-1:             0.042344             0.027240             0.023472
Rotational constants in MHz :          1269.453895           816.632611           703.679525

                             ****ORCA TERMINATED NORMALLY****
TOTAL RUN TIME: 0 days 0 hours 0 minutes 9 seconds 319 msec
