                         Program Version 6.0.0  -   RELEASE  -
|  1> ! M062X DEF2-TZVP FREQ
|  2> * xyzfile 0 1 censo.xyz
|  3>
|  4>                          ****END OF INPUT****

CARTESIAN COORDINATES (ANGSTROEM)
---------------------------------
  C      1.840038   -0.119860    0.000000
  C      0.605142    0.399944   -0.000049
  C     -0.605141   -0.399945    0.000153
  C     -1.840037    0.119859    0.000079
  H      2.721186    0.514247    0.000016
  H      1.996084   -1.196410    0.000124
  H      0.472625    1.482033   -0.000105
  H     -0.472625   -1.482034    0.000178
  H     -2.721185   -0.514249    0.000071
  H     -1.996085    1.196408   -0.000040

 Total Charge           Charge          ....    0
 Multiplicity           Mult            ....    1
 Number of Electrons    NEL             ....   30
 Basis Dimension        Dim             ....  160

ORBITAL ENERGIES
----------------

  NO   OCC          E(Eh)            E(eV)
   0   2.0000     -10.546649      -286.9889
   1   2.0000     -10.546107      -286.9742
   2   2.0000     -10.538407      -286.7646
   3   2.0000     -10.538403      -286.7645
   4   2.0000      -0.909956       -24.7612
   5   2.0000      -0.829827       -22.5808
   6   2.0000      -0.690412       -18.7871
   7   2.0000      -0.633128       -17.2283
   8   2.0000      -0.537711       -14.6319
   9   2.0000      -0.534692       -14.5497
  10   2.0000      -0.456131       -12.4120
  11   2.0000      -0.452182       -12.3045
  12   2.0000      -0.408158       -11.1066
  13   2.0000      -0.393622       -10.7110
  14   2.0000      -0.290231        -7.8976
  15   0.0000      -0.000516        -0.0140
  16   0.0000       0.092986         2.5303
  17   0.0000       0.096281         2.6199
  18   0.0000       0.104311         2.8384
  19   0.0000       0.110859         3.0166

MULLIKEN ATOMIC CHARGES
-----------------------
   0 C :   -0.324721
   1 C :   -0.062126
   2 C :   -0.062139
   3 C :   -0.324712
   4 H :    0.133751
   5 H :    0.127031
   6 H :    0.126066
   7 H :    0.126068
   8 H :    0.133751
   9 H :    0.127032
Sum of atomic charges:   -0.0000000

LOEWDIN ATOMIC CHARGES
----------------------
   0 C :   -0.197145
   1 C :   -0.195498
   2 C :   -0.195498
   3 C :   -0.197145
   4 H :    0.122814
   5 H :    0.123471
   6 H :    0.146359
   7 H :    0.146359
   8 H :    0.122813
   9 H :    0.123471

  Mayer bond orders larger than 0.100000
B(  0-C ,  1-C ) :   1.8311 B(  0-C ,  4-H ) :   0.9748 B(  0-C ,  5-H ) :   0.9752
B(  1-C ,  2-C ) :   1.0403 B(  1-C ,  6-H ) :   0.9491 B(  2-C ,  3-C ) :   1.8311
B(  2-C ,  7-H ) :   0.9491 B(  3-C ,  8-H ) :   0.9748 B(  3-C ,  9-H ) :   0.9752

FINAL SINGLE POINT ENERGY      -155.968278819802

DIPOLE MOMENT
-------------

Method             : SCF
Type of density    : Electron Density
Multiplicity       :   1
Irrep              :   0
Energy             :  -155.9682788198018102 Eh
Relativity type    :
Basis              : AO
                                X                 Y                 Z
Electronic contribution:      0.000000649       0.000000855       0.000021507
Nuclear contribution   :     -0.000000043      -0.000000642      -0.000024295
                        -----------------------------------------
Total Dipole Moment    :      0.000000606       0.000000212      -0.000002788
                        -----------------------------------------
Magnitude (a.u.)       :      0.000002861
Magnitude (Debye)      :      0.000007272

VIBRATIONAL FREQUENCIES
-----------------------

Scaling factor for frequencies =  1.000000000  (already applied!)

     0:       0.00 cm**-1
     1:       0.00 cm**-1
     2:       0.00 cm**-1
     3:       0.00 cm**-1
     4:       0.00 cm**-1
     5:       0.00 cm**-1
     6:     202.79 cm**-1
     7:     331.02 cm**-1
     8:     525.95 cm**-1
     9:     576.44 cm**-1
    10:     802.16 cm**-1
    11:     919.65 cm**-1
    12:     975.20 cm**-1
    13:     978.09 cm**-1
    14:    1016.34 cm**-1
    15:    1026.79 cm**-1
    16:    1073.31 cm**-1
    17:    1242.63 cm**-1
    18:    1315.17 cm**-1
    19:    1322.23 cm**-1
    20:    1417.42 cm**-1
    21:    1481.82 cm**-1
    22:    1649.37 cm**-1
    23:    1712.91 cm**-1
    24:    3130.02 cm**-1
    25:    3133.19 cm**-1
    26:    3138.70 cm**-1
    27:    3144.22 cm**-1
    28:    3227.23 cm**-1
    29:    3227.29 cm**-1

IR SPECTRUM
-----------

 Mode   freq       eps      Int      T**2         TX        TY        TZ
       cm**-1   L/(mol*cm) km/mol    a.u.
----------------------------------------------------------------------------
  6:    202.79   0.000117    0.59  0.000180  (-0.000022  0.000001 -0.013414)
  7:    331.02   0.000561    2.83  0.000529  ( 0.022681  0.003790  0.000001)
  8:    525.95   0.000000    0.00  0.000000  ( 0.000000 -0.000000  0.000003)
  9:    576.44   0.002557   12.92  0.001385  ( 0.000004  0.000001 -0.037209)
 10:    802.16   0.000000    0.00  0.000000  (-0.000003  0.000001  0.000001)
 11:    919.65   0.000000    0.00  0.000000  (-0.000001 -0.000000  0.000005)
 12:    975.20   0.000000    0.00  0.000000  (-0.000000 -0.000000 -0.000039)
 13:    978.09   0.018528   93.64  0.005912  ( 0.000007 -0.000005 -0.076887)
 14:   1016.34   0.000498    2.52  0.000153  (-0.012268 -0.001572 -0.000013)
 15:   1026.79   0.000000    0.00  0.000000  ( 0.000000  0.000002 -0.000002)
 16:   1073.31   0.005820   29.41  0.001692  ( 0.000014 -0.000004  0.041136)
 17:   1242.63   0.000000    0.00  0.000000  (-0.000000  0.000001  0.000001)
 18:   1315.17   0.000000    0.00  0.000000  (-0.000002  0.000013 -0.000000)
 19:   1322.23   0.000433    2.19  0.000102  (-0.000618  0.010094 -0.000002)
 20:   1417.42   0.000892    4.51  0.000196  (-0.008961  0.010771 -0.000004)
 21:   1481.82   0.000000    0.00  0.000000  (-0.000000 -0.000000 -0.000000)
 22:   1649.37   0.004050   20.47  0.000766  ( 0.026775 -0.007027 -0.000001)
 23:   1712.91   0.000000    0.00  0.000000  ( 0.000001 -0.000000 -0.000000)
 24:   3130.02   0.000000    0.00  0.000000  ( 0.000001 -0.000006 -0.000000)
 25:   3133.19   0.001360    6.87  0.000135  ( 0.003557 -0.011082  0.000000)
 26:   3138.70   0.000000    0.00  0.000000  (-0.000002 -0.000012 -0.000000)
 27:   3144.22   0.001594    8.06  0.000158  (-0.004306 -0.011819  0.000002)
 28:   3227.23   0.001983   10.02  0.000192  (-0.005098 -0.012874  0.000002)
 29:   3227.29   0.000007    0.04  0.000001  ( 0.000307  0.000774 -0.000000)

--------------------------
THERMOCHEMISTRY AT 298.15K
--------------------------

Temperature         ...   298.15 K
Pressure            ...     1.00 atm
Total Mass          ...    54.09 AMU
Quasi RRHO          ...     True
Cut-Off Frequency   ...     1.00 cm^-1

Throughout the following assumptions are being made:
  (1) The electronic state is orbitally nondegenerate
  (2) There are no thermally accessible electronically excited states
  (3) Hindered rotations indicated by low frequency modes are not
      treated as such but are treated as vibrations and this may
      cause some error
  (4) All equations used are the standard statistical mechanics
      equations for an ideal gas
  (5) All vibrations are strictly harmonic

freq.     202.79  E(vib)   ...       0.35
freq.     331.02  E(vib)   ...       0.24
freq.     525.95  E(vib)   ...       0.13
freq.     576.44  E(vib)   ...       0.11
freq.     802.16  E(vib)   ...       0.05
freq.     919.65  E(vib)   ...       0.03
freq.     975.20  E(vib)   ...       0.03
freq.     978.09  E(vib)   ...       0.03
freq.    1016.34  E(vib)   ...       0.02
freq.    1026.79  E(vib)   ...       0.02
freq.    1073.31  E(vib)   ...       0.02
freq.    1242.63  E(vib)   ...       0.01
freq.    1315.17  E(vib)   ...       0.01
freq.    1322.23  E(vib)   ...       0.01
freq.    1417.42  E(vib)   ...       0.00
freq.    1481.82  E(vib)   ...       0.00
freq.    1649.37  E(vib)   ...       0.00
freq.    1712.91  E(vib)   ...       0.00
freq.    3130.02  E(vib)   ...       0.00
freq.    3133.19  E(vib)   ...       0.00
freq.    3138.70  E(vib)   ...       0.00
freq.    3144.22  E(vib)   ...       0.00
freq.    3227.23  E(vib)   ...       0.00
freq.    3227.29  E(vib)   ...       0.00

------------
INNER ENERGY
------------

The inner energy is: U= E(el) + E(ZPE) + E(vib) + E(rot) + E(trans)
    E(el)   - is the total energy from the electronic structure calculation
              = E(kin-el) + E(nuc-el) + E(el-el) + E(nuc-nuc)
    E(ZPE)  - the the zero temperature vibrational energy from the frequency calculation
    E(vib)  - the the finite temperature correction to E(ZPE) due to population
              of excited vibrational states
    E(rot)  - is the rotational thermal energy
    E(trans)- is the translational thermal energy

Summary of contributions to the inner energy U:
Electronic energy                ...   -155.96827882 Eh
Zero point energy                ...      0.08559056 Eh      53.71 kcal/mol
Thermal vibrational correction   ...      0.00167403 Eh       1.05 kcal/mol
Thermal rotational correction    ...      0.00141627 Eh       0.89 kcal/mol
Thermal translational correction ...      0.00141627 Eh       0.89 kcal/mol
-----------------------------------------------------------------------
Total thermal energy                   -155.87818168 Eh

Summary of corrections to the electronic energy:
(perhaps to be used in another calculation)
Total thermal correction                  0.00450658 Eh       2.83 kcal/mol
Non-thermal (ZPE) correction              0.08559056 Eh      53.71 kcal/mol
-----------------------------------------------------------------------
Total correction                          0.09009714 Eh      56.54 kcal/mol

--------
ENTHALPY
--------

The enthalpy is H = U + kB*T
                kB is Boltzmann's constant
Total thermal energy              ...   -155.87818168 Eh
Thermal Enthalpy correction       ...      0.00094421 Eh       0.59 kcal/mol
-----------------------------------------------------------------------
Total Enthalpy                    ...   -155.87723747 Eh

Note: Rotational entropy computed according to Herzberg
Infrared and Raman Spectra, Chapter V,1, Van Nostrand Reinhold, 1945
Point Group:  Ci, Symmetry Number:   1
Rotational constants in cm-1:     1.400796     0.148473     0.134244

Vibrational entropy computed according to the QRRHO of S. Grimme
Chem.Eur.J. 2012 18 9955 using a reference frequency of 100.0 cm-1

-------
ENTROPY
-------

The entropy contributions are T*S = T*(S(el)+S(vib)+S(rot)+S(trans))
     S(el)   - electronic entropy
     S(vib)  - vibrational entropy
     S(rot)  - rotational entropy
     S(trans)- translational entropy
The entropies will be listed as multiplied by the temperature to get
units of energy

Electronic entropy                ...      0.00000000 Eh      0.00 kcal/mol
Vibrational entropy               ...      0.00254946 Eh      1.60 kcal/mol
Rotational entropy                ...      0.01120014 Eh      7.03 kcal/mol
Translational entropy             ...      0.01800097 Eh     11.30 kcal/mol
-----------------------------------------------------------------------
Final entropy term                ...      0.03175056 Eh     19.92 kcal/mol

In case the symmetry of your molecule has not been determined correctly
or in case you have a reason to use a different symmetry number we print
out the resulting rotational entropy values for sn=1,12:

 non-linear molecules -----------------------------------
|  sn= 1 | S(rot)=       0.01120014 Eh      7.03 kcal/mol|
|  sn= 2 | S(rot)=       0.01054568 Eh      6.62 kcal/mol|
|  sn= 3 | S(rot)=       0.01016285 Eh      6.38 kcal/mol|
|  sn= 4 | S(rot)=       0.00989123 Eh      6.21 kcal/mol|
|  sn= 5 | S(rot)=       0.00968054 Eh      6.07 kcal/mol|
|  sn= 6 | S(rot)=       0.00950840 Eh      5.97 kcal/mol|
|  sn= 7 | S(rot)=       0.00936285 Eh      5.88 kcal/mol|
|  sn= 8 | S(rot)=       0.00923677 Eh      5.80 kcal/mol|
|  sn= 9 | S(rot)=       0.00912556 Eh      5.73 kcal/mol|
|  sn=10 | S(rot)=       0.00902608 Eh      5.66 kcal/mol|
|  sn=11 | S(rot)=       0.00893609 Eh      5.61 kcal/mol|
|  sn=12 | S(rot)=       0.00885394 Eh      5.56 kcal/mol|
 linear molecules ---------------------------------------
|  Dinfh | S(rot)=       0.00722181 Eh      4.53 kcal/mol|
|  Cinfv | S(rot)=       0.00787627 Eh      4.94 kcal/mol|
 --------------------------------------------------------

-------------------
GIBBS FREE ENERGY
-------------------

The Gibbs free energy is G = H - T*S

Total enthalpy                    ...   -155.87723747 Eh
Total entropy correction          ...     -0.03175056 Eh    -19.92 kcal/mol
-----------------------------------------------------------------------
Final Gibbs free energy         ...   -155.90898803 Eh

For completeness - the Gibbs free energy minus the electronic energy
G-E(el)                           ...      0.05929079 Eh     37.21 kcal/mol

                             ****ORCA TERMINATED NORMALLY****
TOTAL RUN TIME: 0 days 0 hours 5 minutes 54 seconds 563 msec
