                         Program Version 6.0.0  -   RELEASE  -
|  1> ! M062X DEF2-TZVP FREQ
|  2> * xyzfile 0 1 vacuum_censo.xyz
|  3>
|  4>                          ****END OF INPUT****

CARTESIAN COORDINATES (ANGSTROEM)
---------------------------------
  C      1.840662   -0.118997    0.000091
  C      0.605907    0.397381    0.000043
  C     -0.605907   -0.397398    0.000007
  C     -1.840661    0.118978    0.000032
  H      2.721819    0.513008    0.000026
  H      1.999409   -1.194206    0.000028
  H      0.475531    1.479291    0.000006
  H     -0.475522   -1.479305   -0.000010
  H     -2.721813   -0.513033    0.000025
  H     -1.999412    1.194186    0.000043

 Total Charge           Charge          ....    0
 Multiplicity           Mult            ....    1
 Number of Electrons    NEL             ....   30
 Basis Dimension        Dim             ....  160

ORBITAL ENERGIES
----------------

  NO   OCC          E(Eh)            E(eV)
   0   2.0000     -10.546330      -286.9802
   1   2.0000     -10.545785      -286.9654
   2   2.0000     -10.538083      -286.7558
   3   2.0000     -10.538079      -286.7557
   4   2.0000      -0.910354       -24.7720
   5   2.0000      -0.830413       -22.5967
   6   2.0000      -0.691079       -18.8052
   7   2.0000      -0.633110       -17.2278
   8   2.0000      -0.538436       -14.6516
   9   2.0000      -0.534903       -14.5554
  10   2.0000      -0.456900       -12.4329
  11   2.0000      -0.451908       -12.2970
  12   2.0000      -0.407751       -11.0955
  13   2.0000      -0.393989       -10.7210
  14   2.0000      -0.290550        -7.9063
  15   0.0000      -0.000529        -0.0144
  16   0.0000       0.093669         2.5489
  17   0.0000       0.096580         2.6281
  18   0.0000       0.104484         2.8431
  19   0.0000       0.110987         3.0201

MULLIKEN ATOMIC CHARGES
-----------------------
   0 C :   -0.324125
   1 C :   -0.061820
   2 C :   -0.061828
   3 C :   -0.324119
   4 H :    0.133727
   5 H :    0.126630
   6 H :    0.125590
   7 H :    0.125588
   8 H :    0.133726
   9 H :    0.126631
Sum of atomic charges:   -0.0000000

LOEWDIN ATOMIC CHARGES
----------------------
   0 C :   -0.196485
   1 C :   -0.195914
   2 C :   -0.195915
   3 C :   -0.196484
   4 H :    0.122614
   5 H :    0.123259
   6 H :    0.146527
   7 H :    0.146526
   8 H :    0.122614
   9 H :    0.123259

  Mayer bond orders larger than 0.100000
B(  0-C ,  1-C ) :   1.8314 B(  0-C ,  4-H ) :   0.9750 B(  0-C ,  5-H ) :   0.9751
B(  1-C ,  2-C ) :   1.0406 B(  1-C ,  6-H ) :   0.9491 B(  2-C ,  3-C ) :   1.8314
B(  2-C ,  7-H ) :   0.9491 B(  3-C ,  8-H ) :   0.9750 B(  3-C ,  9-H ) :   0.9751

FINAL SINGLE POINT ENERGY      -155.968344357211

DIPOLE MOMENT
-------------

Method             : SCF
Type of density    : Electron Density
Multiplicity       :   1
Irrep              :   0
Energy             :  -155.9683443572112935 Eh
Relativity type    :
Basis              : AO
                                X                 Y                 Z
Electronic contribution:     -0.000008056       0.000004035       0.000066997
Nuclear contribution   :      0.000009402      -0.000004387      -0.000115730
                        -----------------------------------------
Total Dipole Moment    :      0.000001347      -0.000000352      -0.000048733
                        -----------------------------------------
Magnitude (a.u.)       :      0.000048753
Magnitude (Debye)      :      0.000123921

VIBRATIONAL FREQUENCIES
-----------------------

Scaling factor for frequencies =  1.000000000  (already applied!)

     0:       0.00 cm**-1
     1:       0.00 cm**-1
     2:       0.00 cm**-1
     3:       0.00 cm**-1
     4:       0.00 cm**-1
     5:       0.00 cm**-1
     6:     196.47 cm**-1
     7:     324.38 cm**-1
     8:     523.50 cm**-1
     9:     568.40 cm**-1
    10:     798.66 cm**-1
    11:     917.64 cm**-1
    12:     972.89 cm**-1
    13:     975.46 cm**-1
    14:    1013.23 cm**-1
    15:    1025.68 cm**-1
    16:    1072.50 cm**-1
    17:    1244.01 cm**-1
    18:    1316.74 cm**-1
    19:    1323.57 cm**-1
    20:    1418.16 cm**-1
    21:    1481.90 cm**-1
    22:    1653.79 cm**-1
    23:    1718.95 cm**-1
    24:    3135.65 cm**-1
    25:    3141.95 cm**-1
    26:    3145.85 cm**-1
    27:    3148.42 cm**-1
    28:    3236.65 cm**-1
    29:    3236.71 cm**-1

IR SPECTRUM
-----------

 Mode   freq       eps      Int      T**2         TX        TY        TZ
       cm**-1   L/(mol*cm) km/mol    a.u.
----------------------------------------------------------------------------
  6:    196.47   0.000111    0.56  0.000176  (-0.000009  0.000002  0.013276)
  7:    324.38   0.000553    2.79  0.000532  (-0.022785 -0.003518 -0.000001)
  8:    523.50   0.000000    0.00  0.000000  (-0.000000 -0.000000 -0.000002)
  9:    568.40   0.002569   12.98  0.001411  ( 0.000000  0.000003  0.037558)
 10:    798.66   0.000000    0.00  0.000000  (-0.000001 -0.000003  0.000001)
 11:    917.64   0.000000    0.00  0.000000  ( 0.000001  0.000000  0.000004)
 12:    972.89   0.000000    0.00  0.000000  (-0.000011  0.000002  0.000012)
 13:    975.46   0.018387   92.92  0.005882  ( 0.000008 -0.000001  0.076696)
 14:   1013.23   0.000498    2.51  0.000153  (-0.012257 -0.001726 -0.000000)
 15:   1025.68   0.000000    0.00  0.000000  ( 0.000003  0.000000  0.000003)
 16:   1072.50   0.005878   29.70  0.001710  (-0.000004  0.000000  0.041355)
 17:   1244.01   0.000000    0.00  0.000000  ( 0.000000 -0.000000 -0.000001)
 18:   1316.74   0.000000    0.00  0.000000  (-0.000002  0.000010 -0.000001)
 19:   1323.57   0.000422    2.13  0.000100  (-0.000750  0.009948 -0.000000)
 20:   1418.16   0.000925    4.67  0.000204  (-0.009218  0.010889  0.000001)
 21:   1481.90   0.000000    0.00  0.000000  (-0.000000  0.000001  0.000001)
 22:   1653.79   0.003980   20.11  0.000751  ( 0.026548 -0.006792  0.000001)
 23:   1718.95   0.000000    0.00  0.000000  ( 0.000000  0.000000 -0.000000)
 24:   3135.65   0.000000    0.00  0.000000  ( 0.000001  0.000005 -0.000000)
 25:   3141.95   0.002081   10.52  0.000207  ( 0.002206 -0.014207  0.000000)
 26:   3145.85   0.000000    0.00  0.000000  ( 0.000007  0.000022  0.000001)
 27:   3148.42   0.001045    5.28  0.000104  (-0.005010 -0.008859 -0.000001)
 28:   3236.65   0.001935    9.78  0.000187  ( 0.004867  0.012763  0.000000)
 29:   3236.71   0.000020    0.10  0.000002  ( 0.000496  0.001301  0.000000)

--------------------------
THERMOCHEMISTRY AT 298.15K
--------------------------

Temperature         ...   298.15 K
Pressure            ...     1.00 atm
Total Mass          ...    54.09 AMU
Quasi RRHO          ...     True
Cut-Off Frequency   ...     1.00 cm^-1

Throughout the following assumptions are being made:
  (1) The electronic state is orbitally nondegenerate
  (2) There are no thermally accessible electronically excited states
  (3) Hindered rotations indicated by low frequency modes are not
      treated as such but are treated as vibrations and this may
      cause some error
  (4) All equations used are the standard statistical mechanics
      equations for an ideal gas
  (5) All vibrations are strictly harmonic

freq.     196.47  E(vib)   ...       0.36
freq.     324.38  E(vib)   ...       0.25
freq.     523.50  E(vib)   ...       0.13
freq.     568.40  E(vib)   ...       0.11
freq.     798.66  E(vib)   ...       0.05
freq.     917.64  E(vib)   ...       0.03
freq.     972.89  E(vib)   ...       0.03
freq.     975.46  E(vib)   ...       0.03
freq.    1013.23  E(vib)   ...       0.02
freq.    1025.68  E(vib)   ...       0.02
freq.    1072.50  E(vib)   ...       0.02
freq.    1244.01  E(vib)   ...       0.01
freq.    1316.74  E(vib)   ...       0.01
freq.    1323.57  E(vib)   ...       0.01
freq.    1418.16  E(vib)   ...       0.00
freq.    1481.90  E(vib)   ...       0.00
freq.    1653.79  E(vib)   ...       0.00
freq.    1718.95  E(vib)   ...       0.00
freq.    3135.65  E(vib)   ...       0.00
freq.    3141.95  E(vib)   ...       0.00
freq.    3145.85  E(vib)   ...       0.00
freq.    3148.42  E(vib)   ...       0.00
freq.    3236.65  E(vib)   ...       0.00
freq.    3236.71  E(vib)   ...       0.00

------------
INNER ENERGY
------------

The inner energy is: U= E(el) + E(ZPE) + E(vib) + E(rot) + E(trans)
    E(el)   - is the total energy from the electronic structure calculation
              = E(kin-el) + E(nuc-el) + E(el-el) + E(nuc-nuc)
    E(ZPE)  - the the zero temperature vibrational energy from the frequency calculation
    E(vib)  - the the finite temperature correction to E(ZPE) due to population
              of excited vibrational states
    E(rot)  - is the rotational thermal energy
    E(trans)- is the translational thermal energy

Summary of contributions to the inner energy U:
Electronic energy                ...   -155.96834436 Eh
Zero point energy                ...      0.08563898 Eh      53.74 kcal/mol
Thermal vibrational correction   ...      0.00170069 Eh       1.07 kcal/mol
Thermal rotational correction    ...      0.00141627 Eh       0.89 kcal/mol
Thermal translational correction ...      0.00141627 Eh       0.89 kcal/mol
-----------------------------------------------------------------------
Total thermal energy                   -155.87817214 Eh

Summary of corrections to the electronic energy:
(perhaps to be used in another calculation)
Total thermal correction                  0.00453323 Eh       2.84 kcal/mol
Non-thermal (ZPE) correction              0.08563898 Eh      53.74 kcal/mol
-----------------------------------------------------------------------
Total correction                          0.09017221 Eh      56.58 kcal/mol

--------
ENTHALPY
--------

The enthalpy is H = U + kB*T
                kB is Boltzmann's constant
Total thermal energy              ...   -155.87817214 Eh
Thermal Enthalpy correction       ...      0.00094421 Eh       0.59 kcal/mol
-----------------------------------------------------------------------
Total Enthalpy                    ...   -155.87722793 Eh

Note: Rotational entropy computed according to Herzberg
Infrared and Raman Spectra, Chapter V,1, Van Nostrand Reinhold, 1945
Point Group:  C2h, Symmetry Number:   2
Rotational constants in cm-1:     1.410580     0.148321     0.134209

Vibrational entropy computed according to the QRRHO of S. Grimme
Chem.Eur.J. 2012 18 9955 using a reference frequency of 100.0 cm-1

-------
ENTROPY
-------

The entropy contributions are T*S = T*(S(el)+S(vib)+S(rot)+S(trans))
     S(el)   - electronic entropy
     S(vib)  - vibrational entropy
     S(rot)  - rotational entropy
     S(trans)- translational entropy
The entropies will be listed as multiplied by the temperature to get
units of energy

Electronic entropy                ...      0.00000000 Eh      0.00 kcal/mol
Vibrational entropy               ...      0.00260535 Eh      1.63 kcal/mol
Rotational entropy                ...      0.01054301 Eh      6.62 kcal/mol
Translational entropy             ...      0.01800097 Eh     11.30 kcal/mol
-----------------------------------------------------------------------
Final entropy term                ...      0.03114933 Eh     19.55 kcal/mol

In case the symmetry of your molecule has not been determined correctly
or in case you have a reason to use a different symmetry number we print
out the resulting rotational entropy values for sn=1,12:

 non-linear molecules -----------------------------------
|  sn= 1 | S(rot)=       0.01119746 Eh      7.03 kcal/mol|
|  sn= 2 | S(rot)=       0.01054301 Eh      6.62 kcal/mol|
|  sn= 3 | S(rot)=       0.01016018 Eh      6.38 kcal/mol|
|  sn= 4 | S(rot)=       0.00988855 Eh      6.21 kcal/mol|
|  sn= 5 | S(rot)=       0.00967786 Eh      6.07 kcal/mol|
|  sn= 6 | S(rot)=       0.00950572 Eh      5.96 kcal/mol|
|  sn= 7 | S(rot)=       0.00936017 Eh      5.87 kcal/mol|
|  sn= 8 | S(rot)=       0.00923410 Eh      5.79 kcal/mol|
|  sn= 9 | S(rot)=       0.00912289 Eh      5.72 kcal/mol|
|  sn=10 | S(rot)=       0.00902341 Eh      5.66 kcal/mol|
|  sn=11 | S(rot)=       0.00893342 Eh      5.61 kcal/mol|
|  sn=12 | S(rot)=       0.00885126 Eh      5.55 kcal/mol|
 linear molecules ---------------------------------------
|  Dinfh | S(rot)=       0.00722206 Eh      4.53 kcal/mol|
|  Cinfv | S(rot)=       0.00787652 Eh      4.94 kcal/mol|
 --------------------------------------------------------

-------------------
GIBBS FREE ENERGY
-------------------

The Gibbs free energy is G = H - T*S

Total enthalpy                    ...   -155.87722793 Eh
Total entropy correction          ...     -0.03114933 Eh    -19.55 kcal/mol
-----------------------------------------------------------------------
Final Gibbs free energy         ...   -155.90837726 Eh

For completeness - the Gibbs free energy minus the electronic energy
G-E(el)                           ...      0.05996710 Eh     37.63 kcal/mol

                             ****ORCA TERMINATED NORMALLY****
TOTAL RUN TIME: 0 days 0 hours 5 minutes 56 seconds 468 msec
