                         Program Version 6.0.1  -  RELEASE   -
|  1> ! pbe def2-sv(p) def2/J RI DEFGRID1 loosescf d4 GCP(DFT/SV(P)) printgap
|  2> %output
|  3>     printlevel normal
|  4> end
|  5> * xyz 0 1
|  6> C -2.5570092999 -0.7126817055 -0.2999366498
|  7> C -1.1775630603 -0.3041777044 0.2300287203
|  8> H -1.2143697016 -0.2564667939 1.3321917947
|  9> C -0.7311361679 1.064860196 -0.3197109885
| 10> H -0.7346131699 1.0190339758 -1.4165177983
| 11> C 0.6957875415 1.337101057 0.1742545836
| 12> H 0.6983148145 1.4173068433 1.270339876
| 13> C 1.6208526498 0.1714549263 -0.2225479311
| 14> H 1.654807797 0.1013716239 -1.3269417875
| 15> C 1.0435904322 -1.1505374625 0.3233287374
| 16> H 1.045173545 -1.1174769724 1.4237748581
| 17> O -0.2739527248 -1.3144364539 -0.1692519074
| 18> O 1.7717512606 -2.2586078637 -0.0258238023
| 19> O 2.9066187397 0.3695289618 0.290190093
| 20> O 1.2215096015 2.5600201278 -0.282201206
| 21> O -1.6187304789 2.0969317013 0.0056059551
| 22> O -3.0256828011 -1.8706747397 0.3271138903
| 23> H -2.4808585539 -0.8547471091 -1.386775404
| 24> H -3.2783119046 0.0794796737 -0.0917642929
| 25> H 1.8190856963 -2.321455879 -0.9881426804
| 26> H 3.0984268331 1.3167531401 0.2348197331
| 27> H 0.9418529437 2.7100026532 -1.1929042522
| 28> H -1.6129224566 2.2385778076 0.9600265311
| 29> H -2.3433062834 -2.547614579 0.2355909859
| 30> *
| 31>
| 32>                          ****END OF INPUT****

CARTESIAN COORDINATES (ANGSTROEM)
---------------------------------
  C     -2.557009   -0.712682   -0.299937
  C     -1.177563   -0.304178    0.230029
  H     -1.214370   -0.256467    1.332192
  C     -0.731136    1.064860   -0.319711
  H     -0.734613    1.019034   -1.416518
  C      0.695788    1.337101    0.174255
  H      0.698315    1.417307    1.270340
  C      1.620853    0.171455   -0.222548
  H      1.654808    0.101372   -1.326942
  C      1.043590   -1.150537    0.323329
  H      1.045174   -1.117477    1.423775
  O     -0.273953   -1.314436   -0.169252
  O      1.771751   -2.258608   -0.025824
  O      2.906619    0.369529    0.290190
  O      1.221510    2.560020   -0.282201
  O     -1.618730    2.096932    0.005606
  O     -3.025683   -1.870675    0.327114
  H     -2.480859   -0.854747   -1.386775
  H     -3.278312    0.079480   -0.091764
  H      1.819086   -2.321456   -0.988143
  H      3.098427    1.316753    0.234820
  H      0.941853    2.710003   -1.192904
  H     -1.612922    2.238578    0.960027
  H     -2.343306   -2.547615    0.235591

 Total Charge           Charge          ....    0
 Multiplicity           Mult            ....    1
 Number of Electrons    NEL             ....   96
 Basis Dimension        Dim             ....  192

ORBITAL ENERGIES
----------------

  NO   OCC          E(Eh)            E(eV)
   0   2.0000     -18.783314      -511.1200
   1   2.0000     -18.771873      -510.8086
   2   2.0000     -18.769049      -510.7318
   3   2.0000     -18.764400      -510.6053
   4   2.0000     -18.753397      -510.3059
   5   2.0000     -18.746216      -510.1105
   6   2.0000      -9.993308      -271.9317
   7   2.0000      -9.958067      -270.9728
   8   2.0000      -9.956596      -270.9327
   9   2.0000      -9.952165      -270.8122
  10   2.0000      -9.948029      -270.6996
  11   2.0000      -9.933876      -270.3145
  12   2.0000      -0.992849       -27.0168
  13   2.0000      -0.962233       -26.1837
  14   2.0000      -0.946267       -25.7492
  15   2.0000      -0.933195       -25.3935
  16   2.0000      -0.925225       -25.1767
  17   2.0000      -0.917559       -24.9680
  18   2.0000      -0.713843       -19.4247
  19   2.0000      -0.696289       -18.9470
  20   2.0000      -0.621819       -16.9206
  21   2.0000      -0.595551       -16.2058
  22   2.0000      -0.573085       -15.5944
  23   2.0000      -0.558678       -15.2024
  24   2.0000      -0.513884       -13.9835
  25   2.0000      -0.487536       -13.2665
  26   2.0000      -0.479390       -13.0449
  27   2.0000      -0.462050       -12.5730
  28   2.0000      -0.458798       -12.4845
  29   2.0000      -0.438640       -11.9360
  30   2.0000      -0.429100       -11.6764
  31   2.0000      -0.420783       -11.4501
  32   2.0000      -0.397697       -10.8219
  33   2.0000      -0.376948       -10.2573
  34   2.0000      -0.362644        -9.8681
  35   2.0000      -0.360447        -9.8083
  36   2.0000      -0.328556        -8.9405
  37   2.0000      -0.318675        -8.6716
  38   2.0000      -0.317507        -8.6398
  39   2.0000      -0.297904        -8.1064
  40   2.0000      -0.293880        -7.9969
  41   2.0000      -0.287230        -7.8159
  42   2.0000      -0.266731        -7.2581
  43   2.0000      -0.255850        -6.9620
  44   2.0000      -0.235501        -6.4083
  45   2.0000      -0.225260        -6.1296
  46   2.0000      -0.222667        -6.0591
  47   2.0000      -0.211660        -5.7595
  48   0.0000       0.005822         0.1584
  49   0.0000       0.010140         0.2759
  50   0.0000       0.037313         1.0153
  51   0.0000       0.038787         1.0554
  52   0.0000       0.043639         1.1875

MULLIKEN ATOMIC CHARGES
-----------------------
   0 C :    0.117444
   1 C :   -0.048852
   2 H :    0.047476
   3 C :    0.051416
   4 H :    0.053860
   5 C :    0.030476
   6 H :    0.055017
   7 C :    0.042357
   8 H :    0.025013
   9 C :    0.206596
  10 H :    0.056599
  11 O :   -0.315484
  12 O :   -0.357487
  13 O :   -0.399969
  14 O :   -0.406761
  15 O :   -0.399375
  16 O :   -0.429310
  17 H :    0.066051
  18 H :    0.086796
  19 H :    0.302557
  20 H :    0.304823
  21 H :    0.306920
  22 H :    0.303791
  23 H :    0.300047
Sum of atomic charges:    0.0000000

LOEWDIN ATOMIC CHARGES
----------------------
   0 C :   -0.124681
   1 C :   -0.083766
   2 H :    0.100299
   3 C :   -0.083775
   4 H :    0.112590
   5 C :   -0.092273
   6 H :    0.111616
   7 C :   -0.098418
   8 H :    0.090181
   9 C :    0.004516
  10 H :    0.102416
  11 O :   -0.159768
  12 O :   -0.272894
  13 O :   -0.314350
  14 O :   -0.310333
  15 O :   -0.302197
  16 O :   -0.331557
  17 H :    0.099920
  18 H :    0.117975
  19 H :    0.288711
  20 H :    0.283238
  21 H :    0.290630
  22 H :    0.289633
  23 H :    0.282285

  Mayer bond orders larger than 0.100000
B(  0-C ,  1-C ) :   1.0497 B(  0-C , 16-O ) :   1.0858 B(  0-C , 17-H ) :   0.9032
B(  0-C , 18-H ) :   0.9115 B(  1-C ,  2-H ) :   0.8678 B(  1-C ,  3-C ) :   0.9773
B(  1-C , 11-O ) :   0.9799 B(  3-C ,  4-H ) :   0.8586 B(  3-C ,  5-C ) :   1.0132
B(  3-C , 15-O ) :   1.0514 B(  5-C ,  6-H ) :   0.8668 B(  5-C ,  7-C ) :   0.9973
B(  5-C , 14-O ) :   1.0571 B(  7-C ,  8-H ) :   0.8517 B(  7-C ,  9-C ) :   0.9776
B(  7-C , 13-O ) :   1.1068 B(  9-C , 10-H ) :   0.8796 B(  9-C , 11-O ) :   0.9835
B(  9-C , 12-O ) :   1.1754 B( 12-O , 19-H ) :   0.8440 B( 13-O , 20-H ) :   0.8291
B( 14-O , 21-H ) :   0.8460 B( 15-O , 22-H ) :   0.8474 B( 16-O , 23-H ) :   0.8443

Dispersion correction           -0.023708247
FINAL SINGLE POINT ENERGY      -685.697223013167

DIPOLE MOMENT
-------------

Method             : SCF
Type of density    : Electron Density
Multiplicity       :   1
Irrep              :   0
Energy             :  -685.8272747201410766 Eh
Relativity type    :
Basis              : AO
                                X                 Y                 Z
Electronic contribution:      2.390647977      -1.014809797       0.310473497
Nuclear contribution   :     -2.243372575       1.668231440      -0.885635189
                        -----------------------------------------
Total Dipole Moment    :      0.147275402       0.653421643      -0.575161692
                        -----------------------------------------
Magnitude (a.u.)       :      0.882870806
Magnitude (Debye)      :      2.244079250

Rotational constants in cm-1:             0.038994             0.026139             0.016369
Rotational constants in MHz :          1169.004012           783.627876           490.741531

                             ****ORCA TERMINATED NORMALLY****
TOTAL RUN TIME: 0 days 0 hours 0 minutes 8 seconds 843 msec
