                         Program Version 6.0.1  -  RELEASE   -
|  1> ! r2scan-3c def2/J RI DEFGRID2 scfconv6 printgap
|  2> %output
|  3>     printlevel normal
|  4> end
|  5> * xyz 0 1
|  6> C -2.2454511904 -0.4206107333 -2.2142e-06
|  7> C -1.1840213295 0.6742756784 -2.7151e-06
|  8> Br 0.6421001614 -0.0445533834 -2.636e-06
|  9> H -2.8796925429 -0.3393152419 -0.8795810235
| 10> H -1.798713667 -1.4117724227 -0.0039495253
| 11> H -2.8749168764 -0.3441528147 0.8834498523
| 12> H -1.240983889 1.3019639051 0.8872564657
| 13> H -1.2413878913 1.3024777775 -0.886908053
| 14> *
| 15>
| 16>                          ****END OF INPUT****

CARTESIAN COORDINATES (ANGSTROEM)
---------------------------------
  C     -2.245451   -0.420611   -0.000002
  C     -1.184021    0.674276   -0.000003
  Br     0.642100   -0.044553   -0.000003
  H     -2.879693   -0.339315   -0.879581
  H     -1.798714   -1.411772   -0.003950
  H     -2.874917   -0.344153    0.883450
  H     -1.240984    1.301964    0.887256
  H     -1.241388    1.302478   -0.886908

 Total Charge           Charge          ....    0
 Multiplicity           Mult            ....    1
 Number of Electrons    NEL             ....   52
 Basis Dimension        Dim             ....   99

ORBITAL ENERGIES
----------------

  NO   OCC          E(Eh)            E(eV)
   0   2.0000    -482.211964    -13121.6546
   1   2.0000     -62.283953     -1694.8325
   2   2.0000     -56.064353     -1525.5886
   3   2.0000     -56.061700     -1525.5164
   4   2.0000     -56.061664     -1525.5154
   5   2.0000     -10.095864      -274.7224
   6   2.0000     -10.040086      -273.2046
   7   2.0000      -8.616216      -234.4591
   8   2.0000      -6.423729      -174.7985
   9   2.0000      -6.410038      -174.4260
  10   2.0000      -6.409913      -174.4226
  11   2.0000      -2.521270       -68.6073
  12   2.0000      -2.517922       -68.5161
  13   2.0000      -2.517800       -68.5128
  14   2.0000      -2.507630       -68.2361
  15   2.0000      -2.507621       -68.2358
  16   2.0000      -0.784407       -21.3448
  17   2.0000      -0.696506       -18.9529
  18   2.0000      -0.590194       -16.0600
  19   2.0000      -0.445296       -12.1171
  20   2.0000      -0.416671       -11.3382
  21   2.0000      -0.378372       -10.2960
  22   2.0000      -0.347419        -9.4537
  23   2.0000      -0.330658        -8.9977
  24   2.0000      -0.251092        -6.8325
  25   2.0000      -0.248807        -6.7704
  26   0.0000      -0.028880        -0.7859
  27   0.0000       0.092255         2.5104
  28   0.0000       0.113126         3.0783
  29   0.0000       0.121833         3.3153
  30   0.0000       0.159516         4.3407

MULLIKEN ATOMIC CHARGES
-----------------------
   0 C :   -0.470186
   1 C :   -0.147081
   2 Br:   -0.193547
   3 H :    0.153556
   4 H :    0.175286
   5 H :    0.153631
   6 H :    0.164182
   7 H :    0.164159
Sum of atomic charges:   -0.0000000

LOEWDIN ATOMIC CHARGES
----------------------
   0 C :   -0.446314
   1 C :   -0.400709
   2 Br:    0.054246
   3 H :    0.157830
   4 H :    0.165591
   5 H :    0.157824
   6 H :    0.155773
   7 H :    0.155759

  Mayer bond orders larger than 0.100000
B(  0-C ,  1-C ) :   0.9001 B(  0-C ,  3-H ) :   0.9740 B(  0-C ,  4-H ) :   0.9707
B(  0-C ,  5-H ) :   0.9741 B(  1-C ,  2-Br) :   0.9501 B(  1-C ,  6-H ) :   0.9667
B(  1-C ,  7-H ) :   0.9667

Dispersion correction           -0.001386660
FINAL SINGLE POINT ENERGY     -2653.327009392857

DIPOLE MOMENT
-------------

Method             : SCF
Type of density    : Electron Density
Multiplicity       :   1
Irrep              :   0
Energy             : -2653.3299337395487782 Eh
Relativity type    :
Basis              : AO
                                X                 Y                 Z
Electronic contribution:     14.495040202      -0.660276298      -0.000327141
Nuclear contribution   :    -15.377305670       0.891408582       0.000275642
                        -----------------------------------------
Total Dipole Moment    :     -0.882265467       0.231132283      -0.000051499
                        -----------------------------------------
Magnitude (a.u.)       :      0.912038645
Magnitude (Debye)      :      2.318218003

Rotational constants in cm-1:             1.018234             0.123449             0.114830
Rotational constants in MHz :         30525.901741          3700.908568          3442.516543

                             ****ORCA TERMINATED NORMALLY****
TOTAL RUN TIME: 0 days 0 hours 0 minutes 6 seconds 14 msec
