                         Program Version 6.0.1  -  RELEASE   -
|  1> ! pbe def2-sv(p) def2/J RI DEFGRID1 loosescf d4 GCP(DFT/SV(P)) printgap
|  2> %output
|  3>     printlevel normal
|  4> end
|  5> * xyz 0 1
|  6> C -1.9557499064 0.1065364877 -0.0274902035
|  7> C -0.5746274762 -0.5309118409 0.025626999
|  8> C 0.5336752298 0.5152070434 -0.0255725147
|  9> O 1.7786806518 -0.1490115598 0.0285960247
| 10> H -2.7261933059 -0.6591041616 0.00994016
| 11> H -2.0994704998 0.7805888354 0.8142658137
| 12> H -2.0804231084 0.6753529389 -0.9464563996
| 13> H -0.441162223 -1.214205023 -0.8142002521
| 14> H -0.4598393559 -1.1081632614 0.944107374
| 15> H 0.4500343969 1.0990995918 -0.9544777895
| 16> H 0.4303895531 1.2071407578 0.8237765768
| 17> H 2.4863096835 0.5022708941 -0.0039411112
| 18> *
| 19>
| 20>                          ****END OF INPUT****

CARTESIAN COORDINATES (ANGSTROEM)
---------------------------------
  C     -1.955750    0.106536   -0.027490
  C     -0.574627   -0.530912    0.025627
  C      0.533675    0.515207   -0.025573
  O      1.778681   -0.149012    0.028596
  H     -2.726193   -0.659104    0.009940
  H     -2.099470    0.780589    0.814266
  H     -2.080423    0.675353   -0.946456
  H     -0.441162   -1.214205   -0.814200
  H     -0.459839   -1.108163    0.944107
  H      0.450034    1.099100   -0.954478
  H      0.430390    1.207141    0.823777
  H      2.486310    0.502271   -0.003941

 Total Charge           Charge          ....    0
 Multiplicity           Mult            ....    1
 Number of Electrons    NEL             ....   34
 Basis Dimension        Dim             ....   72

ORBITAL ENERGIES
----------------

  NO   OCC          E(Eh)            E(eV)
   0   2.0000     -18.735613      -509.8219
   1   2.0000      -9.925789      -270.0944
   2   2.0000      -9.879845      -268.8443
   3   2.0000      -9.875283      -268.7201
   4   2.0000      -0.913429       -24.8557
   5   2.0000      -0.699000       -19.0208
   6   2.0000      -0.599300       -16.3078
   7   2.0000      -0.517907       -14.0930
   8   2.0000      -0.456717       -12.4279
   9   2.0000      -0.423395       -11.5212
  10   2.0000      -0.381001       -10.3676
  11   2.0000      -0.357480        -9.7275
  12   2.0000      -0.319165        -8.6849
  13   2.0000      -0.313294        -8.5252
  14   2.0000      -0.292000        -7.9457
  15   2.0000      -0.268612        -7.3093
  16   2.0000      -0.208672        -5.6783
  17   0.0000       0.032508         0.8846
  18   0.0000       0.045430         1.2362
  19   0.0000       0.082683         2.2499
  20   0.0000       0.093240         2.5372
  21   0.0000       0.109669         2.9843

MULLIKEN ATOMIC CHARGES
-----------------------
   0 C :   -0.292223
   1 C :   -0.188429
   2 C :   -0.011121
   3 O :   -0.432058
   4 H :    0.108622
   5 H :    0.100102
   6 H :    0.100006
   7 H :    0.094940
   8 H :    0.094864
   9 H :    0.065393
  10 H :    0.065400
  11 H :    0.294506
Sum of atomic charges:    0.0000000

LOEWDIN ATOMIC CHARGES
----------------------
   0 C :   -0.340632
   1 C :   -0.245715
   2 C :   -0.122743
   3 O :   -0.351009
   4 H :    0.122259
   5 H :    0.116764
   6 H :    0.116744
   7 H :    0.119784
   8 H :    0.119762
   9 H :    0.090856
  10 H :    0.090857
  11 H :    0.283073

  Mayer bond orders larger than 0.100000
B(  0-C ,  1-C ) :   1.1343 B(  0-C ,  4-H ) :   0.9539 B(  0-C ,  5-H ) :   0.9555
B(  0-C ,  6-H ) :   0.9555 B(  1-C ,  2-C ) :   1.1242 B(  1-C ,  7-H ) :   0.9250
B(  1-C ,  8-H ) :   0.9251 B(  2-C ,  3-O ) :   1.0921 B(  2-C ,  9-H ) :   0.9245
B(  2-C , 10-H ) :   0.9245 B(  3-O , 11-H ) :   0.8552

Dispersion correction           -0.006198449
FINAL SINGLE POINT ENERGY      -193.874257959547

DIPOLE MOMENT
-------------

Method             : SCF
Type of density    : Electron Density
Multiplicity       :   1
Irrep              :   0
Energy             :  -193.9235771491561593 Eh
Relativity type    :
Basis              : AO
                                X                 Y                 Z
Electronic contribution:      4.152815119      -0.635513236       0.083884571
Nuclear contribution   :     -4.139386175       1.201434825      -0.118708986
                        -----------------------------------------
Total Dipole Moment    :      0.013428944       0.565921589      -0.034824414
                        -----------------------------------------
Magnitude (a.u.)       :      0.567151057
Magnitude (Debye)      :      1.441583423

Rotational constants in cm-1:             0.889023             0.127648             0.119084
Rotational constants in MHz :         26652.229347          3826.788140          3570.036652

                             ****ORCA TERMINATED NORMALLY****
TOTAL RUN TIME: 0 days 0 hours 0 minutes 6 seconds 547 msec
