                         Program Version 6.0.1  -  RELEASE   -
|  1> ! r2scan-3c def2/J RI DEFGRID2 scfconv6 printgap
|  2> %output
|  3>     printlevel normal
|  4> end
|  5> * xyz 0 1
|  6> C -2.2615183777 -0.9732334078 -0.1722452637
|  7> O -1.0118313506 -0.6383517437 0.4217032847
|  8> C -0.4617244517 0.5215708793 0.0758596523
|  9> O -0.9397222746 1.320680368 -0.6779330146
| 10> C 0.8911998906 0.6882385233 0.7658237883
| 11> C 1.8588336517 -0.1336645319 0.0832166747
| 12> N 2.6159512322 -0.7888867525 -0.4658620734
| 13> H -2.3416769329 -0.5200327887 -1.1615757017
| 14> H -3.0750430993 -0.6110030096 0.4589502529
| 15> H -2.2940770546 -2.0581531081 -0.2404131756
| 16> H 0.8182025226 0.3602097072 1.8046982667
| 17> H 1.1986365275 1.7344082137 0.7104951567
| 18> *
| 19>
| 20>                          ****END OF INPUT****

CARTESIAN COORDINATES (ANGSTROEM)
---------------------------------
  C     -2.261518   -0.973233   -0.172245
  O     -1.011831   -0.638352    0.421703
  C     -0.461724    0.521571    0.075860
  O     -0.939722    1.320680   -0.677933
  C      0.891200    0.688239    0.765824
  C      1.858834   -0.133665    0.083217
  N      2.615951   -0.788887   -0.465862
  H     -2.341677   -0.520033   -1.161576
  H     -3.075043   -0.611003    0.458950
  H     -2.294077   -2.058153   -0.240413
  H      0.818203    0.360210    1.804698
  H      1.198637    1.734408    0.710495

 Total Charge           Charge          ....    0
 Multiplicity           Mult            ....    1
 Number of Electrons    NEL             ....   52
 Basis Dimension        Dim             ....  173

ORBITAL ENERGIES
----------------

  NO   OCC          E(Eh)            E(eV)
   0   2.0000     -19.027746      -517.7713
   1   2.0000     -18.963982      -516.0362
   2   2.0000     -14.162309      -385.3760
   3   2.0000     -10.191503      -277.3249
   4   2.0000     -10.107336      -275.0346
   5   2.0000     -10.103861      -274.9400
   6   2.0000     -10.080903      -274.3153
   7   2.0000      -1.104887       -30.0655
   8   2.0000      -1.015781       -27.6408
   9   2.0000      -0.888986       -24.1905
  10   2.0000      -0.792292       -21.5594
  11   2.0000      -0.711757       -19.3679
  12   2.0000      -0.570781       -15.5317
  13   2.0000      -0.528098       -14.3703
  14   2.0000      -0.503043       -13.6885
  15   2.0000      -0.479879       -13.0582
  16   2.0000      -0.461343       -12.5538
  17   2.0000      -0.438680       -11.9371
  18   2.0000      -0.413052       -11.2397
  19   2.0000      -0.384932       -10.4745
  20   2.0000      -0.349600        -9.5131
  21   2.0000      -0.335644        -9.1333
  22   2.0000      -0.324879        -8.8404
  23   2.0000      -0.318292        -8.6612
  24   2.0000      -0.300344        -8.1728
  25   2.0000      -0.269822        -7.3422
  26   0.0000      -0.052259        -1.4220
  27   0.0000       0.001800         0.0490
  28   0.0000       0.007740         0.2106
  29   0.0000       0.037825         1.0293
  30   0.0000       0.077142         2.0991

MULLIKEN ATOMIC CHARGES
-----------------------
   0 C :   -0.287260
   1 O :   -0.181909
   2 C :    0.426352
   3 O :   -0.398297
   4 C :   -0.390961
   5 C :    0.194270
   6 N :   -0.234833
   7 H :    0.178984
   8 H :    0.155474
   9 H :    0.158150
  10 H :    0.187967
  11 H :    0.192063
Sum of atomic charges:    0.0000000

LOEWDIN ATOMIC CHARGES
----------------------
   0 C :   -0.036475
   1 O :   -0.584399
   2 C :    0.372100
   3 O :   -0.386561
   4 C :   -0.176417
   5 C :    0.147922
   6 N :   -0.294720
   7 H :    0.189731
   8 H :    0.174983
   9 H :    0.180521
  10 H :    0.207295
  11 H :    0.206020

  Mayer bond orders larger than 0.100000
B(  0-C ,  1-O ) :   0.8457 B(  0-C ,  7-H ) :   0.9643 B(  0-C ,  8-H ) :   0.9578
B(  0-C ,  9-H ) :   0.9660 B(  1-O ,  2-C ) :   1.0515 B(  2-C ,  3-O ) :   1.8657
B(  2-C ,  4-C ) :   0.9328 B(  4-C ,  5-C ) :   1.0482 B(  4-C , 10-H ) :   0.9504
B(  4-C , 11-H ) :   0.9534 B(  5-C ,  6-N ) :   2.8875

Dispersion correction           -0.002830368
FINAL SINGLE POINT ENERGY      -360.546959543450

DIPOLE MOMENT
-------------

Method             : SCF
Type of density    : Electron Density
Multiplicity       :   1
Irrep              :   0
Energy             :  -360.5518454834382283 Eh
Relativity type    :
Basis              : AO
                                X                 Y                 Z
Electronic contribution:      4.186218862       1.139364112      -0.464506040
Nuclear contribution   :     -5.356441621      -1.021124124       1.468598036
                        -----------------------------------------
Total Dipole Moment    :     -1.170222759       0.118239988       1.004091996
                        -----------------------------------------
Magnitude (a.u.)       :      1.546480758
Magnitude (Debye)      :      3.930841698

Rotational constants in cm-1:             0.172216             0.058130             0.050195
Rotational constants in MHz :          5162.902586          1742.693477          1504.810942

                             ****ORCA TERMINATED NORMALLY****
TOTAL RUN TIME: 0 days 0 hours 0 minutes 18 seconds 629 msec
