                         Program Version 6.0.1  -  RELEASE   -
|  1> ! pbe def2-sv(p) def2/J RI DEFGRID1 loosescf d4 GCP(DFT/SV(P)) printgap
|  2> %output
|  3>     printlevel normal
|  4> end
|  5> * xyz 0 1
|  6> C -3.9067120791 -1.5107250586 0.0682710022
|  7> C -2.9900134242 -1.9683192108 -0.8633944305
|  8> C -1.703659717 -1.4613277515 -0.8780273378
|  9> C -1.3234932345 -0.4812372853 0.0338129445
| 10> C -2.2476735709 -0.0303048022 0.97091629
| 11> C -3.5310061608 -0.5453229417 0.9871683126
| 12> C 0.0521564562 0.0482722269 0.0097349848
| 13> C 1.1255242974 -0.835446593 0.0743382561
| 14> C 2.4265336089 -0.3648970554 0.0592944984
| 15> C 2.6902592093 0.9933422105 -0.0266536623
| 16> C 1.6325968061 1.8802221031 -0.1050423811
| 17> C 0.3279942476 1.4126606308 -0.0866114285
| 18> Cl -0.9607647793 2.5564144737 -0.2388888713
| 19> Cl 3.7373287277 -1.4863385903 0.1496139637
| 20> H -4.9110168761 -1.9072774557 0.0795626154
| 21> H -3.2781115381 -2.7220523039 -1.5813504491
| 22> H -0.9897983877 -1.8094993376 -1.61042483
| 23> H -1.9536397067 0.7122576408 1.6975218443
| 24> H -4.2406012028 -0.1911890446 1.7203460921
| 25> H 0.9332720574 -1.8944795369 0.1505896656
| 26> H 3.7070821464 1.3514267972 -0.0369787001
| 27> H 1.8175674499 2.9397257853 -0.1844246433
| 28> *
| 29>
| 30>                          ****END OF INPUT****

CARTESIAN COORDINATES (ANGSTROEM)
---------------------------------
  C     -3.906712   -1.510725    0.068271
  C     -2.990013   -1.968319   -0.863394
  C     -1.703660   -1.461328   -0.878027
  C     -1.323493   -0.481237    0.033813
  C     -2.247674   -0.030305    0.970916
  C     -3.531006   -0.545323    0.987168
  C      0.052156    0.048272    0.009735
  C      1.125524   -0.835447    0.074338
  C      2.426534   -0.364897    0.059294
  C      2.690259    0.993342   -0.026654
  C      1.632597    1.880222   -0.105042
  C      0.327994    1.412661   -0.086611
  Cl    -0.960765    2.556414   -0.238889
  Cl     3.737329   -1.486339    0.149614
  H     -4.911017   -1.907277    0.079563
  H     -3.278112   -2.722052   -1.581350
  H     -0.989798   -1.809499   -1.610425
  H     -1.953640    0.712258    1.697522
  H     -4.240601   -0.191189    1.720346
  H      0.933272   -1.894480    0.150590
  H      3.707082    1.351427   -0.036979
  H      1.817567    2.939726   -0.184425

 Total Charge           Charge          ....    0
 Multiplicity           Mult            ....    1
 Number of Electrons    NEL             ....  114
 Basis Dimension        Dim             ....  220

ORBITAL ENERGIES
----------------

  NO   OCC          E(Eh)            E(eV)
   0   2.0000    -100.645858     -2738.7130
   1   2.0000    -100.644876     -2738.6863
   2   2.0000      -9.958145      -270.9749
   3   2.0000      -9.957253      -270.9506
   4   2.0000      -9.925323      -270.0818
   5   2.0000      -9.914340      -269.7829
   6   2.0000      -9.912965      -269.7455
   7   2.0000      -9.912934      -269.7446
   8   2.0000      -9.912603      -269.7356
   9   2.0000      -9.900176      -269.3975
  10   2.0000      -9.899341      -269.3748
  11   2.0000      -9.898446      -269.3504
  12   2.0000      -9.897994      -269.3381
  13   2.0000      -9.897731      -269.3310
  14   2.0000      -9.181496      -249.8412
  15   2.0000      -9.180821      -249.8228
  16   2.0000      -7.012832      -190.8289
  17   2.0000      -7.012137      -190.8100
  18   2.0000      -7.001597      -190.5231
  19   2.0000      -7.000828      -190.5022
  20   2.0000      -7.000786      -190.5011
  21   2.0000      -7.000215      -190.4855
  22   2.0000      -0.833604       -22.6835
  23   2.0000      -0.806424       -21.9439
  24   2.0000      -0.784599       -21.3500
  25   2.0000      -0.752068       -20.4648
  26   2.0000      -0.715194       -19.4614
  27   2.0000      -0.677281       -18.4297
  28   2.0000      -0.667755       -18.1705
  29   2.0000      -0.646462       -17.5911
  30   2.0000      -0.580355       -15.7923
  31   2.0000      -0.559986       -15.2380
  32   2.0000      -0.543731       -14.7957
  33   2.0000      -0.523624       -14.2485
  34   2.0000      -0.484328       -13.1792
  35   2.0000      -0.461631       -12.5616
  36   2.0000      -0.450358       -12.2549
  37   2.0000      -0.424308       -11.5460
  38   2.0000      -0.412996       -11.2382
  39   2.0000      -0.407474       -11.0879
  40   2.0000      -0.398573       -10.8457
  41   2.0000      -0.387476       -10.5438
  42   2.0000      -0.382758       -10.4154
  43   2.0000      -0.372024       -10.1233
  44   2.0000      -0.350141        -9.5278
  45   2.0000      -0.344932        -9.3861
  46   2.0000      -0.334125        -9.0920
  47   2.0000      -0.330102        -8.9825
  48   2.0000      -0.311196        -8.4681
  49   2.0000      -0.308822        -8.4035
  50   2.0000      -0.277164        -7.5420
  51   2.0000      -0.274227        -7.4621
  52   2.0000      -0.271405        -7.3853
  53   2.0000      -0.256961        -6.9923
  54   2.0000      -0.235085        -6.3970
  55   2.0000      -0.227396        -6.1878
  56   2.0000      -0.211186        -5.7467
  57   0.0000      -0.067113        -1.8262
  58   0.0000      -0.053836        -1.4650
  59   0.0000      -0.040246        -1.0952
  60   0.0000      -0.026765        -0.7283
  61   0.0000       0.001786         0.0486

MULLIKEN ATOMIC CHARGES
-----------------------
   0 C :   -0.042357
   1 C :   -0.051178
   2 C :   -0.095261
   3 C :    0.066123
   4 C :   -0.077423
   5 C :   -0.056674
   6 C :    0.087486
   7 C :   -0.155094
   8 C :    0.137223
   9 C :   -0.072432
  10 C :   -0.097576
  11 C :    0.069831
  12 Cl:   -0.063254
  13 Cl:   -0.080380
  14 H :    0.056913
  15 H :    0.055765
  16 H :    0.050485
  17 H :    0.049666
  18 H :    0.056141
  19 H :    0.050083
  20 H :    0.056845
  21 H :    0.055068
Sum of atomic charges:    0.0000000

LOEWDIN ATOMIC CHARGES
----------------------
   0 C :   -0.119666
   1 C :   -0.119945
   2 C :   -0.111775
   3 C :   -0.036964
   4 C :   -0.111300
   5 C :   -0.119357
   6 C :   -0.036870
   7 C :   -0.124884
   8 C :   -0.137420
   9 C :   -0.135669
  10 C :   -0.130401
  11 C :   -0.131425
  12 Cl:    0.151652
  13 Cl:    0.132978
  14 H :    0.125119
  15 H :    0.125617
  16 H :    0.126659
  17 H :    0.123312
  18 H :    0.125786
  19 H :    0.135977
  20 H :    0.134311
  21 H :    0.134264

  Mayer bond orders larger than 0.100000
B(  0-C ,  1-C ) :   1.3798 B(  0-C ,  5-C ) :   1.3745 B(  0-C , 14-H ) :   0.9654
B(  1-C ,  2-C ) :   1.3638 B(  1-C , 15-H ) :   0.9635 B(  2-C ,  3-C ) :   1.3867
B(  2-C , 16-H ) :   0.9614 B(  3-C ,  4-C ) :   1.3741 B(  3-C ,  6-C ) :   0.9586
B(  4-C ,  5-C ) :   1.3763 B(  4-C , 17-H ) :   0.9602 B(  5-C , 18-H ) :   0.9630
B(  6-C ,  7-C ) :   1.3631 B(  6-C , 11-C ) :   1.4075 B(  7-C ,  8-C ) :   1.3393
B(  7-C , 19-H ) :   0.9649 B(  8-C ,  9-C ) :   1.3717 B(  8-C , 13-Cl) :   0.9669
B(  9-C , 10-C ) :   1.3472 B(  9-C , 20-H ) :   0.9655 B( 10-C , 11-C ) :   1.3600
B( 10-C , 21-H ) :   0.9613 B( 11-C , 12-Cl) :   1.0195

Dispersion correction           -0.033083676
FINAL SINGLE POINT ENERGY     -1380.848278928906

DIPOLE MOMENT
-------------

Method             : SCF
Type of density    : Electron Density
Multiplicity       :   1
Irrep              :   0
Energy             : -1380.8924387630402180 Eh
Relativity type    :
Basis              : AO
                                X                 Y                 Z
Electronic contribution:     11.893085446       4.738463526      -0.328239181
Nuclear contribution   :    -12.090779141      -4.739657422       0.340147784
                        -----------------------------------------
Total Dipole Moment    :     -0.197693695      -0.001193896       0.011908603
                        -----------------------------------------
Magnitude (a.u.)       :      0.198055642
Magnitude (Debye)      :      0.503417434

Rotational constants in cm-1:             0.028622             0.011848             0.008869
Rotational constants in MHz :           858.058072           355.181642           265.884895

                             ****ORCA TERMINATED NORMALLY****
TOTAL RUN TIME: 0 days 0 hours 0 minutes 52 seconds 993 msec
