                         Program Version 6.0.1  -  RELEASE   -
|  1> ! r2scan-3c def2/J RI DEFGRID2 scfconv6 printgap
|  2> %output
|  3>     printlevel normal
|  4> end
|  5> * xyz 0 1
|  6> C -1.0935118621 -1.8636271303 0.0002989422
|  7> C 0.239111021 -1.4887476557 1.01122e-05
|  8> C 0.5490594571 -0.1361100983 -0.0002249364
|  9> C -0.4401615984 0.8386420875 -0.0002929937
| 10> C -1.7731398108 0.4510019816 -8.17614e-05
| 11> C -2.0925025534 -0.9088718823 0.000273632
| 12> O -2.7851961798 1.3445836606 -0.0001979578
| 13> N 1.9300776108 0.2782062712 -6.17266e-05
| 14> O 2.1598142735 1.4694777099 0.0007056072
| 15> O 2.778501484 -0.5868586118 -0.0004660248
| 16> H -1.355835995 -2.9097981633 0.0005245559
| 17> H 1.0350891107 -2.2160009347 2.51291e-05
| 18> H -0.1543732749 1.8811058446 -0.0005034013
| 19> H -3.1336051893 -1.1889720806 0.00052885
| 20> H -2.4416493741 2.2470174655 -0.0001754267
| 21> *
| 22>
| 23>                          ****END OF INPUT****

CARTESIAN COORDINATES (ANGSTROEM)
---------------------------------
  C     -1.093512   -1.863627    0.000299
  C      0.239111   -1.488748    0.000010
  C      0.549059   -0.136110   -0.000225
  C     -0.440162    0.838642   -0.000293
  C     -1.773140    0.451002   -0.000082
  C     -2.092503   -0.908872    0.000274
  O     -2.785196    1.344584   -0.000198
  N      1.930078    0.278206   -0.000062
  O      2.159814    1.469478    0.000706
  O      2.778501   -0.586859   -0.000466
  H     -1.355836   -2.909798    0.000525
  H      1.035089   -2.216001    0.000025
  H     -0.154373    1.881106   -0.000503
  H     -3.133605   -1.188972    0.000529
  H     -2.441649    2.247017   -0.000175

 Total Charge           Charge          ....    0
 Multiplicity           Mult            ....    1
 Number of Electrons    NEL             ....   72
 Basis Dimension        Dim             ....  235

ORBITAL ENERGIES
----------------

  NO   OCC          E(Eh)            E(eV)
   0   2.0000     -19.011215      -517.3215
   1   2.0000     -18.984095      -516.5835
   2   2.0000     -18.983122      -516.5570
   3   2.0000     -14.397086      -391.7646
   4   2.0000     -10.128631      -275.6141
   5   2.0000     -10.105828      -274.9936
   6   2.0000     -10.068254      -273.9711
   7   2.0000     -10.066556      -273.9249
   8   2.0000     -10.063423      -273.8397
   9   2.0000     -10.062199      -273.8063
  10   2.0000      -1.209998       -32.9257
  11   2.0000      -1.059516       -28.8309
  12   2.0000      -1.031958       -28.0810
  13   2.0000      -0.865243       -23.5445
  14   2.0000      -0.785580       -21.3767
  15   2.0000      -0.743081       -20.2203
  16   2.0000      -0.685424       -18.6513
  17   2.0000      -0.622960       -16.9516
  18   2.0000      -0.574852       -15.6425
  19   2.0000      -0.546878       -14.8813
  20   2.0000      -0.517158       -14.0726
  21   2.0000      -0.516151       -14.0452
  22   2.0000      -0.486853       -13.2479
  23   2.0000      -0.483776       -13.1642
  24   2.0000      -0.457731       -12.4555
  25   2.0000      -0.430396       -11.7117
  26   2.0000      -0.411669       -11.2021
  27   2.0000      -0.387586       -10.5468
  28   2.0000      -0.362639        -9.8679
  29   2.0000      -0.351972        -9.5776
  30   2.0000      -0.343219        -9.3395
  31   2.0000      -0.294636        -8.0175
  32   2.0000      -0.281266        -7.6536
  33   2.0000      -0.271896        -7.3987
  34   2.0000      -0.260920        -7.1000
  35   2.0000      -0.236248        -6.4286
  36   0.0000      -0.122957        -3.3458
  37   0.0000      -0.051283        -1.3955
  38   0.0000      -0.025666        -0.6984
  39   0.0000       0.038421         1.0455
  40   0.0000       0.061760         1.6806

MULLIKEN ATOMIC CHARGES
-----------------------
   0 C :   -0.103355
   1 C :   -0.228409
   2 C :    0.006652
   3 C :   -0.395729
   4 C :    0.451727
   5 C :   -0.251130
   6 O :   -0.394538
   7 N :    0.365767
   8 O :   -0.228519
   9 O :   -0.227684
  10 H :    0.156540
  11 H :    0.183569
  12 H :    0.178002
  13 H :    0.163909
  14 H :    0.323196
Sum of atomic charges:   -0.0000000

LOEWDIN ATOMIC CHARGES
----------------------
   0 C :   -0.138638
   1 C :   -0.101126
   2 C :    0.196434
   3 C :   -0.085326
   4 C :    0.187143
   5 C :   -0.111283
   6 O :   -0.476600
   7 N :   -0.489761
   8 O :   -0.017438
   9 O :   -0.009639
  10 H :    0.175091
  11 H :    0.198383
  12 H :    0.201046
  13 H :    0.184355
  14 H :    0.287359

  Mayer bond orders larger than 0.100000
B(  0-C ,  1-C ) :   1.3236 B(  0-C ,  5-C ) :   1.3953 B(  0-C , 10-H ) :   0.9565
B(  1-C ,  2-C ) :   1.4359 B(  1-C ,  9-O ) :   0.1043 B(  1-C , 11-H ) :   0.9339
B(  2-C ,  3-C ) :   1.4827 B(  2-C ,  7-N ) :   0.9301 B(  3-C ,  4-C ) :   1.2435
B(  3-C ,  8-O ) :   0.1006 B(  3-C , 12-H ) :   0.8956 B(  4-C ,  5-C ) :   1.3916
B(  4-C ,  6-O ) :   0.9307 B(  5-C , 13-H ) :   0.9421 B(  6-O , 14-H ) :   0.8781
B(  7-N ,  8-O ) :   1.8509 B(  7-N ,  9-O ) :   1.8596 B(  8-O ,  9-O ) :   0.2539

Dispersion correction           -0.005162179
FINAL SINGLE POINT ENERGY      -511.893705726388

DIPOLE MOMENT
-------------

Method             : SCF
Type of density    : Electron Density
Multiplicity       :   1
Irrep              :   0
Energy             :  -511.8987685311926157 Eh
Relativity type    :
Basis              : AO
                                X                 Y                 Z
Electronic contribution:      4.180568803       1.927530276      -0.000462408
Nuclear contribution   :     -5.633817242      -2.016955742       0.000375271
                        -----------------------------------------
Total Dipole Moment    :     -1.453248439      -0.089425466      -0.000087136
                        -----------------------------------------
Magnitude (a.u.)       :      1.455997235
Magnitude (Debye)      :      3.700850859

Rotational constants in cm-1:             0.092116             0.033405             0.024515
Rotational constants in MHz :          2761.581572          1001.447518           734.934299

                             ****ORCA TERMINATED NORMALLY****
TOTAL RUN TIME: 0 days 0 hours 0 minutes 34 seconds 541 msec
