                         Program Version 6.0.1  -  RELEASE   -
|  1> ! r2scan-3c def2/J RI DEFGRID2 scfconv6 printgap
|  2> %output
|  3>     printlevel normal
|  4> end
|  5> * xyz 0 1
|  6> C -1.836117311 -0.8397812924 0.4617062066
|  7> S -0.8960444009 0.4156584851 -0.4736590524
|  8> S 0.8960313222 0.4156725228 0.4736556405
|  9> C 1.8361417586 -0.839780732 -0.4616933044
| 10> H -2.8402365275 -0.8326766047 0.0523995023
| 11> H -1.8529559594 -0.5648878768 1.511095761
| 12> H -1.3830453576 -1.8167107664 0.3245302663
| 13> H 1.3842443682 -1.8170638285 -0.3229730039
| 14> H 2.8408078241 -0.8312501384 -0.0537253532
| 15> H 1.8513103308 -0.5658785291 -1.5113723999
| 16> *
| 17>
| 18>                          ****END OF INPUT****

CARTESIAN COORDINATES (ANGSTROEM)
---------------------------------
  C     -1.836117   -0.839781    0.461706
  S     -0.896044    0.415658   -0.473659
  S      0.896031    0.415673    0.473656
  C      1.836142   -0.839781   -0.461693
  H     -2.840237   -0.832677    0.052400
  H     -1.852956   -0.564888    1.511096
  H     -1.383045   -1.816711    0.324530
  H      1.384244   -1.817064   -0.322973
  H      2.840808   -0.831250   -0.053725
  H      1.851310   -0.565879   -1.511372

 Total Charge           Charge          ....    0
 Multiplicity           Mult            ....    1
 Number of Electrons    NEL             ....   50
 Basis Dimension        Dim             ....  122

ORBITAL ENERGIES
----------------

  NO   OCC          E(Eh)            E(eV)
   0   2.0000     -88.576285     -2410.2833
   1   2.0000     -88.576282     -2410.2832
   2   2.0000     -10.059220      -273.7253
   3   2.0000     -10.059215      -273.7252
   4   2.0000      -7.868224      -214.1053
   5   2.0000      -7.868168      -214.1037
   6   2.0000      -5.816580      -158.2772
   7   2.0000      -5.816300      -158.2696
   8   2.0000      -5.811840      -158.1482
   9   2.0000      -5.811772      -158.1464
  10   2.0000      -5.804541      -157.9496
  11   2.0000      -5.804541      -157.9496
  12   2.0000      -0.788399       -21.4534
  13   2.0000      -0.720792       -19.6138
  14   2.0000      -0.642693       -17.4886
  15   2.0000      -0.549140       -14.9429
  16   2.0000      -0.423243       -11.5170
  17   2.0000      -0.408057       -11.1038
  18   2.0000      -0.407211       -11.0808
  19   2.0000      -0.393797       -10.7158
  20   2.0000      -0.370842       -10.0911
  21   2.0000      -0.334761        -9.1093
  22   2.0000      -0.297640        -8.0992
  23   2.0000      -0.213182        -5.8010
  24   2.0000      -0.211865        -5.7651
  25   0.0000      -0.030588        -0.8324
  26   0.0000       0.020262         0.5514
  27   0.0000       0.023315         0.6344
  28   0.0000       0.080474         2.1898
  29   0.0000       0.136988         3.7276

MULLIKEN ATOMIC CHARGES
-----------------------
   0 C :   -0.369864
   1 S :   -0.107323
   2 S :   -0.107292
   3 C :   -0.369922
   4 H :    0.151448
   5 H :    0.170111
   6 H :    0.155628
   7 H :    0.155630
   8 H :    0.151459
   9 H :    0.170125
Sum of atomic charges:    0.0000000

LOEWDIN ATOMIC CHARGES
----------------------
   0 C :   -0.470216
   1 S :   -0.010215
   2 S :   -0.010205
   3 C :   -0.470225
   4 H :    0.164141
   5 H :    0.161639
   6 H :    0.154646
   7 H :    0.154630
   8 H :    0.164146
   9 H :    0.161659

  Mayer bond orders larger than 0.100000
B(  0-C ,  1-S ) :   0.9123 B(  0-C ,  4-H ) :   0.9461 B(  0-C ,  5-H ) :   0.9566
B(  0-C ,  6-H ) :   0.9554 B(  1-S ,  2-S ) :   1.1896 B(  2-S ,  3-C ) :   0.9123
B(  3-C ,  7-H ) :   0.9553 B(  3-C ,  8-H ) :   0.9461 B(  3-C ,  9-H ) :   0.9566

Dispersion correction           -0.002449583
FINAL SINGLE POINT ENERGY      -876.134800609025

DIPOLE MOMENT
-------------

Method             : SCF
Type of density    : Electron Density
Multiplicity       :   1
Irrep              :   0
Energy             :  -876.1424781551359047 Eh
Relativity type    :
Basis              : AO
                                X                 Y                 Z
Electronic contribution:     -0.000108705       5.236476398      -0.000007319
Nuclear contribution   :      0.000117348      -6.055065228      -0.000042332
                        -----------------------------------------
Total Dipole Moment    :      0.000008643      -0.818588830      -0.000049651
                        -----------------------------------------
Magnitude (a.u.)       :      0.818588832
Magnitude (Debye)      :      2.080687456

Rotational constants in cm-1:             0.276166             0.091699             0.085910
Rotational constants in MHz :          8279.251527          2749.066348          2575.524562

                             ****ORCA TERMINATED NORMALLY****
TOTAL RUN TIME: 0 days 0 hours 0 minutes 14 seconds 833 msec
