                         Program Version 6.0.1  -  RELEASE   -
|  1> ! pbe def2-sv(p) def2/J RI DEFGRID1 loosescf d4 GCP(DFT/SV(P)) printgap
|  2> %output
|  3>     printlevel normal
|  4> end
|  5> * xyz 0 1
|  6> C -2.4881721601 -0.4519982986 -0.3105603462
|  7> C -1.0816337082 -0.2054230928 0.245995708
|  8> H -1.0729153992 -0.4387024836 1.3263428512
|  9> C -0.6375007935 1.2701708209 0.0716016404
| 10> H -1.3106140997 1.7849407898 -0.6219467164
| 11> C 0.7892855332 1.3141656115 -0.5267790394
| 12> H 1.1730940157 2.3354707396 -0.4127609751
| 13> C 1.6914660133 0.333351809 0.2528150389
| 14> H 2.6812048468 0.2922405132 -0.2176430373
| 15> C 1.0940833325 -1.087616476 0.1669502595
| 16> H 1.0289588129 -1.490059335 1.2006336992
| 17> O -0.1903128187 -1.0875098009 -0.4101020303
| 18> O 1.9123943273 -1.8644640637 -0.6308960857
| 19> O 1.7826180394 0.6933855191 1.6175712865
| 20> O 0.8029843028 1.0459087912 -1.8970724611
| 21> O -0.7143569659 1.9739736602 1.2810572139
| 22> O -3.0023428055 -1.7129745644 0.0145156294
| 23> H -2.4506034696 -0.4194179861 -1.4010595566
| 24> H -3.1434036632 0.3508500364 0.0553693496
| 25> H 1.4329779966 -2.6692552986 -0.8646903872
| 26> H 2.3800766264 1.4449749631 1.7018766429
| 27> H 0.5087341343 0.1327527323 -2.0269616023
| 28> H -0.0359868658 1.6136107525 1.8741701714
| 29> H -3.0357258302 -1.8047407898 0.9737603541
| 30> *
| 31>
| 32>                          ****END OF INPUT****

CARTESIAN COORDINATES (ANGSTROEM)
---------------------------------
  C     -2.488172   -0.451998   -0.310560
  C     -1.081634   -0.205423    0.245996
  H     -1.072915   -0.438702    1.326343
  C     -0.637501    1.270171    0.071602
  H     -1.310614    1.784941   -0.621947
  C      0.789286    1.314166   -0.526779
  H      1.173094    2.335471   -0.412761
  C      1.691466    0.333352    0.252815
  H      2.681205    0.292241   -0.217643
  C      1.094083   -1.087616    0.166950
  H      1.028959   -1.490059    1.200634
  O     -0.190313   -1.087510   -0.410102
  O      1.912394   -1.864464   -0.630896
  O      1.782618    0.693386    1.617571
  O      0.802984    1.045909   -1.897072
  O     -0.714357    1.973974    1.281057
  O     -3.002343   -1.712975    0.014516
  H     -2.450603   -0.419418   -1.401060
  H     -3.143404    0.350850    0.055369
  H      1.432978   -2.669255   -0.864690
  H      2.380077    1.444975    1.701877
  H      0.508734    0.132753   -2.026962
  H     -0.035987    1.613611    1.874170
  H     -3.035726   -1.804741    0.973760

 Total Charge           Charge          ....    0
 Multiplicity           Mult            ....    1
 Number of Electrons    NEL             ....   96
 Basis Dimension        Dim             ....  192

ORBITAL ENERGIES
----------------

  NO   OCC          E(Eh)            E(eV)
   0   2.0000     -18.785609      -511.1824
   1   2.0000     -18.784910      -511.1634
   2   2.0000     -18.771760      -510.8056
   3   2.0000     -18.749267      -510.1935
   4   2.0000     -18.746836      -510.1273
   5   2.0000     -18.743046      -510.0242
   6   2.0000      -9.997935      -272.0576
   7   2.0000      -9.951377      -270.7907
   8   2.0000      -9.949691      -270.7449
   9   2.0000      -9.942764      -270.5564
  10   2.0000      -9.939932      -270.4793
  11   2.0000      -9.938418      -270.4381
  12   2.0000      -1.000333       -27.2205
  13   2.0000      -0.958918       -26.0935
  14   2.0000      -0.939438       -25.5634
  15   2.0000      -0.929823       -25.3018
  16   2.0000      -0.921112       -25.0647
  17   2.0000      -0.919893       -25.0315
  18   2.0000      -0.700859       -19.0714
  19   2.0000      -0.695733       -18.9319
  20   2.0000      -0.626281       -17.0420
  21   2.0000      -0.585236       -15.9251
  22   2.0000      -0.574977       -15.6459
  23   2.0000      -0.530005       -14.4222
  24   2.0000      -0.518837       -14.1183
  25   2.0000      -0.498924       -13.5764
  26   2.0000      -0.491148       -13.3648
  27   2.0000      -0.466041       -12.6816
  28   2.0000      -0.449068       -12.2198
  29   2.0000      -0.435266       -11.8442
  30   2.0000      -0.414253       -11.2724
  31   2.0000      -0.398404       -10.8411
  32   2.0000      -0.397096       -10.8055
  33   2.0000      -0.373853       -10.1731
  34   2.0000      -0.359526        -9.7832
  35   2.0000      -0.352867        -9.6020
  36   2.0000      -0.342984        -9.3331
  37   2.0000      -0.326084        -8.8732
  38   2.0000      -0.317575        -8.6416
  39   2.0000      -0.305905        -8.3241
  40   2.0000      -0.282403        -7.6846
  41   2.0000      -0.276780        -7.5316
  42   2.0000      -0.263315        -7.1652
  43   2.0000      -0.256675        -6.9845
  44   2.0000      -0.248722        -6.7681
  45   2.0000      -0.223450        -6.0804
  46   2.0000      -0.216534        -5.8922
  47   2.0000      -0.196160        -5.3378
  48   0.0000       0.001990         0.0541
  49   0.0000       0.021711         0.5908
  50   0.0000       0.033167         0.9025
  51   0.0000       0.045296         1.2326
  52   0.0000       0.055887         1.5208

MULLIKEN ATOMIC CHARGES
-----------------------
   0 C :    0.069379
   1 C :   -0.002864
   2 H :    0.039530
   3 C :    0.065650
   4 H :    0.075231
   5 C :    0.016135
   6 H :    0.068848
   7 C :    0.009802
   8 H :    0.094050
   9 C :    0.191286
  10 H :    0.060152
  11 O :   -0.309894
  12 O :   -0.380159
  13 O :   -0.418626
  14 O :   -0.414259
  15 O :   -0.431621
  16 O :   -0.425488
  17 H :    0.088928
  18 H :    0.092799
  19 H :    0.308118
  20 H :    0.315751
  21 H :    0.302927
  22 H :    0.289904
  23 H :    0.294418
Sum of atomic charges:   -0.0000000

LOEWDIN ATOMIC CHARGES
----------------------
   0 C :   -0.127156
   1 C :   -0.080309
   2 H :    0.098265
   3 C :   -0.075859
   4 H :    0.118169
   5 C :   -0.084475
   6 H :    0.112905
   7 C :   -0.090086
   8 H :    0.119310
   9 C :    0.005130
  10 H :    0.087930
  11 O :   -0.152728
  12 O :   -0.292385
  13 O :   -0.309156
  14 O :   -0.310360
  15 O :   -0.322105
  16 O :   -0.330307
  17 H :    0.120029
  18 H :    0.106009
  19 H :    0.291038
  20 H :    0.296165
  21 H :    0.273061
  22 H :    0.264377
  23 H :    0.282536

  Mayer bond orders larger than 0.100000
B(  0-C ,  1-C ) :   1.0365 B(  0-C , 16-O ) :   1.0823 B(  0-C , 17-H ) :   0.9056
B(  0-C , 18-H ) :   0.9208 B(  1-C ,  2-H ) :   0.8639 B(  1-C ,  3-C ) :   0.9513
B(  1-C , 11-O ) :   0.9974 B(  3-C ,  4-H ) :   0.8944 B(  3-C ,  5-C ) :   0.9696
B(  3-C , 15-O ) :   1.0375 B(  5-C ,  6-H ) :   0.8949 B(  5-C ,  7-C ) :   0.9925
B(  5-C , 14-O ) :   1.0592 B(  7-C ,  8-H ) :   0.8938 B(  7-C ,  9-C ) :   0.9604
B(  7-C , 13-O ) :   1.0219 B(  9-C , 10-H ) :   0.8921 B(  9-C , 11-O ) :   1.0126
B(  9-C , 12-O ) :   1.1656 B( 12-O , 19-H ) :   0.8395 B( 13-O , 20-H ) :   0.8400
B( 13-O , 22-H ) :   0.1068 B( 14-O , 21-H ) :   0.8271 B( 15-O , 22-H ) :   0.8144
B( 16-O , 23-H ) :   0.8540

Dispersion correction           -0.024821263
FINAL SINGLE POINT ENERGY      -685.691491819959

DIPOLE MOMENT
-------------

Method             : SCF
Type of density    : Electron Density
Multiplicity       :   1
Irrep              :   0
Energy             :  -685.8236501198545056 Eh
Relativity type    :
Basis              : AO
                                X                 Y                 Z
Electronic contribution:      2.136994483      -1.315567804      -0.657633494
Nuclear contribution   :     -1.721420919       1.048533451       1.488591884
                        -----------------------------------------
Total Dipole Moment    :      0.415573564      -0.267034353       0.830958390
                        -----------------------------------------
Magnitude (a.u.)       :      0.966695702
Magnitude (Debye)      :      2.457145201

Rotational constants in cm-1:             0.038585             0.026828             0.021662
Rotational constants in MHz :          1156.753026           804.283510           649.404320

                             ****ORCA TERMINATED NORMALLY****
TOTAL RUN TIME: 0 days 0 hours 0 minutes 11 seconds 691 msec
