                         Program Version 6.0.1  -  RELEASE   -
|  1> ! r2scan-3c def2/J RI DEFGRID2 scfconv6 printgap
|  2> %output
|  3>     printlevel normal
|  4> end
|  5> * xyz 0 1
|  6> C 2.4048676609 -0.6618803773 0.0192774443
|  7> C 1.0407097244 -0.1322228916 0.4348102476
|  8> H 0.9442712072 -0.1960988529 1.5328916922
|  9> C 0.7601179431 1.3033285487 -0.0201415765
| 10> C -0.7642484979 1.3226110208 -0.0598871273
| 11> C -1.1142975325 -0.118452149 -0.4677934762
| 12> H -1.2732030821 -0.1818577787 -1.5550012084
| 13> O 0.0225107833 -0.9195294365 -0.1638749194
| 14> C -2.352372548 -0.6535695699 0.245202523
| 15> H 2.505848881 -0.6187895745 -1.0621983633
| 16> H 3.1897643495 -0.0665082505 0.4783759448
| 17> H 2.5095122645 -1.6961119688 0.3344380068
| 18> H 1.1815964594 2.0436279323 0.6561268119
| 19> H 1.1708858558 1.4567649767 -1.0193424646
| 20> H -1.1648712867 1.5329388319 0.9332109318
| 21> H -1.1642690502 2.0529330502 -0.7598252745
| 22> H -3.2179971935 -0.0459534369 -0.0063945612
| 23> H -2.2013781051 -0.6335904226 1.3220150751
| 24> H -2.5369145114 -1.6804070654 -0.0579697555
| 25> *
| 26>
| 27>                          ****END OF INPUT****

CARTESIAN COORDINATES (ANGSTROEM)
---------------------------------
  C      2.404868   -0.661880    0.019277
  C      1.040710   -0.132223    0.434810
  H      0.944271   -0.196099    1.532892
  C      0.760118    1.303329   -0.020142
  C     -0.764248    1.322611   -0.059887
  C     -1.114298   -0.118452   -0.467793
  H     -1.273203   -0.181858   -1.555001
  O      0.022511   -0.919529   -0.163875
  C     -2.352373   -0.653570    0.245203
  H      2.505849   -0.618790   -1.062198
  H      3.189764   -0.066508    0.478376
  H      2.509512   -1.696112    0.334438
  H      1.181596    2.043628    0.656127
  H      1.170886    1.456765   -1.019342
  H     -1.164871    1.532939    0.933211
  H     -1.164269    2.052933   -0.759825
  H     -3.217997   -0.045953   -0.006395
  H     -2.201378   -0.633590    1.322015
  H     -2.536915   -1.680407   -0.057970

 Total Charge           Charge          ....    0
 Multiplicity           Mult            ....    1
 Number of Electrons    NEL             ....   56
 Basis Dimension        Dim             ....  198

ORBITAL ENERGIES
----------------

  NO   OCC          E(Eh)            E(eV)
   0   2.0000     -18.938999      -515.3564
   1   2.0000     -10.076602      -274.1983
   2   2.0000     -10.076247      -274.1886
   3   2.0000     -10.028795      -272.8974
   4   2.0000     -10.027912      -272.8734
   5   2.0000     -10.015065      -272.5238
   6   2.0000     -10.014215      -272.5006
   7   2.0000      -0.995458       -27.0878
   8   2.0000      -0.751942       -20.4614
   9   2.0000      -0.745270       -20.2798
  10   2.0000      -0.677563       -18.4374
  11   2.0000      -0.608020       -16.5451
  12   2.0000      -0.559785       -15.2325
  13   2.0000      -0.520864       -14.1734
  14   2.0000      -0.471269       -12.8239
  15   2.0000      -0.449127       -12.2214
  16   2.0000      -0.401605       -10.9282
  17   2.0000      -0.395339       -10.7577
  18   2.0000      -0.387330       -10.5398
  19   2.0000      -0.371296       -10.1035
  20   2.0000      -0.354481        -9.6459
  21   2.0000      -0.339194        -9.2299
  22   2.0000      -0.332538        -9.0488
  23   2.0000      -0.310469        -8.4483
  24   2.0000      -0.298779        -8.1302
  25   2.0000      -0.294302        -8.0084
  26   2.0000      -0.277195        -7.5429
  27   2.0000      -0.208354        -5.6696
  28   0.0000       0.079702         2.1688
  29   0.0000       0.097705         2.6587
  30   0.0000       0.111196         3.0258
  31   0.0000       0.114019         3.1026
  32   0.0000       0.127320         3.4646

MULLIKEN ATOMIC CHARGES
-----------------------
   0 C :   -0.495669
   1 C :    0.053660
   2 H :    0.136203
   3 C :   -0.332816
   4 C :   -0.335509
   5 C :    0.051055
   6 H :    0.139046
   7 O :   -0.249170
   8 C :   -0.496914
   9 H :    0.151353
  10 H :    0.141180
  11 H :    0.154840
  12 H :    0.154388
  13 H :    0.163417
  14 H :    0.165187
  15 H :    0.155312
  16 H :    0.141847
  17 H :    0.147558
  18 H :    0.155030
Sum of atomic charges:    0.0000000

LOEWDIN ATOMIC CHARGES
----------------------
   0 C :   -0.384011
   1 C :    0.065578
   2 H :    0.162637
   3 C :   -0.264561
   4 C :   -0.269043
   5 C :    0.063364
   6 H :    0.168034
   7 O :   -0.750380
   8 C :   -0.390254
   9 H :    0.158835
  10 H :    0.157094
  11 H :    0.160763
  12 H :    0.162633
  13 H :    0.162368
  14 H :    0.161815
  15 H :    0.163216
  16 H :    0.156326
  17 H :    0.156336
  18 H :    0.159247

  Mayer bond orders larger than 0.100000
B(  0-C ,  1-C ) :   0.9408 B(  0-C ,  9-H ) :   0.9879 B(  0-C , 10-H ) :   0.9745
B(  0-C , 11-H ) :   0.9706 B(  1-C ,  2-H ) :   0.9119 B(  1-C ,  3-C ) :   0.9186
B(  1-C ,  7-O ) :   0.7972 B(  3-C ,  4-C ) :   0.8778 B(  3-C , 12-H ) :   0.9726
B(  3-C , 13-H ) :   0.9953 B(  4-C ,  5-C ) :   0.9261 B(  4-C , 14-H ) :   1.0002
B(  4-C , 15-H ) :   0.9630 B(  5-C ,  6-H ) :   0.9107 B(  5-C ,  7-O ) :   0.8644
B(  5-C ,  8-C ) :   0.9592 B(  8-C , 16-H ) :   0.9724 B(  8-C , 17-H ) :   0.9855
B(  8-C , 18-H ) :   0.9724

Dispersion correction           -0.004981520
FINAL SINGLE POINT ENERGY      -310.996676948305

DIPOLE MOMENT
-------------

Method             : SCF
Type of density    : Electron Density
Multiplicity       :   1
Irrep              :   0
Energy             :  -311.0017612570898677 Eh
Relativity type    :
Basis              : AO
                                X                 Y                 Z
Electronic contribution:      0.034184268      -1.240668015      -0.659080539
Nuclear contribution   :     -0.052910892       1.831680972       0.744655122
                        -----------------------------------------
Total Dipole Moment    :     -0.018726624       0.591012957       0.085574582
                        -----------------------------------------
Magnitude (a.u.)       :      0.597469674
Magnitude (Debye)      :      1.518647222

Rotational constants in cm-1:             0.164889             0.068064             0.053331
Rotational constants in MHz :          4943.234373          2040.492520          1598.808256

                             ****ORCA TERMINATED NORMALLY****
TOTAL RUN TIME: 0 days 0 hours 0 minutes 19 seconds 860 msec
