                         Program Version 6.0.1  -  RELEASE   -
|  1> ! pbe def2-sv(p) def2/J RI DEFGRID1 loosescf d4 GCP(DFT/SV(P)) printgap
|  2> %output
|  3>     printlevel normal
|  4> end
|  5> * xyz 0 1
|  6> C -2.4139336735 -0.705200757 0.0120044565
|  7> C -0.9884161325 -0.2654056939 0.3553565209
|  8> H -0.9437960902 0.0185456992 1.4150231521
|  9> C -0.5315972074 0.9128338108 -0.5054053208
| 10> H -0.5114242853 0.5835943277 -1.5586840249
| 11> C 0.899982255 1.3408669023 -0.1057438868
| 12> H 0.8196334609 2.1572376211 0.6236281806
| 13> C 1.6774647608 0.1709513289 0.5385761951
| 14> H 2.7416554197 0.2924317964 0.2822474959
| 15> C 1.1990691955 -1.1437217695 -0.0853635907
| 16> H 1.7450971456 -1.9899405634 0.3605231363
| 17> O -0.1491836642 -1.4027451634 0.1405921295
| 18> O 1.4809805715 -1.0534809948 -1.4621582345
| 19> O 1.5032436057 0.0735205392 1.9257596673
| 20> O 1.5994331812 1.8690315719 -1.201952283
| 21> O -1.4458285931 1.9673603078 -0.3480859404
| 22> O -2.856589718 -1.7304454341 0.8563547697
| 23> H -2.4393814155 -1.029210903 -1.0394458083
| 24> H -3.0910526377 0.1393773737 0.1445338683
| 25> H 1.1122395407 -1.8321585416 -1.8963944174
| 26> H 1.829450808 0.8796355681 2.3423138651
| 27> H 1.7830490536 1.1398024376 -1.810452845
| 28> H -1.1083569368 2.7299542432 -0.8336743083
| 29> H -2.1572802842 -2.394079756 0.8952635454
| 30> *
| 31>
| 32>                          ****END OF INPUT****

CARTESIAN COORDINATES (ANGSTROEM)
---------------------------------
  C     -2.413934   -0.705201    0.012004
  C     -0.988416   -0.265406    0.355357
  H     -0.943796    0.018546    1.415023
  C     -0.531597    0.912834   -0.505405
  H     -0.511424    0.583594   -1.558684
  C      0.899982    1.340867   -0.105744
  H      0.819633    2.157238    0.623628
  C      1.677465    0.170951    0.538576
  H      2.741655    0.292432    0.282247
  C      1.199069   -1.143722   -0.085364
  H      1.745097   -1.989941    0.360523
  O     -0.149184   -1.402745    0.140592
  O      1.480981   -1.053481   -1.462158
  O      1.503244    0.073521    1.925760
  O      1.599433    1.869032   -1.201952
  O     -1.445829    1.967360   -0.348086
  O     -2.856590   -1.730445    0.856355
  H     -2.439381   -1.029211   -1.039446
  H     -3.091053    0.139377    0.144534
  H      1.112240   -1.832159   -1.896394
  H      1.829451    0.879636    2.342314
  H      1.783049    1.139802   -1.810453
  H     -1.108357    2.729954   -0.833674
  H     -2.157280   -2.394080    0.895264

 Total Charge           Charge          ....    0
 Multiplicity           Mult            ....    1
 Number of Electrons    NEL             ....   96
 Basis Dimension        Dim             ....  192

ORBITAL ENERGIES
----------------

  NO   OCC          E(Eh)            E(eV)
   0   2.0000     -18.780930      -511.0551
   1   2.0000     -18.779809      -511.0246
   2   2.0000     -18.767704      -510.6952
   3   2.0000     -18.755051      -510.3509
   4   2.0000     -18.750077      -510.2155
   5   2.0000     -18.734218      -509.7840
   6   2.0000      -9.997611      -272.0488
   7   2.0000      -9.952025      -270.8084
   8   2.0000      -9.944971      -270.6164
   9   2.0000      -9.942376      -270.5458
  10   2.0000      -9.938764      -270.4475
  11   2.0000      -9.921268      -269.9714
  12   2.0000      -0.995227       -27.0815
  13   2.0000      -0.947671       -25.7875
  14   2.0000      -0.939741       -25.5716
  15   2.0000      -0.932390       -25.3716
  16   2.0000      -0.921639       -25.0791
  17   2.0000      -0.909605       -24.7516
  18   2.0000      -0.704795       -19.1784
  19   2.0000      -0.696485       -18.9523
  20   2.0000      -0.621067       -16.9001
  21   2.0000      -0.586993       -15.9729
  22   2.0000      -0.570082       -15.5127
  23   2.0000      -0.531406       -14.4603
  24   2.0000      -0.507190       -13.8013
  25   2.0000      -0.489092       -13.3089
  26   2.0000      -0.481932       -13.1140
  27   2.0000      -0.454511       -12.3679
  28   2.0000      -0.447790       -12.1850
  29   2.0000      -0.436370       -11.8742
  30   2.0000      -0.415450       -11.3050
  31   2.0000      -0.401170       -10.9164
  32   2.0000      -0.382736       -10.4148
  33   2.0000      -0.370946       -10.0940
  34   2.0000      -0.366110        -9.9624
  35   2.0000      -0.353839        -9.6284
  36   2.0000      -0.348280        -9.4772
  37   2.0000      -0.324920        -8.8415
  38   2.0000      -0.308498        -8.3947
  39   2.0000      -0.305826        -8.3219
  40   2.0000      -0.282734        -7.6936
  41   2.0000      -0.262803        -7.1512
  42   2.0000      -0.253175        -6.8892
  43   2.0000      -0.249370        -6.7857
  44   2.0000      -0.239494        -6.5170
  45   2.0000      -0.229894        -6.2557
  46   2.0000      -0.209692        -5.7060
  47   2.0000      -0.201585        -5.4854
  48   0.0000       0.007942         0.2161
  49   0.0000       0.021286         0.5792
  50   0.0000       0.033738         0.9181
  51   0.0000       0.053752         1.4627
  52   0.0000       0.058387         1.5888

MULLIKEN ATOMIC CHARGES
-----------------------
   0 C :    0.102756
   1 C :    0.003961
   2 H :    0.071017
   3 C :    0.072772
   4 H :    0.035486
   5 C :    0.074200
   6 H :    0.047946
   7 C :   -0.005012
   8 H :    0.078663
   9 C :    0.183999
  10 H :    0.073290
  11 O :   -0.323814
  12 O :   -0.410634
  13 O :   -0.403976
  14 O :   -0.431690
  15 O :   -0.412525
  16 O :   -0.432351
  17 H :    0.049187
  18 H :    0.099507
  19 H :    0.306965
  20 H :    0.309271
  21 H :    0.306073
  22 H :    0.307597
  23 H :    0.297313
Sum of atomic charges:    0.0000000

LOEWDIN ATOMIC CHARGES
----------------------
   0 C :   -0.124681
   1 C :   -0.069281
   2 H :    0.115038
   3 C :   -0.077437
   4 H :    0.098762
   5 C :   -0.081532
   6 H :    0.111418
   7 C :   -0.091347
   8 H :    0.110226
   9 C :    0.005553
  10 H :    0.102078
  11 O :   -0.142307
  12 O :   -0.321472
  13 O :   -0.305429
  14 O :   -0.320036
  15 O :   -0.315947
  16 O :   -0.335295
  17 H :    0.091811
  18 H :    0.122483
  19 H :    0.288157
  20 H :    0.291625
  21 H :    0.277792
  22 H :    0.290391
  23 H :    0.279430

  Mayer bond orders larger than 0.100000
B(  0-C ,  1-C ) :   1.0613 B(  0-C , 16-O ) :   1.0788 B(  0-C , 17-H ) :   0.9000
B(  0-C , 18-H ) :   0.9122 B(  1-C ,  2-H ) :   0.8580 B(  1-C ,  3-C ) :   1.0670
B(  1-C , 11-O ) :   0.9460 B(  3-C ,  4-H ) :   0.8401 B(  3-C ,  5-C ) :   1.0262
B(  3-C , 15-O ) :   1.0649 B(  5-C ,  6-H ) :   0.8564 B(  5-C ,  7-C ) :   0.9892
B(  5-C , 14-O ) :   1.0365 B(  7-C ,  8-H ) :   0.8854 B(  7-C ,  9-C ) :   1.0375
B(  7-C , 13-O ) :   1.0457 B(  9-C , 10-H ) :   0.8941 B(  9-C , 11-O ) :   1.0875
B(  9-C , 12-O ) :   1.0875 B( 12-O , 19-H ) :   0.8389 B( 13-O , 20-H ) :   0.8463
B( 14-O , 21-H ) :   0.8316 B( 15-O , 22-H ) :   0.8441 B( 16-O , 23-H ) :   0.8459

Dispersion correction           -0.024763016
FINAL SINGLE POINT ENERGY      -685.693845974361

DIPOLE MOMENT
-------------

Method             : SCF
Type of density    : Electron Density
Multiplicity       :   1
Irrep              :   0
Energy             :  -685.8254448917625723 Eh
Relativity type    :
Basis              : AO
                                X                 Y                 Z
Electronic contribution:      1.276501450      -0.647977874       0.490767605
Nuclear contribution   :     -0.204597036       0.648105784      -1.009969478
                        -----------------------------------------
Total Dipole Moment    :      1.071904413       0.000127910      -0.519201874
                        -----------------------------------------
Magnitude (a.u.)       :      1.191028830
Magnitude (Debye)      :      3.027354697

Rotational constants in cm-1:             0.040987             0.025888             0.021577
Rotational constants in MHz :          1228.748707           776.090314           646.861704

                             ****ORCA TERMINATED NORMALLY****
TOTAL RUN TIME: 0 days 0 hours 0 minutes 9 seconds 340 msec
