                         Program Version 6.0.0  -   RELEASE  -
|  1> ! r2SCAN-3c DEF2-TZVP FREQ
|  2> * xyzfile 0 1 censo.xyz
|  3>
|  4>                          ****END OF INPUT****

CARTESIAN COORDINATES (ANGSTROEM)
---------------------------------
  C     -2.326546    0.006690    0.000150
  C     -1.616682    1.205609   -0.000071
  C     -0.225336    1.204466   -0.000113
  C      0.467613   -0.010473    0.000040
  C     -0.238418   -1.217111    0.000197
  C     -1.630240   -1.200051    0.000269
  S      2.251341    0.049093   -0.000094
  H     -3.411514    0.012732    0.000196
  H     -2.146297    2.153338   -0.000113
  H      0.316483    2.145664   -0.000230
  H      0.291223   -2.164804    0.000291
  H     -2.170782   -2.141699    0.000399
  H      2.451194   -1.282365    0.000146

 Total Charge           Charge          ....    0
 Multiplicity           Mult            ....    1
 Number of Electrons    NEL             ....   58
 Basis Dimension        Dim             ....  259

ORBITAL ENERGIES
----------------

  NO   OCC          E(Eh)            E(eV)
   0   2.0000     -88.545960     -2409.4581
   1   2.0000     -10.081703      -274.3371
   2   2.0000     -10.047316      -273.4014
   3   2.0000     -10.045742      -273.3585
   4   2.0000     -10.045600      -273.3547
   5   2.0000     -10.045132      -273.3419
   6   2.0000     -10.039897      -273.1995
   7   2.0000      -7.859858      -213.8776
   8   2.0000      -5.805602      -157.9785
   9   2.0000      -5.801395      -157.8640
  10   2.0000      -5.796891      -157.7414
  11   2.0000      -0.835625       -22.7385
  12   2.0000      -0.755789       -20.5661
  13   2.0000      -0.723027       -19.6746
  14   2.0000      -0.673740       -18.3334
  15   2.0000      -0.584434       -15.9033
  16   2.0000      -0.564452       -15.3595
  17   2.0000      -0.490119       -13.3368
  18   2.0000      -0.442559       -12.0426
  19   2.0000      -0.429268       -11.6810
  20   2.0000      -0.400603       -10.9010
  21   2.0000      -0.394551       -10.7363
  22   2.0000      -0.360769        -9.8170
  23   2.0000      -0.350363        -9.5338
  24   2.0000      -0.323197        -8.7946
  25   2.0000      -0.310219        -8.4415
  26   2.0000      -0.280744        -7.6394
  27   2.0000      -0.245321        -6.6755
  28   2.0000      -0.203943        -5.5496
  29   0.0000      -0.042912        -1.1677
  30   0.0000      -0.038701        -1.0531
  31   0.0000      -0.015817        -0.4304
  32   0.0000       0.039109         1.0642
  33   0.0000       0.068746         1.8707

MULLIKEN ATOMIC CHARGES
-----------------------
   0 C :   -0.140992
   1 C :   -0.093990
   2 C :   -0.175547
   3 C :    0.180963
   4 C :   -0.212172
   5 C :   -0.092652
   6 S :   -0.158094
   7 H :    0.111367
   8 H :    0.111614
   9 H :    0.114823
  10 H :    0.103676
  11 H :    0.111804
  12 H :    0.139202
Sum of atomic charges:   -0.0000000

LOEWDIN ATOMIC CHARGES
----------------------
   0 C :   -0.149423
   1 C :   -0.137416
   2 C :   -0.151079
   3 C :   -0.382784
   4 C :   -0.154291
   5 C :   -0.137932
   6 S :    0.346677
   7 H :    0.142969
   8 H :    0.145093
   9 H :    0.144957
  10 H :    0.141196
  11 H :    0.144860
  12 H :    0.047173

  Mayer bond orders larger than 0.100000
B(  0-C ,  1-C ) :   1.3890 B(  0-C ,  5-C ) :   1.3903 B(  0-C ,  7-H ) :   0.9696
B(  1-C ,  2-C ) :   1.4271 B(  1-C ,  8-H ) :   0.9695 B(  2-C ,  3-C ) :   1.3343
B(  2-C ,  9-H ) :   0.9670 B(  3-C ,  4-C ) :   1.3277 B(  3-C ,  6-S ) :   1.0785
B(  4-C ,  5-C ) :   1.4131 B(  4-C , 10-H ) :   0.9690 B(  5-C , 11-H ) :   0.9628
B(  6-S , 12-H ) :   0.9703

Dispersion correction           -0.004380119
FINAL SINGLE POINT ENERGY      -630.374927515159

DIPOLE MOMENT
-------------

Method             : SCF
Type of density    : Electron Density
Multiplicity       :   1
Irrep              :   0
Energy             :  -630.3762503607757708 Eh
Relativity type    :
Basis              : AO
                                X                 Y                 Z
Electronic contribution:      4.173983759       0.894694527      -0.000394270
Nuclear contribution   :     -4.475366060      -1.207528350       0.000478381
                        -----------------------------------------
Total Dipole Moment    :     -0.301382300      -0.312833822       0.000084111
                        -----------------------------------------
Magnitude (a.u.)       :      0.434391872
Magnitude (Debye)      :      1.104136391

VIBRATIONAL FREQUENCIES
-----------------------

Scaling factor for frequencies =  1.000000000  (already applied!)

     0:       0.00 cm**-1
     1:       0.00 cm**-1
     2:       0.00 cm**-1
     3:       0.00 cm**-1
     4:       0.00 cm**-1
     5:       0.00 cm**-1
     6:     185.63 cm**-1
     7:     239.58 cm**-1
     8:     286.85 cm**-1
     9:     406.54 cm**-1
    10:     407.17 cm**-1
    11:     478.73 cm**-1
    12:     632.20 cm**-1
    13:     700.81 cm**-1
    14:     702.61 cm**-1
    15:     742.22 cm**-1
    16:     831.14 cm**-1
    17:     887.64 cm**-1
    18:     942.13 cm**-1
    19:     943.65 cm**-1
    20:     968.99 cm**-1
    21:    1017.36 cm**-1
    22:    1044.38 cm**-1
    23:    1099.13 cm**-1
    24:    1105.29 cm**-1
    25:    1181.18 cm**-1
    26:    1205.87 cm**-1
    27:    1326.10 cm**-1
    28:    1351.10 cm**-1
    29:    1470.42 cm**-1
    30:    1502.68 cm**-1
    31:    1605.84 cm**-1
    32:    1614.33 cm**-1
    33:    2658.27 cm**-1
    34:    3154.17 cm**-1
    35:    3157.52 cm**-1
    36:    3167.54 cm**-1
    37:    3172.63 cm**-1
    38:    3184.16 cm**-1

IR SPECTRUM
-----------

 Mode   freq       eps      Int      T**2         TX        TY        TZ
       cm**-1   L/(mol*cm) km/mol    a.u.
----------------------------------------------------------------------------
  6:    185.63   0.000000    0.00  0.000000  (-0.000002  0.000034 -0.000085)
  7:    239.58   0.003183   16.08  0.004146  (-0.000005  0.000006  0.064386)
  8:    286.85   0.000249    1.26  0.000271  (-0.016436  0.000861  0.000001)
  9:    406.54   0.000044    0.22  0.000034  ( 0.000009 -0.000009 -0.005820)
 10:    407.17   0.000162    0.82  0.000124  (-0.011128  0.000160 -0.000023)
 11:    478.73   0.002300   11.62  0.001499  ( 0.000020 -0.000047  0.038722)
 12:    632.20   0.000039    0.20  0.000019  (-0.000909 -0.004298  0.000001)
 13:    700.81   0.006415   32.42  0.002857  (-0.000010  0.000025  0.053448)
 14:    702.61   0.002870   14.50  0.001275  ( 0.035670 -0.001482 -0.000064)
 15:    742.22   0.008271   41.80  0.003478  ( 0.000026 -0.000035  0.058971)
 16:    831.14   0.000007    0.03  0.000003  (-0.000006  0.000008  0.001598)
 17:    887.64   0.000232    1.17  0.000081  (-0.000003  0.000015 -0.009026)
 18:    942.13   0.001897    9.58  0.000628  ( 0.008591 -0.023545  0.000004)
 19:    943.65   0.000007    0.03  0.000002  ( 0.000008  0.000000 -0.001504)
 20:    968.99   0.000004    0.02  0.000001  (-0.000000 -0.000005  0.001140)
 21:   1017.36   0.000123    0.62  0.000038  ( 0.003683  0.004911 -0.000001)
 22:   1044.38   0.002334   11.79  0.000697  (-0.026408  0.000044  0.000001)
 23:   1099.13   0.005317   26.87  0.001510  ( 0.038400  0.005909 -0.000004)
 24:   1105.29   0.001993   10.07  0.000563  (-0.019937  0.012849 -0.000002)
 25:   1181.18   0.000103    0.52  0.000027  ( 0.000424 -0.005187  0.000001)
 26:   1205.87   0.000545    2.75  0.000141  ( 0.011851 -0.000712 -0.000001)
 27:   1326.10   0.000537    2.72  0.000126  ( 0.001882  0.011088 -0.000002)
 28:   1351.10   0.000037    0.19  0.000009  (-0.001872  0.002258 -0.000000)
 29:   1470.42   0.001365    6.90  0.000290  ( 0.003145  0.016724 -0.000002)
 30:   1502.68   0.006603   33.37  0.001371  (-0.037030 -0.000174  0.000002)
 31:   1605.84   0.000410    2.07  0.000080  (-0.000708 -0.008903  0.000001)
 32:   1614.33   0.007347   37.13  0.001420  ( 0.037631 -0.002059 -0.000002)
 33:   2658.27   0.000037    0.19  0.000004  (-0.000050 -0.002074  0.000000)
 34:   3154.17   0.000706    3.57  0.000070  (-0.008358  0.000084  0.000000)
 35:   3157.52   0.000015    0.08  0.000002  (-0.000751 -0.000978  0.000000)
 36:   3167.54   0.000882    4.46  0.000087  (-0.009264  0.001042  0.000001)
 37:   3172.63   0.004596   23.22  0.000452  ( 0.000482 -0.021256  0.000003)
 38:   3184.16   0.002023   10.22  0.000198  (-0.014078  0.000205  0.000001)

--------------------------
THERMOCHEMISTRY AT 298.15K
--------------------------

Temperature         ...   298.15 K
Pressure            ...     1.00 atm
Total Mass          ...   110.17 AMU
Quasi RRHO          ...     True
Cut-Off Frequency   ...     1.00 cm^-1

Throughout the following assumptions are being made:
  (1) The electronic state is orbitally nondegenerate
  (2) There are no thermally accessible electronically excited states
  (3) Hindered rotations indicated by low frequency modes are not
      treated as such but are treated as vibrations and this may
      cause some error
  (4) All equations used are the standard statistical mechanics
      equations for an ideal gas
  (5) All vibrations are strictly harmonic

freq.     185.63  E(vib)   ...       0.37
freq.     239.58  E(vib)   ...       0.31
freq.     286.85  E(vib)   ...       0.27
freq.     406.54  E(vib)   ...       0.19
freq.     407.17  E(vib)   ...       0.19
freq.     478.73  E(vib)   ...       0.15
freq.     632.20  E(vib)   ...       0.09
freq.     700.81  E(vib)   ...       0.07
freq.     702.61  E(vib)   ...       0.07
freq.     742.22  E(vib)   ...       0.06
freq.     831.14  E(vib)   ...       0.04
freq.     887.64  E(vib)   ...       0.04
freq.     942.13  E(vib)   ...       0.03
freq.     943.65  E(vib)   ...       0.03
freq.     968.99  E(vib)   ...       0.03
freq.    1017.36  E(vib)   ...       0.02
freq.    1044.38  E(vib)   ...       0.02
freq.    1099.13  E(vib)   ...       0.02
freq.    1105.29  E(vib)   ...       0.02
freq.    1181.18  E(vib)   ...       0.01
freq.    1205.87  E(vib)   ...       0.01
freq.    1326.10  E(vib)   ...       0.01
freq.    1351.10  E(vib)   ...       0.01
freq.    1470.42  E(vib)   ...       0.00
freq.    1502.68  E(vib)   ...       0.00
freq.    1605.84  E(vib)   ...       0.00
freq.    1614.33  E(vib)   ...       0.00
freq.    2658.27  E(vib)   ...       0.00
freq.    3154.17  E(vib)   ...       0.00
freq.    3157.52  E(vib)   ...       0.00
freq.    3167.54  E(vib)   ...       0.00
freq.    3172.63  E(vib)   ...       0.00
freq.    3184.16  E(vib)   ...       0.00

------------
INNER ENERGY
------------

The inner energy is: U= E(el) + E(ZPE) + E(vib) + E(rot) + E(trans)
    E(el)   - is the total energy from the electronic structure calculation
              = E(kin-el) + E(nuc-el) + E(el-el) + E(nuc-nuc)
    E(ZPE)  - the the zero temperature vibrational energy from the frequency calculation
    E(vib)  - the the finite temperature correction to E(ZPE) due to population
              of excited vibrational states
    E(rot)  - is the rotational thermal energy
    E(trans)- is the translational thermal energy

Summary of contributions to the inner energy U:
Electronic energy                ...   -630.37492752 Eh
Zero point energy                ...      0.09881295 Eh      62.01 kcal/mol
Thermal vibrational correction   ...      0.00327645 Eh       2.06 kcal/mol
Thermal rotational correction    ...      0.00141627 Eh       0.89 kcal/mol
Thermal translational correction ...      0.00141627 Eh       0.89 kcal/mol
-----------------------------------------------------------------------
Total thermal energy                   -630.27000558 Eh

Summary of corrections to the electronic energy:
(perhaps to be used in another calculation)
Total thermal correction                  0.00610899 Eh       3.83 kcal/mol
Non-thermal (ZPE) correction              0.09881295 Eh      62.01 kcal/mol
-----------------------------------------------------------------------
Total correction                          0.10492194 Eh      65.84 kcal/mol

--------
ENTHALPY
--------

The enthalpy is H = U + kB*T
                kB is Boltzmann's constant
Total thermal energy              ...   -630.27000558 Eh
Thermal Enthalpy correction       ...      0.00094421 Eh       0.59 kcal/mol
-----------------------------------------------------------------------
Total Enthalpy                    ...   -630.26906137 Eh

Note: Only C1 symmetry has been detected, increase convergence thresholds
      if your molecule has a higher symmetry. Symmetry factor of 1.0 is
      used for the rotational entropy correction.

Note: Rotational entropy computed according to Herzberg
Infrared and Raman Spectra, Chapter V,1, Van Nostrand Reinhold, 1945
Point Group:  C1, Symmetry Number:   1
Rotational constants in cm-1:     0.186539     0.052335     0.040869

Vibrational entropy computed according to the QRRHO of S. Grimme
Chem.Eur.J. 2012 18 9955 using a reference frequency of 100.0 cm-1

-------
ENTROPY
-------

The entropy contributions are T*S = T*(S(el)+S(vib)+S(rot)+S(trans))
     S(el)   - electronic entropy
     S(vib)  - vibrational entropy
     S(rot)  - rotational entropy
     S(trans)- translational entropy
The entropies will be listed as multiplied by the temperature to get
units of energy

Electronic entropy                ...      0.00000000 Eh      0.00 kcal/mol
Vibrational entropy               ...      0.00502226 Eh      3.15 kcal/mol
Rotational entropy                ...      0.01320567 Eh      8.29 kcal/mol
Translational entropy             ...      0.01900847 Eh     11.93 kcal/mol
-----------------------------------------------------------------------
Final entropy term                ...      0.03723639 Eh     23.37 kcal/mol

In case the symmetry of your molecule has not been determined correctly
or in case you have a reason to use a different symmetry number we print
out the resulting rotational entropy values for sn=1,12:

 non-linear molecules -----------------------------------
|  sn= 1 | S(rot)=       0.01320567 Eh      8.29 kcal/mol|
|  sn= 2 | S(rot)=       0.01255121 Eh      7.88 kcal/mol|
|  sn= 3 | S(rot)=       0.01216838 Eh      7.64 kcal/mol|
|  sn= 4 | S(rot)=       0.01189675 Eh      7.47 kcal/mol|
|  sn= 5 | S(rot)=       0.01168607 Eh      7.33 kcal/mol|
|  sn= 6 | S(rot)=       0.01151392 Eh      7.23 kcal/mol|
|  sn= 7 | S(rot)=       0.01136837 Eh      7.13 kcal/mol|
|  sn= 8 | S(rot)=       0.01124230 Eh      7.05 kcal/mol|
|  sn= 9 | S(rot)=       0.01113109 Eh      6.98 kcal/mol|
|  sn=10 | S(rot)=       0.01103161 Eh      6.92 kcal/mol|
|  sn=11 | S(rot)=       0.01094162 Eh      6.87 kcal/mol|
|  sn=12 | S(rot)=       0.01085946 Eh      6.81 kcal/mol|
 linear molecules ---------------------------------------
|  Dinfh | S(rot)=       0.00834471 Eh      5.24 kcal/mol|
|  Cinfv | S(rot)=       0.00899917 Eh      5.65 kcal/mol|
 --------------------------------------------------------

-------------------
GIBBS FREE ENERGY
-------------------

The Gibbs free energy is G = H - T*S

Total enthalpy                    ...   -630.26906137 Eh
Total entropy correction          ...     -0.03723639 Eh    -23.37 kcal/mol
-----------------------------------------------------------------------

                             ****ORCA TERMINATED NORMALLY****
TOTAL RUN TIME: 0 days 0 hours 7 minutes 50 seconds 671 msec
