                         Program Version 6.0.0  -   RELEASE  -
|  1> ! r2SCAN-3c DEF2-TZVP FREQ
|  2> * xyzfile 0 1 vacuum_censo.xyz
|  3>
|  4>                          ****END OF INPUT****

CARTESIAN COORDINATES (ANGSTROEM)
---------------------------------
  C     -2.327332   -0.004550    0.000022
  C     -1.631738    1.200844    0.000033
  C     -0.241384    1.216975    0.000029
  C      0.468412    0.013598    0.000020
  C     -0.226883   -1.199203    0.000012
  C     -1.616646   -1.201425    0.000011
  S      2.248774   -0.056251    0.000009
  H     -3.411861   -0.011114    0.000026
  H     -2.172422    2.142132    0.000040
  H      0.286758    2.165199    0.000030
  H      0.317884   -2.138303    0.000009
  H     -2.145864   -2.149110    0.000007
  H      2.457921    1.270604    0.000107

 Total Charge           Charge          ....    0
 Multiplicity           Mult            ....    1
 Number of Electrons    NEL             ....   58
 Basis Dimension        Dim             ....  259

ORBITAL ENERGIES
----------------

  NO   OCC          E(Eh)            E(eV)
   0   2.0000     -88.545968     -2409.4583
   1   2.0000     -10.081185      -274.3230
   2   2.0000     -10.046812      -273.3876
   3   2.0000     -10.045143      -273.3422
   4   2.0000     -10.045078      -273.3405
   5   2.0000     -10.044559      -273.3264
   6   2.0000     -10.039371      -273.1852
   7   2.0000      -7.859970      -213.8807
   8   2.0000      -5.805703      -157.9812
   9   2.0000      -5.801489      -157.8665
  10   2.0000      -5.797012      -157.7447
  11   2.0000      -0.836146       -22.7527
  12   2.0000      -0.756506       -20.5856
  13   2.0000      -0.723049       -19.6752
  14   2.0000      -0.674292       -18.3484
  15   2.0000      -0.584481       -15.9045
  16   2.0000      -0.564599       -15.3635
  17   2.0000      -0.490495       -13.3470
  18   2.0000      -0.442658       -12.0453
  19   2.0000      -0.429268       -11.6810
  20   2.0000      -0.400306       -10.8929
  21   2.0000      -0.394773       -10.7423
  22   2.0000      -0.361109        -9.8263
  23   2.0000      -0.350413        -9.5352
  24   2.0000      -0.322508        -8.7759
  25   2.0000      -0.310918        -8.4605
  26   2.0000      -0.281139        -7.6502
  27   2.0000      -0.245278        -6.6744
  28   2.0000      -0.204001        -5.5511
  29   0.0000      -0.042402        -1.1538
  30   0.0000      -0.038465        -1.0467
  31   0.0000      -0.015348        -0.4176
  32   0.0000       0.039868         1.0849
  33   0.0000       0.068875         1.8742

MULLIKEN ATOMIC CHARGES
-----------------------
   0 C :   -0.137304
   1 C :   -0.095134
   2 C :   -0.208756
   3 C :    0.175099
   4 C :   -0.170110
   5 C :   -0.098115
   6 S :   -0.156086
   7 H :    0.111277
   8 H :    0.111618
   9 H :    0.103325
  10 H :    0.114056
  11 H :    0.111106
  12 H :    0.139024
Sum of atomic charges:    0.0000000

LOEWDIN ATOMIC CHARGES
----------------------
   0 C :   -0.149467
   1 C :   -0.138243
   2 C :   -0.154005
   3 C :   -0.384901
   4 C :   -0.151289
   5 C :   -0.137723
   6 S :    0.350048
   7 H :    0.142995
   8 H :    0.145008
   9 H :    0.141294
  10 H :    0.144827
  11 H :    0.145218
  12 H :    0.046238

  Mayer bond orders larger than 0.100000
B(  0-C ,  1-C ) :   1.3909 B(  0-C ,  5-C ) :   1.3886 B(  0-C ,  7-H ) :   0.9697
B(  1-C ,  2-C ) :   1.4129 B(  1-C ,  8-H ) :   0.9631 B(  2-C ,  3-C ) :   1.3270
B(  2-C ,  9-H ) :   0.9691 B(  3-C ,  4-C ) :   1.3339 B(  3-C ,  6-S ) :   1.0831
B(  4-C ,  5-C ) :   1.4286 B(  4-C , 10-H ) :   0.9671 B(  5-C , 11-H ) :   0.9700
B(  6-S , 12-H ) :   0.9704

Dispersion correction           -0.004382041
FINAL SINGLE POINT ENERGY      -630.375028013864

DIPOLE MOMENT
-------------

Method             : SCF
Type of density    : Electron Density
Multiplicity       :   1
Irrep              :   0
Energy             :  -630.3763474123152264 Eh
Relativity type    :
Basis              : AO
                                X                 Y                 Z
Electronic contribution:      4.171980912      -0.897769723      -0.000076930
Nuclear contribution   :     -4.465597567       1.212034167       0.000101355
                        -----------------------------------------
Total Dipole Moment    :     -0.293616655       0.314264444       0.000024425
                        -----------------------------------------
Magnitude (a.u.)       :      0.430084737
Magnitude (Debye)      :      1.093188525

VIBRATIONAL FREQUENCIES
-----------------------

Scaling factor for frequencies =  1.000000000  (already applied!)

     0:       0.00 cm**-1
     1:       0.00 cm**-1
     2:       0.00 cm**-1
     3:       0.00 cm**-1
     4:       0.00 cm**-1
     5:       0.00 cm**-1
     6:     179.71 cm**-1
     7:     208.12 cm**-1
     8:     283.58 cm**-1
     9:     403.84 cm**-1
    10:     408.39 cm**-1
    11:     476.31 cm**-1
    12:     632.49 cm**-1
    13:     699.26 cm**-1
    14:     704.18 cm**-1
    15:     741.60 cm**-1
    16:     830.93 cm**-1
    17:     887.49 cm**-1
    18:     935.59 cm**-1
    19:     943.62 cm**-1
    20:     968.72 cm**-1
    21:    1019.23 cm**-1
    22:    1047.03 cm**-1
    23:    1102.48 cm**-1
    24:    1107.28 cm**-1
    25:    1182.04 cm**-1
    26:    1207.57 cm**-1
    27:    1330.20 cm**-1
    28:    1354.27 cm**-1
    29:    1472.45 cm**-1
    30:    1505.30 cm**-1
    31:    1609.60 cm**-1
    32:    1620.02 cm**-1
    33:    2681.14 cm**-1
    34:    3156.38 cm**-1
    35:    3159.60 cm**-1
    36:    3170.21 cm**-1
    37:    3174.71 cm**-1
    38:    3187.23 cm**-1

IR SPECTRUM
-----------

 Mode   freq       eps      Int      T**2         TX        TY        TZ
       cm**-1   L/(mol*cm) km/mol    a.u.
----------------------------------------------------------------------------
  6:    179.71   0.000206    1.04  0.000358  ( 0.000003 -0.000002 -0.018920)
  7:    208.12   0.003051   15.42  0.004575  (-0.000009  0.000002  0.067641)
  8:    283.58   0.000241    1.22  0.000265  ( 0.016269  0.000891  0.000003)
  9:    403.84   0.000040    0.20  0.000031  ( 0.000001  0.000000  0.005531)
 10:    408.39   0.000147    0.74  0.000112  ( 0.010591  0.000106  0.000001)
 11:    476.31   0.002299   11.62  0.001506  ( 0.000002 -0.000003 -0.038808)
 12:    632.49   0.000037    0.19  0.000018  (-0.000817  0.004215 -0.000000)
 13:    699.26   0.006435   32.52  0.002872  (-0.000000 -0.000000  0.053590)
 14:    704.18   0.002839   14.35  0.001258  ( 0.035445  0.001294  0.000002)
 15:    741.60   0.008154   41.21  0.003431  ( 0.000002 -0.000001 -0.058576)
 16:    830.93   0.000006    0.03  0.000002  ( 0.000001  0.000000  0.001491)
 17:    887.49   0.000241    1.22  0.000085  ( 0.000000  0.000001  0.009196)
 18:    935.59   0.001897    9.59  0.000633  (-0.008352 -0.023727 -0.000001)
 19:    943.62   0.000006    0.03  0.000002  (-0.000001 -0.000002 -0.001454)
 20:    968.72   0.000003    0.02  0.000001  ( 0.000000  0.000001 -0.001057)
 21:   1019.23   0.000080    0.41  0.000025  ( 0.002215 -0.004439 -0.000000)
 22:   1047.03   0.002328   11.76  0.000694  (-0.026338  0.000266  0.000000)
 23:   1102.48   0.004481   22.64  0.001268  (-0.034629  0.008315  0.000000)
 24:   1107.28   0.002810   14.20  0.000792  ( 0.025630  0.011623 -0.000000)
 25:   1182.04   0.000096    0.48  0.000025  (-0.000460 -0.005009 -0.000000)
 26:   1207.57   0.000528    2.67  0.000136  ( 0.011665  0.000529  0.000000)
 27:   1330.20   0.000566    2.86  0.000133  (-0.001691  0.011397  0.000000)
 28:   1354.27   0.000020    0.10  0.000005  ( 0.001918  0.000947 -0.000000)
 29:   1472.45   0.001367    6.91  0.000290  (-0.003293  0.016700  0.000000)
 30:   1505.30   0.006570   33.20  0.001362  (-0.036905  0.000026  0.000000)
 31:   1609.60   0.000400    2.02  0.000078  ( 0.000528 -0.008793  0.000000)
 32:   1620.02   0.007381   37.30  0.001422  ( 0.037658  0.001888 -0.000000)
 33:   2681.14   0.000034    0.17  0.000004  ( 0.000068 -0.001988  0.000000)
 34:   3156.38   0.000810    4.10  0.000080  (-0.008942 -0.000407  0.000000)
 35:   3159.60   0.000009    0.05  0.000001  ( 0.000409 -0.000872 -0.000000)
 36:   3170.21   0.000780    3.94  0.000077  ( 0.008567  0.001844  0.000000)
 37:   3174.71   0.004691   23.71  0.000461  (-0.000197 -0.021473 -0.000000)
 38:   3187.23   0.002083   10.53  0.000204  (-0.014281 -0.000182  0.000000)

--------------------------
THERMOCHEMISTRY AT 298.15K
--------------------------

Temperature         ...   298.15 K
Pressure            ...     1.00 atm
Total Mass          ...   110.17 AMU
Quasi RRHO          ...     True
Cut-Off Frequency   ...     1.00 cm^-1

Throughout the following assumptions are being made:
  (1) The electronic state is orbitally nondegenerate
  (2) There are no thermally accessible electronically excited states
  (3) Hindered rotations indicated by low frequency modes are not
      treated as such but are treated as vibrations and this may
      cause some error
  (4) All equations used are the standard statistical mechanics
      equations for an ideal gas
  (5) All vibrations are strictly harmonic

freq.     179.71  E(vib)   ...       0.37
freq.     208.12  E(vib)   ...       0.34
freq.     283.58  E(vib)   ...       0.28
freq.     403.84  E(vib)   ...       0.19
freq.     408.39  E(vib)   ...       0.19
freq.     476.31  E(vib)   ...       0.15
freq.     632.49  E(vib)   ...       0.09
freq.     699.26  E(vib)   ...       0.07
freq.     704.18  E(vib)   ...       0.07
freq.     741.60  E(vib)   ...       0.06
freq.     830.93  E(vib)   ...       0.04
freq.     887.49  E(vib)   ...       0.04
freq.     935.59  E(vib)   ...       0.03
freq.     943.62  E(vib)   ...       0.03
freq.     968.72  E(vib)   ...       0.03
freq.    1019.23  E(vib)   ...       0.02
freq.    1047.03  E(vib)   ...       0.02
freq.    1102.48  E(vib)   ...       0.02
freq.    1107.28  E(vib)   ...       0.02
freq.    1182.04  E(vib)   ...       0.01
freq.    1207.57  E(vib)   ...       0.01
freq.    1330.20  E(vib)   ...       0.01
freq.    1354.27  E(vib)   ...       0.01
freq.    1472.45  E(vib)   ...       0.00
freq.    1505.30  E(vib)   ...       0.00
freq.    1609.60  E(vib)   ...       0.00
freq.    1620.02  E(vib)   ...       0.00
freq.    2681.14  E(vib)   ...       0.00
freq.    3156.38  E(vib)   ...       0.00
freq.    3159.60  E(vib)   ...       0.00
freq.    3170.21  E(vib)   ...       0.00
freq.    3174.71  E(vib)   ...       0.00
freq.    3187.23  E(vib)   ...       0.00

------------
INNER ENERGY
------------

The inner energy is: U= E(el) + E(ZPE) + E(vib) + E(rot) + E(trans)
    E(el)   - is the total energy from the electronic structure calculation
              = E(kin-el) + E(nuc-el) + E(el-el) + E(nuc-nuc)
    E(ZPE)  - the the zero temperature vibrational energy from the frequency calculation
    E(vib)  - the the finite temperature correction to E(ZPE) due to population
              of excited vibrational states
    E(rot)  - is the rotational thermal energy
    E(trans)- is the translational thermal energy

Summary of contributions to the inner energy U:
Electronic energy                ...   -630.37502801 Eh
Zero point energy                ...      0.09885095 Eh      62.03 kcal/mol
Thermal vibrational correction   ...      0.00334008 Eh       2.10 kcal/mol
Thermal rotational correction    ...      0.00141627 Eh       0.89 kcal/mol
Thermal translational correction ...      0.00141627 Eh       0.89 kcal/mol
-----------------------------------------------------------------------
Total thermal energy                   -630.27000444 Eh

Summary of corrections to the electronic energy:
(perhaps to be used in another calculation)
Total thermal correction                  0.00617263 Eh       3.87 kcal/mol
Non-thermal (ZPE) correction              0.09885095 Eh      62.03 kcal/mol
-----------------------------------------------------------------------
Total correction                          0.10502358 Eh      65.90 kcal/mol

--------
ENTHALPY
--------

The enthalpy is H = U + kB*T
                kB is Boltzmann's constant
Total thermal energy              ...   -630.27000444 Eh
Thermal Enthalpy correction       ...      0.00094421 Eh       0.59 kcal/mol
-----------------------------------------------------------------------
Total Enthalpy                    ...   -630.26906023 Eh

Note: Only C1 symmetry has been detected, increase convergence thresholds
      if your molecule has a higher symmetry. Symmetry factor of 1.0 is
      used for the rotational entropy correction.

Note: Rotational entropy computed according to Herzberg
Infrared and Raman Spectra, Chapter V,1, Van Nostrand Reinhold, 1945
Point Group:  C1, Symmetry Number:   1
Rotational constants in cm-1:     0.187185     0.052366     0.040919

Vibrational entropy computed according to the QRRHO of S. Grimme
Chem.Eur.J. 2012 18 9955 using a reference frequency of 100.0 cm-1

-------
ENTROPY
-------

The entropy contributions are T*S = T*(S(el)+S(vib)+S(rot)+S(trans))
     S(el)   - electronic entropy
     S(vib)  - vibrational entropy
     S(rot)  - rotational entropy
     S(trans)- translational entropy
The entropies will be listed as multiplied by the temperature to get
units of energy

Electronic entropy                ...      0.00000000 Eh      0.00 kcal/mol
Vibrational entropy               ...      0.00518408 Eh      3.25 kcal/mol
Rotational entropy                ...      0.01320319 Eh      8.29 kcal/mol
Translational entropy             ...      0.01900847 Eh     11.93 kcal/mol
-----------------------------------------------------------------------
Final entropy term                ...      0.03739573 Eh     23.47 kcal/mol

In case the symmetry of your molecule has not been determined correctly
or in case you have a reason to use a different symmetry number we print
out the resulting rotational entropy values for sn=1,12:

 non-linear molecules -----------------------------------
|  sn= 1 | S(rot)=       0.01320319 Eh      8.29 kcal/mol|
|  sn= 2 | S(rot)=       0.01254873 Eh      7.87 kcal/mol|
|  sn= 3 | S(rot)=       0.01216590 Eh      7.63 kcal/mol|
|  sn= 4 | S(rot)=       0.01189427 Eh      7.46 kcal/mol|
|  sn= 5 | S(rot)=       0.01168358 Eh      7.33 kcal/mol|
|  sn= 6 | S(rot)=       0.01151144 Eh      7.22 kcal/mol|
|  sn= 7 | S(rot)=       0.01136589 Eh      7.13 kcal/mol|
|  sn= 8 | S(rot)=       0.01123982 Eh      7.05 kcal/mol|
|  sn= 9 | S(rot)=       0.01112861 Eh      6.98 kcal/mol|
|  sn=10 | S(rot)=       0.01102913 Eh      6.92 kcal/mol|
|  sn=11 | S(rot)=       0.01093914 Eh      6.86 kcal/mol|
|  sn=12 | S(rot)=       0.01085698 Eh      6.81 kcal/mol|
 linear molecules ---------------------------------------
|  Dinfh | S(rot)=       0.00834357 Eh      5.24 kcal/mol|
|  Cinfv | S(rot)=       0.00899803 Eh      5.65 kcal/mol|
 --------------------------------------------------------

-------------------
GIBBS FREE ENERGY
-------------------

The Gibbs free energy is G = H - T*S

Total enthalpy                    ...   -630.26906023 Eh
Total entropy correction          ...     -0.03739573 Eh    -23.47 kcal/mol
-----------------------------------------------------------------------

                             ****ORCA TERMINATED NORMALLY****
TOTAL RUN TIME: 0 days 0 hours 7 minutes 53 seconds 812 msec
