                         Program Version 6.0.1  -  RELEASE   -
|  1> ! r2scan-3c def2/J RI DEFGRID2 scfconv6 printgap
|  2> %output
|  3>     printlevel normal
|  4> end
|  5> * xyz 0 1
|  6> C -2.186589945 -0.9261425601 -0.1676099242
|  7> C -1.132774104 -0.344105534 0.8014737532
|  8> H -1.6092021257 -0.3490076819 1.793500527
|  9> C -0.7453694018 1.1188392229 0.4881209365
| 10> H -1.6106967246 1.612604504 0.0172142364
| 11> C 0.4536685757 1.2454104654 -0.4680770765
| 12> H 0.8031424474 2.2855417927 -0.4174741918
| 13> C 1.6070571759 0.3371305313 0.0147831906
| 14> H 2.4082189408 0.3515278248 -0.7345456414
| 15> C 1.0866378719 -1.1086681238 0.1241885686
| 16> H 1.8331463777 -1.7403139786 0.6230156814
| 17> O -0.0252036635 -1.2152632529 0.9755347273
| 18> O 0.8414112472 -1.6491083088 -1.1515232701
| 19> O 2.1742820676 0.7831696497 1.2092127649
| 20> O 0.1167076943 0.9750471314 -1.8058029099
| 21> O -0.382814233 1.8054860887 1.6700570754
| 22> O -1.7718357786 -0.9857814126 -1.5062981594
| 23> H -3.0777606327 -0.2934869489 -0.145788953
| 24> H -2.4527674305 -1.9259199361 0.1948231257
| 25> H 0.90488162 -0.9378665504 -1.8104976959
| 26> H 1.4615102227 1.0618797674 1.8037162625
| 27> H -0.7008366892 0.4350961591 -1.8437450403
| 28> H -1.1252210392 1.8170849324 2.2843078965
| 29> H -1.0229821054 -1.6127895751 -1.5487547966
| 30> *
| 31>
| 32>                          ****END OF INPUT****

CARTESIAN COORDINATES (ANGSTROEM)
---------------------------------
  C     -2.186590   -0.926143   -0.167610
  C     -1.132774   -0.344106    0.801474
  H     -1.609202   -0.349008    1.793501
  C     -0.745369    1.118839    0.488121
  H     -1.610697    1.612605    0.017214
  C      0.453669    1.245410   -0.468077
  H      0.803142    2.285542   -0.417474
  C      1.607057    0.337131    0.014783
  H      2.408219    0.351528   -0.734546
  C      1.086638   -1.108668    0.124189
  H      1.833146   -1.740314    0.623016
  O     -0.025204   -1.215263    0.975535
  O      0.841411   -1.649108   -1.151523
  O      2.174282    0.783170    1.209213
  O      0.116708    0.975047   -1.805803
  O     -0.382814    1.805486    1.670057
  O     -1.771836   -0.985781   -1.506298
  H     -3.077761   -0.293487   -0.145789
  H     -2.452767   -1.925920    0.194823
  H      0.904882   -0.937867   -1.810498
  H      1.461510    1.061880    1.803716
  H     -0.700837    0.435096   -1.843745
  H     -1.125221    1.817085    2.284308
  H     -1.022982   -1.612790   -1.548755

 Total Charge           Charge          ....    0
 Multiplicity           Mult            ....    1
 Number of Electrons    NEL             ....   96
 Basis Dimension        Dim             ....  318

ORBITAL ENERGIES
----------------

  NO   OCC          E(Eh)            E(eV)
   0   2.0000     -18.987791      -516.6841
   1   2.0000     -18.975335      -516.3451
   2   2.0000     -18.974030      -516.3096
   3   2.0000     -18.972267      -516.2616
   4   2.0000     -18.960997      -515.9549
   5   2.0000     -18.949155      -515.6327
   6   2.0000     -10.137619      -275.8586
   7   2.0000     -10.114231      -275.2222
   8   2.0000     -10.108748      -275.0730
   9   2.0000     -10.099947      -274.8335
  10   2.0000     -10.098476      -274.7935
  11   2.0000     -10.091022      -274.5907
  12   2.0000      -1.055900       -28.7325
  13   2.0000      -1.027477       -27.9591
  14   2.0000      -1.013755       -27.5857
  15   2.0000      -1.001935       -27.2640
  16   2.0000      -0.991711       -26.9858
  17   2.0000      -0.986086       -26.8328
  18   2.0000      -0.763240       -20.7688
  19   2.0000      -0.737022       -20.0554
  20   2.0000      -0.674798       -18.3622
  21   2.0000      -0.637668       -17.3518
  22   2.0000      -0.617136       -16.7931
  23   2.0000      -0.553647       -15.0655
  24   2.0000      -0.526258       -14.3202
  25   2.0000      -0.525008       -14.2862
  26   2.0000      -0.501590       -13.6489
  27   2.0000      -0.497397       -13.5349
  28   2.0000      -0.471683       -12.8352
  29   2.0000      -0.465897       -12.6777
  30   2.0000      -0.447910       -12.1882
  31   2.0000      -0.439816       -11.9680
  32   2.0000      -0.417195       -11.3525
  33   2.0000      -0.408682       -11.1208
  34   2.0000      -0.390647       -10.6301
  35   2.0000      -0.383131       -10.4255
  36   2.0000      -0.364907        -9.9296
  37   2.0000      -0.352918        -9.6034
  38   2.0000      -0.339631        -9.2418
  39   2.0000      -0.332126        -9.0376
  40   2.0000      -0.316561        -8.6141
  41   2.0000      -0.296041        -8.0557
  42   2.0000      -0.294898        -8.0246
  43   2.0000      -0.277257        -7.5445
  44   2.0000      -0.270368        -7.3571
  45   2.0000      -0.262356        -7.1391
  46   2.0000      -0.240255        -6.5377
  47   2.0000      -0.222308        -6.0493
  48   0.0000       0.017278         0.4701
  49   0.0000       0.036764         1.0004
  50   0.0000       0.066007         1.7961
  51   0.0000       0.072189         1.9643
  52   0.0000       0.084981         2.3124

MULLIKEN ATOMIC CHARGES
-----------------------
   0 C :   -0.234015
   1 C :    0.062549
   2 H :    0.147391
   3 C :   -0.176452
   4 H :    0.165713
   5 C :    0.050067
   6 H :    0.169678
   7 C :   -0.172880
   8 H :    0.173570
   9 C :   -0.011725
  10 H :    0.149491
  11 O :   -0.161570
  12 O :   -0.424811
  13 O :   -0.392268
  14 O :   -0.477064
  15 O :   -0.412943
  16 O :   -0.468168
  17 H :    0.142262
  18 H :    0.153177
  19 H :    0.343420
  20 H :    0.338254
  21 H :    0.375940
  22 H :    0.295538
  23 H :    0.364844
Sum of atomic charges:    0.0000000

LOEWDIN ATOMIC CHARGES
----------------------
   0 C :    0.025681
   1 C :    0.095448
   2 H :    0.199698
   3 C :    0.112788
   4 H :    0.185027
   5 C :    0.123017
   6 H :    0.202259
   7 C :    0.113489
   8 H :    0.198876
   9 C :    0.292247
  10 H :    0.212748
  11 O :   -0.643738
  12 O :   -0.534928
  13 O :   -0.549400
  14 O :   -0.594948
  15 O :   -0.598136
  16 O :   -0.614571
  17 H :    0.182137
  18 H :    0.176548
  19 H :    0.285178
  20 H :    0.284560
  21 H :    0.285268
  22 H :    0.273187
  23 H :    0.287565

  Mayer bond orders larger than 0.100000
B(  0-C ,  1-C ) :   0.8922 B(  0-C , 16-O ) :   1.0113 B(  0-C , 17-H ) :   0.9804
B(  0-C , 18-H ) :   0.9736 B(  1-C ,  2-H ) :   0.9484 B(  1-C ,  3-C ) :   0.8079
B(  1-C , 11-O ) :   0.8868 B(  1-C , 16-O ) :  -0.1137 B(  3-C ,  4-H ) :   0.9822
B(  3-C ,  5-C ) :   0.8799 B(  3-C , 15-O ) :   0.9110 B(  5-C ,  6-H ) :   0.9719
B(  5-C ,  7-C ) :   0.8563 B(  5-C , 14-O ) :   0.9561 B(  7-C ,  8-H ) :   0.9971
B(  7-C ,  9-C ) :   0.9188 B(  7-C , 13-O ) :   1.0088 B(  9-C , 10-H ) :   0.9604
B(  9-C , 11-O ) :   0.9873 B(  9-C , 12-O ) :   0.9507 B( 12-O , 19-H ) :   0.8277
B( 13-O , 20-H ) :   0.8329 B( 14-O , 21-H ) :   0.7806 B( 15-O , 22-H ) :   0.8969
B( 16-O , 23-H ) :   0.8105

Dispersion correction           -0.008941553
FINAL SINGLE POINT ENERGY      -687.074706816326

DIPOLE MOMENT
-------------

Method             : SCF
Type of density    : Electron Density
Multiplicity       :   1
Irrep              :   0
Energy             :  -687.0892786387319120 Eh
Relativity type    :
Basis              : AO
                                X                 Y                 Z
Electronic contribution:      2.672652441      -0.441587631       0.371023304
Nuclear contribution   :     -3.915477023       0.656556800       0.193410934
                        -----------------------------------------
Total Dipole Moment    :     -1.242824582       0.214969170       0.564434238
                        -----------------------------------------
Magnitude (a.u.)       :      1.381814276
Magnitude (Debye)      :      3.512292764

Rotational constants in cm-1:             0.041243             0.031741             0.027466
Rotational constants in MHz :          1236.432082           951.574181           823.424233

                             ****ORCA TERMINATED NORMALLY****
TOTAL RUN TIME: 0 days 0 hours 0 minutes 41 seconds 377 msec
