                         Program Version 6.0.0  -   RELEASE  -
|  1> ! r2SCAN-3c DEF2-TZVP FREQ
|  2> * xyzfile 0 1 censo.xyz
|  3>
|  4>                          ****END OF INPUT****

CARTESIAN COORDINATES (ANGSTROEM)
---------------------------------
  C     -3.046166   -1.464669   -0.000654
  C     -1.745964   -0.715528   -0.000038
  C     -0.545021   -1.391618    0.000148
  C      0.698053   -0.714457    0.000215
  C      1.936987   -1.401320    0.000230
  C      3.124584   -0.706318   -0.000047
  C      3.124590    0.706314   -0.000306
  C      1.937000    1.401326   -0.000187
  C      0.698061    0.714473    0.000092
  C     -0.545004    1.391648    0.000184
  C     -1.745955    0.715573    0.000127
  C     -3.046142    1.464740    0.000022
  H     -3.651696   -1.211914    0.877539
  H     -3.650240   -1.212658   -0.880088
  H     -2.875049   -2.543652   -0.000089
  H     -0.541213   -2.479205    0.000132
  H      1.932527   -2.488037    0.000412
  H      4.068736   -1.242242   -0.000086
  H      4.068746    1.242232   -0.000614
  H      1.932547    2.488043   -0.000371
  H     -0.541185    2.479235    0.000249
  H     -3.651710    1.211253    0.877980
  H     -2.874997    2.543718    0.001514
  H     -3.650191    1.213494   -0.879647

 Total Charge           Charge          ....    0
 Multiplicity           Mult            ....    1
 Number of Electrons    NEL             ....   84
 Basis Dimension        Dim             ....  444

ORBITAL ENERGIES
----------------

  NO   OCC          E(Eh)            E(eV)
   0   2.0000     -10.045043      -273.3395
   1   2.0000     -10.044748      -273.3315
   2   2.0000     -10.041207      -273.2351
   3   2.0000     -10.040908      -273.2270
   4   2.0000     -10.034316      -273.0476
   5   2.0000     -10.034312      -273.0475
   6   2.0000     -10.033302      -273.0200
   7   2.0000     -10.032956      -273.0106
   8   2.0000     -10.032310      -272.9930
   9   2.0000     -10.032307      -272.9930
  10   2.0000     -10.032191      -272.9898
  11   2.0000     -10.032177      -272.9894
  12   2.0000      -0.839445       -22.8425
  13   2.0000      -0.796674       -21.6786
  14   2.0000      -0.743788       -20.2395
  15   2.0000      -0.730725       -19.8840
  16   2.0000      -0.708006       -19.2658
  17   2.0000      -0.652413       -17.7531
  18   2.0000      -0.651328       -17.7235
  19   2.0000      -0.573463       -15.6047
  20   2.0000      -0.562544       -15.3076
  21   2.0000      -0.558017       -15.1844
  22   2.0000      -0.481073       -13.0907
  23   2.0000      -0.460641       -12.5347
  24   2.0000      -0.450302       -12.2533
  25   2.0000      -0.414380       -11.2758
  26   2.0000      -0.413281       -11.2460
  27   2.0000      -0.408506       -11.1160
  28   2.0000      -0.384474       -10.4621
  29   2.0000      -0.383855       -10.4452
  30   2.0000      -0.372234       -10.1290
  31   2.0000      -0.359632        -9.7861
  32   2.0000      -0.357142        -9.7183
  33   2.0000      -0.354441        -9.6448
  34   2.0000      -0.353845        -9.6286
  35   2.0000      -0.325845        -8.8667
  36   2.0000      -0.300955        -8.1894
  37   2.0000      -0.295438        -8.0393
  38   2.0000      -0.291870        -7.9422
  39   2.0000      -0.262509        -7.1432
  40   2.0000      -0.218431        -5.9438
  41   2.0000      -0.197161        -5.3650
  42   0.0000      -0.062383        -1.6975
  43   0.0000      -0.033902        -0.9225
  44   0.0000      -0.002156        -0.0587
  45   0.0000       0.044037         1.1983
  46   0.0000       0.063735         1.7343

MULLIKEN ATOMIC CHARGES
-----------------------
   0 C :   -0.348198
   1 C :    0.123184
   2 C :   -0.294673
   3 C :    0.209938
   4 C :   -0.218914
   5 C :   -0.098212
   6 C :   -0.098283
   7 C :   -0.218880
   8 C :    0.209973
   9 C :   -0.294815
  10 C :    0.123367
  11 C :   -0.348206
  12 H :    0.114429
  13 H :    0.114461
  14 H :    0.110315
  15 H :    0.084665
  16 H :    0.096254
  17 H :    0.106739
  18 H :    0.106739
  19 H :    0.096260
  20 H :    0.084649
  21 H :    0.114414
  22 H :    0.110315
  23 H :    0.114479
Sum of atomic charges:   -0.0000000

LOEWDIN ATOMIC CHARGES
----------------------
   0 C :   -0.249934
   1 C :   -0.143865
   2 C :   -0.080812
   3 C :   -0.095026
   4 C :   -0.104363
   5 C :   -0.145465
   6 C :   -0.145465
   7 C :   -0.104363
   8 C :   -0.095026
   9 C :   -0.080812
  10 C :   -0.143865
  11 C :   -0.249934
  12 H :    0.129251
  13 H :    0.129285
  14 H :    0.126674
  15 H :    0.147025
  16 H :    0.145074
  17 H :    0.142156
  18 H :    0.142156
  19 H :    0.145074
  20 H :    0.147026
  21 H :    0.129253
  22 H :    0.126674
  23 H :    0.129282

  Mayer bond orders larger than 0.100000
B(  0-C ,  1-C ) :   0.9202 B(  0-C , 12-H ) :   0.9677 B(  0-C , 13-H ) :   0.9676
B(  0-C , 14-H ) :   0.9836 B(  1-C ,  2-C ) :   1.5048 B(  1-C , 10-C ) :   1.1319
B(  2-C ,  3-C ) :   1.1825 B(  2-C , 15-H ) :   0.9846 B(  3-C ,  4-C ) :   1.1880
B(  3-C ,  8-C ) :   1.1945 B(  4-C ,  5-C ) :   1.5211 B(  4-C , 16-H ) :   0.9877
B(  5-C ,  6-C ) :   1.2576 B(  5-C , 17-H ) :   0.9708 B(  6-C ,  7-C ) :   1.5211
B(  6-C , 18-H ) :   0.9708 B(  7-C ,  8-C ) :   1.1880 B(  7-C , 19-H ) :   0.9877
B(  8-C ,  9-C ) :   1.1823 B(  9-C , 10-C ) :   1.5047 B(  9-C , 20-H ) :   0.9846
B( 10-C , 11-C ) :   0.9201 B( 11-C , 21-H ) :   0.9677 B( 11-C , 22-H ) :   0.9836
B( 11-C , 23-H ) :   0.9676

Dispersion correction           -0.009471317
FINAL SINGLE POINT ENERGY      -464.429968272747

DIPOLE MOMENT
-------------

Method             : SCF
Type of density    : Electron Density
Multiplicity       :   1
Irrep              :   0
Energy             :  -464.4275282774736979 Eh
Relativity type    :
Basis              : AO
                                X                 Y                 Z
Electronic contribution:      8.499573774      -0.000084999       0.002130580
Nuclear contribution   :     -8.896644436       0.000089465      -0.002469901
                        -----------------------------------------
Total Dipole Moment    :     -0.397070661       0.000004466      -0.000339321
                        -----------------------------------------
Magnitude (a.u.)       :      0.397070806
Magnitude (Debye)      :      1.009273782

VIBRATIONAL FREQUENCIES
-----------------------

Scaling factor for frequencies =  1.000000000  (already applied!)

     0:       0.00 cm**-1
     1:       0.00 cm**-1
     2:       0.00 cm**-1
     3:       0.00 cm**-1
     4:       0.00 cm**-1
     5:       0.00 cm**-1
     6:     111.24 cm**-1
     7:     116.92 cm**-1
     8:     163.97 cm**-1
     9:     225.36 cm**-1
    10:     267.65 cm**-1
    11:     269.73 cm**-1
    12:     304.57 cm**-1
    13:     315.99 cm**-1
    14:     418.39 cm**-1
    15:     422.54 cm**-1
    16:     451.83 cm**-1
    17:     485.69 cm**-1
    18:     531.58 cm**-1
    19:     542.93 cm**-1
    20:     641.15 cm**-1
    21:     669.21 cm**-1
    22:     672.56 cm**-1
    23:     746.87 cm**-1
    24:     752.83 cm**-1
    25:     786.97 cm**-1
    26:     827.59 cm**-1
    27:     848.77 cm**-1
    28:     871.24 cm**-1
    29:     897.97 cm**-1
    30:     929.49 cm**-1
    31:     940.06 cm**-1
    32:     963.86 cm**-1
    33:    1014.49 cm**-1
    34:    1029.96 cm**-1
    35:    1040.19 cm**-1
    36:    1040.38 cm**-1
    37:    1063.24 cm**-1
    38:    1113.14 cm**-1
    39:    1174.07 cm**-1
    40:    1174.35 cm**-1
    41:    1200.58 cm**-1
    42:    1261.37 cm**-1
    43:    1266.68 cm**-1
    44:    1293.98 cm**-1
    45:    1357.85 cm**-1
    46:    1387.87 cm**-1
    47:    1395.99 cm**-1
    48:    1396.23 cm**-1
    49:    1408.33 cm**-1
    50:    1460.20 cm**-1
    51:    1464.93 cm**-1
    52:    1482.45 cm**-1
    53:    1484.50 cm**-1
    54:    1491.44 cm**-1
    55:    1493.19 cm**-1
    56:    1531.38 cm**-1
    57:    1598.77 cm**-1
    58:    1632.40 cm**-1
    59:    1658.95 cm**-1
    60:    3000.04 cm**-1
    61:    3000.99 cm**-1
    62:    3056.15 cm**-1
    63:    3057.07 cm**-1
    64:    3100.86 cm**-1
    65:    3102.01 cm**-1
    66:    3141.54 cm**-1
    67:    3143.27 cm**-1
    68:    3147.36 cm**-1
    69:    3151.57 cm**-1
    70:    3164.24 cm**-1
    71:    3177.48 cm**-1

IR SPECTRUM
-----------

 Mode   freq       eps      Int      T**2         TX        TY        TZ
       cm**-1   L/(mol*cm) km/mol    a.u.
----------------------------------------------------------------------------
  6:    111.24   0.000000    0.00  0.000000  (-0.000094 -0.000045  0.000019)
  7:    116.92   0.000534    2.70  0.001425  ( 0.000051 -0.000038 -0.037750)
  8:    163.97   0.000000    0.00  0.000000  ( 0.000013 -0.000084 -0.000002)
  9:    225.36   0.000026    0.13  0.000037  (-0.000019  0.000052 -0.006048)
 10:    267.65   0.000174    0.88  0.000202  ( 0.000000 -0.014229  0.000003)
 11:    269.73   0.000000    0.00  0.000000  ( 0.000052  0.000155  0.000003)
 12:    304.57   0.000118    0.60  0.000121  ( 0.000093 -0.000015  0.011002)
 13:    315.99   0.000067    0.34  0.000066  ( 0.008131 -0.000000 -0.000066)
 14:    418.39   0.000268    1.36  0.000200  ( 0.000033 -0.000029 -0.014148)
 15:    422.54   0.000249    1.26  0.000184  ( 0.000000 -0.013553  0.000011)
 16:    451.83   0.000008    0.04  0.000005  ( 0.002308 -0.000000  0.000012)
 17:    485.69   0.002801   14.16  0.001800  (-0.000007  0.000013 -0.042426)
 18:    531.58   0.000000    0.00  0.000000  (-0.000000  0.000438  0.000019)
 19:    542.93   0.000000    0.00  0.000000  ( 0.000076  0.000044  0.000004)
 20:    641.15   0.000593    3.00  0.000289  ( 0.016995 -0.000000  0.000001)
 21:    669.21   0.000000    0.00  0.000000  ( 0.000036 -0.000031  0.000002)
 22:    672.56   0.000082    0.41  0.000038  ( 0.000000  0.006156 -0.000003)
 23:    746.87   0.008055   40.70  0.003365  ( 0.000042  0.000037 -0.058012)
 24:    752.83   0.000014    0.07  0.000006  ( 0.002395 -0.000000 -0.000057)
 25:    786.97   0.000000    0.00  0.000000  ( 0.000033 -0.000011 -0.000008)
 26:    827.59   0.000002    0.01  0.000001  (-0.000942 -0.000000  0.000011)
 27:    848.77   0.000000    0.00  0.000000  (-0.000025 -0.000005  0.000001)
 28:    871.24   0.006745   34.09  0.002416  ( 0.000024  0.000010 -0.049154)
 29:    897.97   0.000000    0.00  0.000000  ( 0.000038  0.000050  0.000006)
 30:    929.49   0.000003    0.01  0.000001  (-0.000000  0.000981 -0.000010)
 31:    940.06   0.000459    2.32  0.000152  ( 0.000012 -0.000040  0.012339)
 32:    963.86   0.000000    0.00  0.000000  ( 0.000030 -0.000008 -0.000003)
 33:   1014.49   0.003980   20.11  0.001224  ( 0.034990  0.000000  0.000011)
 34:   1029.96   0.000046    0.23  0.000014  (-0.000002  0.003739  0.000009)
 35:   1040.19   0.000741    3.74  0.000222  (-0.000124 -0.000009  0.014906)
 36:   1040.38   0.000388    1.96  0.000116  ( 0.010781 -0.000000  0.000238)
 37:   1063.24   0.000000    0.00  0.000000  ( 0.000025 -0.000004 -0.000003)
 38:   1113.14   0.000001    0.00  0.000000  ( 0.000000  0.000396  0.000004)
 39:   1174.07   0.000023    0.12  0.000006  ( 0.002463 -0.000000  0.000000)
 40:   1174.35   0.001250    6.32  0.000332  (-0.000000 -0.018225  0.000002)
 41:   1200.58   0.000026    0.13  0.000007  (-0.002603  0.000000 -0.000008)
 42:   1261.37   0.000783    3.95  0.000194  (-0.013914 -0.000000 -0.000011)
 43:   1266.68   0.000021    0.11  0.000005  (-0.000001  0.002265 -0.000001)
 44:   1293.98   0.000686    3.47  0.000165  ( 0.000000 -0.012864  0.000000)
 45:   1357.85   0.000064    0.32  0.000015  (-0.000000  0.003830  0.000000)
 46:   1387.87   0.000364    1.84  0.000082  (-0.009051 -0.000000 -0.000006)
 47:   1395.99   0.000594    3.00  0.000133  (-0.011524 -0.000005 -0.000003)
 48:   1396.23   0.000460    2.33  0.000103  (-0.000005  0.010142  0.000003)
 49:   1408.33   0.000016    0.08  0.000004  ( 0.001874 -0.000001  0.000023)
 50:   1460.20   0.002222   11.23  0.000475  ( 0.000000 -0.021791 -0.000002)
 51:   1464.93   0.000000    0.00  0.000000  ( 0.000006  0.000033  0.000002)
 52:   1482.45   0.003662   18.51  0.000771  ( 0.000223  0.000003  0.027763)
 53:   1484.50   0.001246    6.30  0.000262  ( 0.016179 -0.000001 -0.000473)
 54:   1491.44   0.001194    6.04  0.000250  (-0.000001  0.015809  0.000005)
 55:   1493.19   0.000589    2.98  0.000123  ( 0.011094  0.000002  0.000037)
 56:   1531.38   0.002880   14.56  0.000587  (-0.024228 -0.000000 -0.000001)
 57:   1598.77   0.000054    0.27  0.000011  ( 0.003251  0.000000  0.000002)
 58:   1632.40   0.001061    5.36  0.000203  (-0.000000 -0.014243 -0.000001)
 59:   1658.95   0.000617    3.12  0.000116  ( 0.000000  0.010777  0.000009)
 60:   3000.04   0.001527    7.72  0.000159  ( 0.000044  0.012603  0.000003)
 61:   3000.99   0.013611   68.78  0.001415  ( 0.037621 -0.000015  0.000056)
 62:   3056.15   0.006146   31.06  0.000628  ( 0.000077  0.000008 -0.025051)
 63:   3057.07   0.000000    0.00  0.000000  ( 0.000008  0.000033  0.000042)
 64:   3100.86   0.006180   31.23  0.000622  (-0.000004 -0.024938 -0.000010)
 65:   3102.01   0.000264    1.33  0.000027  ( 0.005150 -0.000015 -0.000007)
 66:   3141.54   0.005545   28.02  0.000551  (-0.000005 -0.023469 -0.000001)
 67:   3143.27   0.000339    1.71  0.000034  (-0.005799  0.000018  0.000002)
 68:   3147.36   0.001512    7.64  0.000150  (-0.000000 -0.012245  0.000001)
 69:   3151.57   0.000105    0.53  0.000010  (-0.003231  0.000001  0.000003)
 70:   3164.24   0.005630   28.45  0.000555  ( 0.000001 -0.023563  0.000004)
 71:   3177.48   0.004783   24.17  0.000470  (-0.021674 -0.000000  0.000002)

--------------------------
THERMOCHEMISTRY AT 298.15K
--------------------------

Temperature         ...   298.15 K
Pressure            ...     1.00 atm
Total Mass          ...   156.23 AMU
Quasi RRHO          ...     True
Cut-Off Frequency   ...     1.00 cm^-1

Throughout the following assumptions are being made:
  (1) The electronic state is orbitally nondegenerate
  (2) There are no thermally accessible electronically excited states
  (3) Hindered rotations indicated by low frequency modes are not
      treated as such but are treated as vibrations and this may
      cause some error
  (4) All equations used are the standard statistical mechanics
      equations for an ideal gas
  (5) All vibrations are strictly harmonic

freq.     111.24  E(vib)   ...       0.45
freq.     116.92  E(vib)   ...       0.44
freq.     163.97  E(vib)   ...       0.39
freq.     225.36  E(vib)   ...       0.33
freq.     267.65  E(vib)   ...       0.29
freq.     269.73  E(vib)   ...       0.29
freq.     304.57  E(vib)   ...       0.26
freq.     315.99  E(vib)   ...       0.25
freq.     418.39  E(vib)   ...       0.18
freq.     422.54  E(vib)   ...       0.18
freq.     451.83  E(vib)   ...       0.16
freq.     485.69  E(vib)   ...       0.15
freq.     531.58  E(vib)   ...       0.13
freq.     542.93  E(vib)   ...       0.12
freq.     641.15  E(vib)   ...       0.09
freq.     669.21  E(vib)   ...       0.08
freq.     672.56  E(vib)   ...       0.08
freq.     746.87  E(vib)   ...       0.06
freq.     752.83  E(vib)   ...       0.06
freq.     786.97  E(vib)   ...       0.05
freq.     827.59  E(vib)   ...       0.04
freq.     848.77  E(vib)   ...       0.04
freq.     871.24  E(vib)   ...       0.04
freq.     897.97  E(vib)   ...       0.03
freq.     929.49  E(vib)   ...       0.03
freq.     940.06  E(vib)   ...       0.03
freq.     963.86  E(vib)   ...       0.03
freq.    1014.49  E(vib)   ...       0.02
freq.    1029.96  E(vib)   ...       0.02
freq.    1040.19  E(vib)   ...       0.02
freq.    1040.38  E(vib)   ...       0.02
freq.    1063.24  E(vib)   ...       0.02
freq.    1113.14  E(vib)   ...       0.01
freq.    1174.07  E(vib)   ...       0.01
freq.    1174.35  E(vib)   ...       0.01
freq.    1200.58  E(vib)   ...       0.01
freq.    1261.37  E(vib)   ...       0.01
freq.    1266.68  E(vib)   ...       0.01
freq.    1293.98  E(vib)   ...       0.01
freq.    1357.85  E(vib)   ...       0.01
freq.    1387.87  E(vib)   ...       0.00
freq.    1395.99  E(vib)   ...       0.00
freq.    1396.23  E(vib)   ...       0.00
freq.    1408.33  E(vib)   ...       0.00
freq.    1460.20  E(vib)   ...       0.00
freq.    1464.93  E(vib)   ...       0.00
freq.    1482.45  E(vib)   ...       0.00
freq.    1484.50  E(vib)   ...       0.00
freq.    1491.44  E(vib)   ...       0.00
freq.    1493.19  E(vib)   ...       0.00
freq.    1531.38  E(vib)   ...       0.00
freq.    1598.77  E(vib)   ...       0.00
freq.    1632.40  E(vib)   ...       0.00
freq.    1658.95  E(vib)   ...       0.00
freq.    3000.04  E(vib)   ...       0.00
freq.    3000.99  E(vib)   ...       0.00
freq.    3056.15  E(vib)   ...       0.00
freq.    3057.07  E(vib)   ...       0.00
freq.    3100.86  E(vib)   ...       0.00
freq.    3102.01  E(vib)   ...       0.00
freq.    3141.54  E(vib)   ...       0.00
freq.    3143.27  E(vib)   ...       0.00
freq.    3147.36  E(vib)   ...       0.00
freq.    3151.57  E(vib)   ...       0.00
freq.    3164.24  E(vib)   ...       0.00
freq.    3177.48  E(vib)   ...       0.00

------------
INNER ENERGY
------------

The inner energy is: U= E(el) + E(ZPE) + E(vib) + E(rot) + E(trans)
    E(el)   - is the total energy from the electronic structure calculation
              = E(kin-el) + E(nuc-el) + E(el-el) + E(nuc-nuc)
    E(ZPE)  - the the zero temperature vibrational energy from the frequency calculation
    E(vib)  - the the finite temperature correction to E(ZPE) due to population
              of excited vibrational states
    E(rot)  - is the rotational thermal energy
    E(trans)- is the translational thermal energy

Summary of contributions to the inner energy U:
Electronic energy                ...   -464.42996827 Eh
Zero point energy                ...      0.20124524 Eh     126.28 kcal/mol
Thermal vibrational correction   ...      0.00717301 Eh       4.50 kcal/mol
Thermal rotational correction    ...      0.00141627 Eh       0.89 kcal/mol
Thermal translational correction ...      0.00141627 Eh       0.89 kcal/mol
-----------------------------------------------------------------------
Total thermal energy                   -464.21871748 Eh

Summary of corrections to the electronic energy:
(perhaps to be used in another calculation)
Total thermal correction                  0.01000555 Eh       6.28 kcal/mol
Non-thermal (ZPE) correction              0.20124524 Eh     126.28 kcal/mol
-----------------------------------------------------------------------
Total correction                          0.21125079 Eh     132.56 kcal/mol

--------
ENTHALPY
--------

The enthalpy is H = U + kB*T
                kB is Boltzmann's constant
Total thermal energy              ...   -464.21871748 Eh
Thermal Enthalpy correction       ...      0.00094421 Eh       0.59 kcal/mol
-----------------------------------------------------------------------
Total Enthalpy                    ...   -464.21777327 Eh

Note: Only C1 symmetry has been detected, increase convergence thresholds
      if your molecule has a higher symmetry. Symmetry factor of 1.0 is
      used for the rotational entropy correction.

Note: Rotational entropy computed according to Herzberg
Infrared and Raman Spectra, Chapter V,1, Van Nostrand Reinhold, 1945
Point Group:  C1, Symmetry Number:   1
Rotational constants in cm-1:     0.072712     0.022339     0.017197

Vibrational entropy computed according to the QRRHO of S. Grimme
Chem.Eur.J. 2012 18 9955 using a reference frequency of 100.0 cm-1

-------
ENTROPY
-------

The entropy contributions are T*S = T*(S(el)+S(vib)+S(rot)+S(trans))
     S(el)   - electronic entropy
     S(vib)  - vibrational entropy
     S(rot)  - rotational entropy
     S(trans)- translational entropy
The entropies will be listed as multiplied by the temperature to get
units of energy

Electronic entropy                ...      0.00000000 Eh      0.00 kcal/mol
Vibrational entropy               ...      0.01164339 Eh      7.31 kcal/mol
Rotational entropy                ...      0.01446101 Eh      9.07 kcal/mol
Translational entropy             ...      0.01950311 Eh     12.24 kcal/mol
-----------------------------------------------------------------------
Final entropy term                ...      0.04560750 Eh     28.62 kcal/mol

                             ****ORCA TERMINATED NORMALLY****
TOTAL RUN TIME: 0 days 0 hours 34 minutes 3 seconds 509 msec
