                         Program Version 6.0.0  -   RELEASE  -
|  1> ! r2SCAN-3c DEF2-TZVP FREQ
|  2> * xyzfile 0 1 vacuum_censo.xyz
|  3>
|  4>                          ****END OF INPUT****

CARTESIAN COORDINATES (ANGSTROEM)
---------------------------------
  C     -3.045595   -1.467209   -0.000249
  C     -1.745108   -0.714411    0.000012
  C     -0.544914   -1.388490    0.000112
  C      0.697694   -0.713723    0.000099
  C      1.935761   -1.398949    0.000057
  C      3.122438   -0.705568   -0.000102
  C      3.122435    0.705586   -0.000174
  C      1.935754    1.398962   -0.000088
  C      0.697690    0.713729    0.000035
  C     -0.544921    1.388490    0.000036
  C     -1.745112    0.714404    0.000007
  C     -3.045604    1.467194   -0.000043
  H     -2.872759   -2.545641    0.000468
  H     -3.652205   -1.220894    0.878922
  H     -3.651145   -1.221936   -0.880457
  H     -0.541621   -2.476098    0.000143
  H      1.932515   -2.485512    0.000124
  H      4.066083   -1.241765   -0.000165
  H      4.066077    1.241789   -0.000320
  H      1.932503    2.485525   -0.000152
  H     -0.541633    2.476098    0.000028
  H     -3.651711    1.221282   -0.879681
  H     -3.651656    1.221508    0.879698
  H     -2.872777    2.545627   -0.000176

 Total Charge           Charge          ....    0
 Multiplicity           Mult            ....    1
 Number of Electrons    NEL             ....   84
 Basis Dimension        Dim             ....  444

ORBITAL ENERGIES
----------------

  NO   OCC          E(Eh)            E(eV)
   0   2.0000     -10.044789      -273.3326
   1   2.0000     -10.044488      -273.3244
   2   2.0000     -10.040697      -273.2213
   3   2.0000     -10.040394      -273.2130
   4   2.0000     -10.033911      -273.0366
   5   2.0000     -10.033906      -273.0365
   6   2.0000     -10.032920      -273.0096
   7   2.0000     -10.032571      -273.0001
   8   2.0000     -10.032227      -272.9908
   9   2.0000     -10.032223      -272.9907
  10   2.0000     -10.031764      -272.9782
  11   2.0000     -10.031750      -272.9778
  12   2.0000      -0.840189       -22.8627
  13   2.0000      -0.797114       -21.6906
  14   2.0000      -0.743963       -20.2443
  15   2.0000      -0.730884       -19.8884
  16   2.0000      -0.708047       -19.2669
  17   2.0000      -0.652526       -17.7561
  18   2.0000      -0.651613       -17.7313
  19   2.0000      -0.573920       -15.6172
  20   2.0000      -0.562682       -15.3114
  21   2.0000      -0.558406       -15.1950
  22   2.0000      -0.481393       -13.0994
  23   2.0000      -0.460723       -12.5369
  24   2.0000      -0.450643       -12.2626
  25   2.0000      -0.414267       -11.2728
  26   2.0000      -0.412918       -11.2361
  27   2.0000      -0.408260       -11.1093
  28   2.0000      -0.384712       -10.4686
  29   2.0000      -0.383713       -10.4414
  30   2.0000      -0.372379       -10.1330
  31   2.0000      -0.359231        -9.7752
  32   2.0000      -0.357686        -9.7331
  33   2.0000      -0.354249        -9.6396
  34   2.0000      -0.353584        -9.6215
  35   2.0000      -0.325826        -8.8662
  36   2.0000      -0.301179        -8.1955
  37   2.0000      -0.295116        -8.0305
  38   2.0000      -0.292402        -7.9567
  39   2.0000      -0.262758        -7.1500
  40   2.0000      -0.218838        -5.9549
  41   2.0000      -0.197299        -5.3688
  42   0.0000      -0.062259        -1.6942
  43   0.0000      -0.033713        -0.9174
  44   0.0000      -0.001682        -0.0458
  45   0.0000       0.044318         1.2060
  46   0.0000       0.064236         1.7480

MULLIKEN ATOMIC CHARGES
-----------------------
   0 C :   -0.349507
   1 C :    0.123744
   2 C :   -0.294327
   3 C :    0.210482
   4 C :   -0.219003
   5 C :   -0.097884
   6 C :   -0.097794
   7 C :   -0.219145
   8 C :    0.210591
   9 C :   -0.294291
  10 C :    0.123691
  11 C :   -0.349511
  12 H :    0.110260
  13 H :    0.114714
  14 H :    0.114766
  15 H :    0.084229
  16 H :    0.095886
  17 H :    0.106625
  18 H :    0.106627
  19 H :    0.095883
  20 H :    0.084222
  21 H :    0.114727
  22 H :    0.114754
  23 H :    0.110260
Sum of atomic charges:    0.0000000

LOEWDIN ATOMIC CHARGES
----------------------
   0 C :   -0.249688
   1 C :   -0.143723
   2 C :   -0.080667
   3 C :   -0.095469
   4 C :   -0.104245
   5 C :   -0.145465
   6 C :   -0.145464
   7 C :   -0.104245
   8 C :   -0.095468
   9 C :   -0.080667
  10 C :   -0.143723
  11 C :   -0.249688
  12 H :    0.126445
  13 H :    0.129008
  14 H :    0.129024
  15 H :    0.147258
  16 H :    0.145237
  17 H :    0.142284
  18 H :    0.142284
  19 H :    0.145237
  20 H :    0.147258
  21 H :    0.129017
  22 H :    0.129015
  23 H :    0.126445

  Mayer bond orders larger than 0.100000
B(  0-C ,  1-C ) :   0.9206 B(  0-C , 12-H ) :   0.9837 B(  0-C , 13-H ) :   0.9676
B(  0-C , 14-H ) :   0.9676 B(  1-C ,  2-C ) :   1.5062 B(  1-C , 10-C ) :   1.1322
B(  2-C ,  3-C ) :   1.1825 B(  2-C , 15-H ) :   0.9849 B(  3-C ,  4-C ) :   1.1877
B(  3-C ,  8-C ) :   1.1943 B(  4-C ,  5-C ) :   1.5222 B(  4-C , 16-H ) :   0.9879
B(  5-C ,  6-C ) :   1.2574 B(  5-C , 17-H ) :   0.9709 B(  6-C ,  7-C ) :   1.5222
B(  6-C , 18-H ) :   0.9709 B(  7-C ,  8-C ) :   1.1877 B(  7-C , 19-H ) :   0.9879
B(  8-C ,  9-C ) :   1.1826 B(  9-C , 10-C ) :   1.5061 B(  9-C , 20-H ) :   0.9850
B( 10-C , 11-C ) :   0.9206 B( 11-C , 21-H ) :   0.9676 B( 11-C , 22-H ) :   0.9677
B( 11-C , 23-H ) :   0.9837

Dispersion correction           -0.009474573
FINAL SINGLE POINT ENERGY      -464.430047351209

DIPOLE MOMENT
-------------

Method             : SCF
Type of density    : Electron Density
Multiplicity       :   1
Irrep              :   0
Energy             :  -464.4276068825389530 Eh
Relativity type    :
Basis              : AO
                                X                 Y                 Z
Electronic contribution:      8.505477698       0.000027854       0.000956807
Nuclear contribution   :     -8.896732223      -0.000029200      -0.001098629
                        -----------------------------------------
Total Dipole Moment    :     -0.391254526      -0.000001346      -0.000141822
                        -----------------------------------------
Magnitude (a.u.)       :      0.391254551
Magnitude (Debye)      :      0.994490036

VIBRATIONAL FREQUENCIES
-----------------------

Scaling factor for frequencies =  1.000000000  (already applied!)

     0:       0.00 cm**-1
     1:       0.00 cm**-1
     2:       0.00 cm**-1
     3:       0.00 cm**-1
     4:       0.00 cm**-1
     5:       0.00 cm**-1
     6:     110.51 cm**-1
     7:     115.87 cm**-1
     8:     152.10 cm**-1
     9:     215.54 cm**-1
    10:     266.97 cm**-1
    11:     267.71 cm**-1
    12:     303.57 cm**-1
    13:     313.97 cm**-1
    14:     416.67 cm**-1
    15:     422.41 cm**-1
    16:     452.42 cm**-1
    17:     483.22 cm**-1
    18:     531.07 cm**-1
    19:     541.50 cm**-1
    20:     641.45 cm**-1
    21:     668.49 cm**-1
    22:     672.58 cm**-1
    23:     746.15 cm**-1
    24:     754.21 cm**-1
    25:     786.38 cm**-1
    26:     829.00 cm**-1
    27:     849.02 cm**-1
    28:     872.27 cm**-1
    29:     898.72 cm**-1
    30:     929.89 cm**-1
    31:     940.45 cm**-1
    32:     963.96 cm**-1
    33:    1012.86 cm**-1
    34:    1028.78 cm**-1
    35:    1039.72 cm**-1
    36:    1043.32 cm**-1
    37:    1062.67 cm**-1
    38:    1112.31 cm**-1
    39:    1174.87 cm**-1
    40:    1175.89 cm**-1
    41:    1202.38 cm**-1
    42:    1264.14 cm**-1
    43:    1268.02 cm**-1
    44:    1296.30 cm**-1
    45:    1359.69 cm**-1
    46:    1393.40 cm**-1
    47:    1396.56 cm**-1
    48:    1402.84 cm**-1
    49:    1409.11 cm**-1
    50:    1461.18 cm**-1
    51:    1466.04 cm**-1
    52:    1483.16 cm**-1
    53:    1485.62 cm**-1
    54:    1492.96 cm**-1
    55:    1494.93 cm**-1
    56:    1535.68 cm**-1
    57:    1604.24 cm**-1
    58:    1637.76 cm**-1
    59:    1664.97 cm**-1
    60:    3001.61 cm**-1
    61:    3002.66 cm**-1
    62:    3057.96 cm**-1
    63:    3058.69 cm**-1
    64:    3101.92 cm**-1
    65:    3103.08 cm**-1
    66:    3140.95 cm**-1
    67:    3142.74 cm**-1
    68:    3148.93 cm**-1
    69:    3152.80 cm**-1
    70:    3166.36 cm**-1
    71:    3179.97 cm**-1

IR SPECTRUM
-----------

 Mode   freq       eps      Int      T**2         TX        TY        TZ
       cm**-1   L/(mol*cm) km/mol    a.u.
----------------------------------------------------------------------------
  6:    110.51   0.000000    0.00  0.000000  ( 0.000018 -0.000007  0.000005)
  7:    115.87   0.000520    2.63  0.001401  ( 0.000042  0.000012 -0.037425)
  8:    152.10   0.000000    0.00  0.000000  ( 0.000032  0.000021 -0.000003)
  9:    215.54   0.000020    0.10  0.000028  (-0.000013 -0.000017 -0.005325)
 10:    266.97   0.000176    0.89  0.000206  ( 0.000000 -0.014352  0.000004)
 11:    267.71   0.000000    0.00  0.000000  (-0.000003 -0.000221 -0.000003)
 12:    303.57   0.000130    0.66  0.000133  ( 0.000027 -0.000047  0.011553)
 13:    313.97   0.000071    0.36  0.000071  ( 0.008424  0.000000 -0.000016)
 14:    416.67   0.000271    1.37  0.000203  (-0.000013 -0.000006  0.014235)
 15:    422.41   0.000249    1.26  0.000184  ( 0.000000 -0.013569 -0.000013)
 16:    452.42   0.000007    0.04  0.000005  ( 0.002262  0.000000  0.000002)
 17:    483.22   0.002768   13.99  0.001787  ( 0.000008  0.000004  0.042277)
 18:    531.07   0.000000    0.00  0.000000  (-0.000000  0.000534  0.000006)
 19:    541.50   0.000000    0.00  0.000000  (-0.000013  0.000038  0.000002)
 20:    641.45   0.000591    2.99  0.000287  ( 0.016952  0.000000 -0.000001)
 21:    668.49   0.000000    0.00  0.000000  ( 0.000022 -0.000008 -0.000001)
 22:    672.58   0.000082    0.41  0.000038  (-0.000000  0.006167 -0.000003)
 23:    746.15   0.008101   40.94  0.003388  ( 0.000026  0.000015 -0.058209)
 24:    754.21   0.000018    0.09  0.000007  ( 0.002693  0.000000 -0.000015)
 25:    786.38   0.000000    0.00  0.000000  ( 0.000012 -0.000001 -0.000003)
 26:    829.00   0.000002    0.01  0.000001  (-0.000852  0.000000  0.000002)
 27:    849.02   0.000000    0.00  0.000000  (-0.000006 -0.000002  0.000001)
 28:    872.27   0.006629   33.50  0.002371  ( 0.000015  0.000018 -0.048698)
 29:    898.72   0.000000    0.00  0.000000  ( 0.000002  0.000027  0.000003)
 30:    929.89   0.000004    0.02  0.000001  ( 0.000000  0.001127  0.000003)
 31:    940.45   0.000472    2.39  0.000157  ( 0.000009 -0.000015  0.012515)
 32:    963.96   0.000000    0.00  0.000000  ( 0.000010 -0.000004 -0.000002)
 33:   1012.86   0.003840   19.41  0.001183  ( 0.034397  0.000000  0.000003)
 34:   1028.78   0.000041    0.21  0.000013  ( 0.000000  0.003547  0.000005)
 35:   1039.72   0.000756    3.82  0.000227  ( 0.000013  0.000010  0.015067)
 36:   1043.32   0.000482    2.44  0.000144  ( 0.012009  0.000000  0.000001)
 37:   1062.67   0.000000    0.00  0.000000  ( 0.000021  0.000003  0.000000)
 38:   1112.31   0.000006    0.03  0.000002  (-0.000000  0.001279  0.000004)
 39:   1174.87   0.001269    6.41  0.000337  ( 0.000000 -0.018362 -0.000002)
 40:   1175.89   0.000023    0.12  0.000006  (-0.002462  0.000000 -0.000000)
 41:   1202.38   0.000030    0.15  0.000008  (-0.002783 -0.000000 -0.000003)
 42:   1264.14   0.000811    4.10  0.000200  ( 0.014146 -0.000000  0.000003)
 43:   1268.02   0.000020    0.10  0.000005  ( 0.000000  0.002243  0.000002)
 44:   1296.30   0.000693    3.50  0.000167  ( 0.000000  0.012915 -0.000001)
 45:   1359.69   0.000067    0.34  0.000015  (-0.000000 -0.003910 -0.000002)
 46:   1393.40   0.000418    2.11  0.000094  ( 0.009674  0.000000  0.000003)
 47:   1396.56   0.000454    2.29  0.000101  (-0.000000  0.010068  0.000005)
 48:   1402.84   0.000485    2.45  0.000108  ( 0.010386 -0.000000  0.000001)
 49:   1409.11   0.000001    0.01  0.000000  ( 0.000472 -0.000000  0.000007)
 50:   1461.18   0.002405   12.15  0.000514  (-0.000000 -0.022664  0.000019)
 51:   1466.04   0.000000    0.00  0.000000  ( 0.000008  0.000009 -0.000001)
 52:   1483.16   0.003615   18.27  0.000761  ( 0.000035 -0.000011  0.027579)
 53:   1485.62   0.000823    4.16  0.000173  ( 0.013149  0.000000 -0.000102)
 54:   1492.96   0.001077    5.44  0.000225  (-0.000000  0.015005  0.000022)
 55:   1494.93   0.000947    4.79  0.000198  ( 0.014061  0.000000  0.000006)
 56:   1535.68   0.002926   14.79  0.000595  (-0.024383 -0.000000 -0.000000)
 57:   1604.24   0.000049    0.25  0.000010  ( 0.003103  0.000000 -0.000000)
 58:   1637.76   0.001056    5.33  0.000201  ( 0.000000 -0.014182 -0.000002)
 59:   1664.97   0.000568    2.87  0.000106  (-0.000000  0.010317  0.000003)
 60:   3001.61   0.001479    7.47  0.000154  (-0.000017  0.012399  0.000017)
 61:   3002.66   0.013587   68.66  0.001412  (-0.037578 -0.000006 -0.000018)
 62:   3057.96   0.006144   31.05  0.000627  (-0.000026 -0.000012  0.025039)
 63:   3058.69   0.000000    0.00  0.000000  (-0.000023 -0.000011  0.000030)
 64:   3101.92   0.006310   31.89  0.000635  ( 0.000000  0.025196  0.000000)
 65:   3103.08   0.000236    1.19  0.000024  ( 0.004875 -0.000002 -0.000002)
 66:   3140.95   0.005825   29.44  0.000579  ( 0.000000 -0.024058  0.000001)
 67:   3142.74   0.000347    1.75  0.000034  ( 0.005869  0.000001 -0.000001)
 68:   3148.93   0.001666    8.42  0.000165  ( 0.000000  0.012848 -0.000001)
 69:   3152.80   0.000070    0.35  0.000007  ( 0.002627 -0.000000 -0.000001)
 70:   3166.36   0.005441   27.50  0.000536  (-0.000000  0.023158 -0.000001)
 71:   3179.97   0.004814   24.33  0.000472  ( 0.021736  0.000000 -0.000001)

--------------------------
THERMOCHEMISTRY AT 298.15K
--------------------------

Temperature         ...   298.15 K
Pressure            ...     1.00 atm
Total Mass          ...   156.23 AMU
Quasi RRHO          ...     True
Cut-Off Frequency   ...     1.00 cm^-1

Throughout the following assumptions are being made:
  (1) The electronic state is orbitally nondegenerate
  (2) There are no thermally accessible electronically excited states
  (3) Hindered rotations indicated by low frequency modes are not
      treated as such but are treated as vibrations and this may
      cause some error
  (4) All equations used are the standard statistical mechanics
      equations for an ideal gas
  (5) All vibrations are strictly harmonic

freq.     110.51  E(vib)   ...       0.45
freq.     115.87  E(vib)   ...       0.44
freq.     152.10  E(vib)   ...       0.40
freq.     215.54  E(vib)   ...       0.34
freq.     266.97  E(vib)   ...       0.29
freq.     267.71  E(vib)   ...       0.29
freq.     303.57  E(vib)   ...       0.26
freq.     313.97  E(vib)   ...       0.25
freq.     416.67  E(vib)   ...       0.18
freq.     422.41  E(vib)   ...       0.18
freq.     452.42  E(vib)   ...       0.16
freq.     483.22  E(vib)   ...       0.15
freq.     531.07  E(vib)   ...       0.13
freq.     541.50  E(vib)   ...       0.12
freq.     641.45  E(vib)   ...       0.09
freq.     668.49  E(vib)   ...       0.08
freq.     672.58  E(vib)   ...       0.08
freq.     746.15  E(vib)   ...       0.06
freq.     754.21  E(vib)   ...       0.06
freq.     786.38  E(vib)   ...       0.05
freq.     829.00  E(vib)   ...       0.04
freq.     849.02  E(vib)   ...       0.04
freq.     872.27  E(vib)   ...       0.04
freq.     898.72  E(vib)   ...       0.03
freq.     929.89  E(vib)   ...       0.03
freq.     940.45  E(vib)   ...       0.03
freq.     963.96  E(vib)   ...       0.03
freq.    1012.86  E(vib)   ...       0.02
freq.    1028.78  E(vib)   ...       0.02
freq.    1039.72  E(vib)   ...       0.02
freq.    1043.32  E(vib)   ...       0.02
freq.    1062.67  E(vib)   ...       0.02
freq.    1112.31  E(vib)   ...       0.01
freq.    1174.87  E(vib)   ...       0.01
freq.    1175.89  E(vib)   ...       0.01
freq.    1202.38  E(vib)   ...       0.01
freq.    1264.14  E(vib)   ...       0.01
freq.    1268.02  E(vib)   ...       0.01
freq.    1296.30  E(vib)   ...       0.01
freq.    1359.69  E(vib)   ...       0.01
freq.    1393.40  E(vib)   ...       0.00
freq.    1396.56  E(vib)   ...       0.00
freq.    1402.84  E(vib)   ...       0.00
freq.    1409.11  E(vib)   ...       0.00
freq.    1461.18  E(vib)   ...       0.00
freq.    1466.04  E(vib)   ...       0.00
freq.    1483.16  E(vib)   ...       0.00
freq.    1485.62  E(vib)   ...       0.00
freq.    1492.96  E(vib)   ...       0.00
freq.    1494.93  E(vib)   ...       0.00
freq.    1535.68  E(vib)   ...       0.00
freq.    1604.24  E(vib)   ...       0.00
freq.    1637.76  E(vib)   ...       0.00
freq.    1664.97  E(vib)   ...       0.00
freq.    3001.61  E(vib)   ...       0.00
freq.    3002.66  E(vib)   ...       0.00
freq.    3057.96  E(vib)   ...       0.00
freq.    3058.69  E(vib)   ...       0.00
freq.    3101.92  E(vib)   ...       0.00
freq.    3103.08  E(vib)   ...       0.00
freq.    3140.95  E(vib)   ...       0.00
freq.    3142.74  E(vib)   ...       0.00
freq.    3148.93  E(vib)   ...       0.00
freq.    3152.80  E(vib)   ...       0.00
freq.    3166.36  E(vib)   ...       0.00
freq.    3179.97  E(vib)   ...       0.00

------------
INNER ENERGY
------------

The inner energy is: U= E(el) + E(ZPE) + E(vib) + E(rot) + E(trans)
    E(el)   - is the total energy from the electronic structure calculation
              = E(kin-el) + E(nuc-el) + E(el-el) + E(nuc-nuc)
    E(ZPE)  - the the zero temperature vibrational energy from the frequency calculation
    E(vib)  - the the finite temperature correction to E(ZPE) due to population
              of excited vibrational states
    E(rot)  - is the rotational thermal energy
    E(trans)- is the translational thermal energy

Summary of contributions to the inner energy U:
Electronic energy                ...   -464.43004735 Eh
Zero point energy                ...      0.20132881 Eh     126.34 kcal/mol
Thermal vibrational correction   ...      0.00722091 Eh       4.53 kcal/mol
Thermal rotational correction    ...      0.00141627 Eh       0.89 kcal/mol
Thermal translational correction ...      0.00141627 Eh       0.89 kcal/mol
-----------------------------------------------------------------------
Total thermal energy                   -464.21866509 Eh

Summary of corrections to the electronic energy:
(perhaps to be used in another calculation)
Total thermal correction                  0.01005345 Eh       6.31 kcal/mol
Non-thermal (ZPE) correction              0.20132881 Eh     126.34 kcal/mol
-----------------------------------------------------------------------
Total correction                          0.21138226 Eh     132.64 kcal/mol

--------
ENTHALPY
--------

The enthalpy is H = U + kB*T
                kB is Boltzmann's constant
Total thermal energy              ...   -464.21866509 Eh
Thermal Enthalpy correction       ...      0.00094421 Eh       0.59 kcal/mol
-----------------------------------------------------------------------
Total Enthalpy                    ...   -464.21772088 Eh

Note: Only C1 symmetry has been detected, increase convergence thresholds
      if your molecule has a higher symmetry. Symmetry factor of 1.0 is
      used for the rotational entropy correction.

Note: Rotational entropy computed according to Herzberg
Infrared and Raman Spectra, Chapter V,1, Van Nostrand Reinhold, 1945
Point Group:  C1, Symmetry Number:   1
Rotational constants in cm-1:     0.072783     0.022358     0.017213

Vibrational entropy computed according to the QRRHO of S. Grimme
Chem.Eur.J. 2012 18 9955 using a reference frequency of 100.0 cm-1

-------
ENTROPY
-------

The entropy contributions are T*S = T*(S(el)+S(vib)+S(rot)+S(trans))
     S(el)   - electronic entropy
     S(vib)  - vibrational entropy
     S(rot)  - rotational entropy
     S(trans)- translational entropy
The entropies will be listed as multiplied by the temperature to get
units of energy

Electronic entropy                ...      0.00000000 Eh      0.00 kcal/mol
Vibrational entropy               ...      0.01177064 Eh      7.39 kcal/mol
Rotational entropy                ...      0.01445972 Eh      9.07 kcal/mol
Translational entropy             ...      0.01950311 Eh     12.24 kcal/mol
-----------------------------------------------------------------------
Final entropy term                ...      0.04573346 Eh     28.70 kcal/mol

                             ****ORCA TERMINATED NORMALLY****
TOTAL RUN TIME: 0 days 0 hours 33 minutes 50 seconds 680 msec
