                         Program Version 6.0.1  -  RELEASE   -
|  1> ! r2scan-3c def2/J RI DEFGRID2 scfconv6 printgap
|  2> %output
|  3>     printlevel normal
|  4> end
|  5> * xyz 0 1
|  6> C -2.5568435619 -1.0026e-06 -2.67301e-05
|  7> C -1.8685107589 -1.2043135752 0.0004378244
|  8> C -0.4865156308 -1.211267313 0.0004518961
|  9> C 0.1942862058 -3.041e-07 2.41441e-05
| 10> C -0.4865170248 1.2112691095 -0.0004089711
| 11> C -1.8685092892 1.2043144034 -0.0004505216
| 12> N 1.6368688705 8.09e-07 3.3882e-06
| 13> O 2.1998573694 1.0738588067 0.0009265096
| 14> O 2.199854293 -1.0738605734 -0.0009527446
| 15> H -3.6363803904 4.5285e-06 1.20457e-05
| 16> H -2.4101080938 -2.1375511574 0.0008299105
| 17> H 0.0757243564 -2.1324715196 0.0007903571
| 18> H 0.0757282411 2.1324703699 -0.0007718895
| 19> H -2.4101119943 2.1375488755 -0.0008204563
| 20> *
| 21>
| 22>                          ****END OF INPUT****

CARTESIAN COORDINATES (ANGSTROEM)
---------------------------------
  C     -2.556844   -0.000001   -0.000027
  C     -1.868511   -1.204314    0.000438
  C     -0.486516   -1.211267    0.000452
  C      0.194286   -0.000000    0.000024
  C     -0.486517    1.211269   -0.000409
  C     -1.868509    1.204314   -0.000451
  N      1.636869    0.000001    0.000003
  O      2.199857    1.073859    0.000927
  O      2.199854   -1.073861   -0.000953
  H     -3.636380    0.000005    0.000012
  H     -2.410108   -2.137551    0.000830
  H      0.075724   -2.132472    0.000790
  H      0.075728    2.132470   -0.000772
  H     -2.410112    2.137549   -0.000820

 Total Charge           Charge          ....    0
 Multiplicity           Mult            ....    1
 Number of Electrons    NEL             ....   64
 Basis Dimension        Dim             ....  211

ORBITAL ENERGIES
----------------

  NO   OCC          E(Eh)            E(eV)
   0   2.0000     -18.982961      -516.5526
   1   2.0000     -18.982957      -516.5525
   2   2.0000     -14.395983      -391.7346
   3   2.0000     -10.103934      -274.9420
   4   2.0000     -10.069800      -274.0132
   5   2.0000     -10.069792      -274.0130
   6   2.0000     -10.068677      -273.9826
   7   2.0000     -10.066004      -273.9099
   8   2.0000     -10.065961      -273.9087
   9   2.0000      -1.209093       -32.9011
  10   2.0000      -1.031160       -28.0593
  11   2.0000      -0.868404       -23.6305
  12   2.0000      -0.786445       -21.4003
  13   2.0000      -0.750046       -20.4098
  14   2.0000      -0.679628       -18.4936
  15   2.0000      -0.608017       -16.5450
  16   2.0000      -0.572603       -15.5813
  17   2.0000      -0.537229       -14.6187
  18   2.0000      -0.515353       -14.0235
  19   2.0000      -0.487701       -13.2710
  20   2.0000      -0.486142       -13.2286
  21   2.0000      -0.447223       -12.1695
  22   2.0000      -0.440153       -11.9772
  23   2.0000      -0.422460       -11.4957
  24   2.0000      -0.376127       -10.2349
  25   2.0000      -0.363032        -9.8786
  26   2.0000      -0.343587        -9.3495
  27   2.0000      -0.294328        -8.0091
  28   2.0000      -0.280405        -7.6302
  29   2.0000      -0.272561        -7.4168
  30   2.0000      -0.268400        -7.3035
  31   2.0000      -0.260251        -7.0818
  32   0.0000      -0.122389        -3.3304
  33   0.0000      -0.060936        -1.6582
  34   0.0000      -0.032012        -0.8711
  35   0.0000       0.064592         1.7576
  36   0.0000       0.093773         2.5517

MULLIKEN ATOMIC CHARGES
-----------------------
   0 C :   -0.113308
   1 C :   -0.127932
   2 C :   -0.196328
   3 C :    0.016301
   4 C :   -0.196331
   5 C :   -0.127930
   6 N :    0.365315
   7 O :   -0.226703
   8 O :   -0.226700
   9 H :    0.153434
  10 H :    0.155235
  11 H :    0.184856
  12 H :    0.184856
  13 H :    0.155235
Sum of atomic charges:    0.0000000

LOEWDIN ATOMIC CHARGES
----------------------
   0 C :   -0.132034
   1 C :   -0.151376
   2 C :   -0.076271
   3 C :    0.186380
   4 C :   -0.076272
   5 C :   -0.151376
   6 N :   -0.491522
   7 O :   -0.012634
   8 O :   -0.012633
   9 H :    0.171878
  10 H :    0.173699
  11 H :    0.199231
  12 H :    0.199231
  13 H :    0.173699

  Mayer bond orders larger than 0.100000
B(  0-C ,  1-C ) :   1.3985 B(  0-C ,  5-C ) :   1.3985 B(  0-C ,  9-H ) :   0.9453
B(  1-C ,  2-C ) :   1.3560 B(  1-C , 10-H ) :   0.9534 B(  2-C ,  3-C ) :   1.4292
B(  2-C , 11-H ) :   0.9313 B(  3-C ,  4-C ) :   1.4292 B(  3-C ,  6-N ) :   0.9297
B(  4-C ,  5-C ) :   1.3560 B(  4-C , 12-H ) :   0.9313 B(  5-C , 13-H ) :   0.9534
B(  6-N ,  7-O ) :   1.8593 B(  6-N ,  8-O ) :   1.8593 B(  7-O ,  8-O ) :   0.2572

Dispersion correction           -0.004674920
FINAL SINGLE POINT ENERGY      -436.672191894361

DIPOLE MOMENT
-------------

Method             : SCF
Type of density    : Electron Density
Multiplicity       :   1
Irrep              :   0
Energy             :  -436.6764416591612417 Eh
Relativity type    :
Basis              : AO
                                X                 Y                 Z
Electronic contribution:      5.918339937      -0.000003984      -0.000008338
Nuclear contribution   :     -7.717530971       0.000001007       0.000037127
                        -----------------------------------------
Total Dipole Moment    :     -1.799191035      -0.000002976       0.000028789
                        -----------------------------------------
Magnitude (a.u.)       :      1.799191035
Magnitude (Debye)      :      4.573180174

Rotational constants in cm-1:             0.134470             0.043677             0.032969
Rotational constants in MHz :          4031.312576          1309.409809           988.375856

                             ****ORCA TERMINATED NORMALLY****
TOTAL RUN TIME: 0 days 0 hours 0 minutes 24 seconds 478 msec
