                         Program Version 6.0.1  -  RELEASE   -
|  1> ! pbe def2-sv(p) def2/J RI DEFGRID1 loosescf d4 GCP(DFT/SV(P)) printgap
|  2> %output
|  3>     printlevel normal
|  4> end
|  5> * xyz 0 1
|  6> C 2.9073421254 2.2197170822 1.2074303881
|  7> C 2.2032724059 1.7174641222 -0.0522413047
|  8> C 2.8924881661 0.4518770251 -0.6240349918
|  9> C 1.8702231182 -0.6181607623 -0.3878042379
| 10> C 1.9014190635 -1.9722537086 -0.6346891234
| 11> C 0.7848934098 -2.7327427052 -0.3110749817
| 12> C -0.3334591958 -2.141611774 0.2485874412
| 13> C -0.3764380309 -0.7709032363 0.4977149495
| 14> C 0.74240112 -0.0123110088 0.1672349418
| 15> O 0.8649379935 1.3191465877 0.3241630287
| 16> O -1.4590859025 -0.1808899338 1.1244171326
| 17> C -2.6904748189 -0.1550663451 0.5531376878
| 18> O -3.6470341605 0.1682596332 1.2039513267
| 19> N -2.7390798338 -0.5013283221 -0.7565795192
| 20> C -3.9726540937 -0.4801222551 -1.5020229052
| 21> C 2.0821094756 2.8298479203 -1.0904834066
| 22> H 3.911760726 2.558853523 0.967993587
| 23> H 2.3456675131 3.0444348779 1.6379201408
| 24> H 2.9643294895 1.4213047118 1.94403363
| 25> H 3.1131614858 0.5619843104 -1.6879958802
| 26> H 3.828255396 0.2391421597 -0.1057382152
| 27> H 2.7763724206 -2.4324769445 -1.0668733651
| 28> H 0.7888920786 -3.7964214105 -0.490173372
| 29> H -1.1943202808 -2.7378409371 0.5117815791
| 30> H -1.882771027 -0.6851554691 -1.2558224055
| 31> H -3.9434849982 0.279649847 -2.2858560672
| 32> H -4.771748603 -0.2432933314 -0.8019054387
| 33> H -4.160812237 -1.4558975133 -1.9537534268
| 34> H 1.5537765203 2.4674447087 -1.9696551412
| 35> H 3.0693398995 3.1754848085 -1.3850783746
| 36> H 1.5234415419 3.6628852751 -0.6724031178
| 37> *
| 38>
| 39>                          ****END OF INPUT****

CARTESIAN COORDINATES (ANGSTROEM)
---------------------------------
  C      2.907342    2.219717    1.207430
  C      2.203272    1.717464   -0.052241
  C      2.892488    0.451877   -0.624035
  C      1.870223   -0.618161   -0.387804
  C      1.901419   -1.972254   -0.634689
  C      0.784893   -2.732743   -0.311075
  C     -0.333459   -2.141612    0.248587
  C     -0.376438   -0.770903    0.497715
  C      0.742401   -0.012311    0.167235
  O      0.864938    1.319147    0.324163
  O     -1.459086   -0.180890    1.124417
  C     -2.690475   -0.155066    0.553138
  O     -3.647034    0.168260    1.203951
  N     -2.739080   -0.501328   -0.756580
  C     -3.972654   -0.480122   -1.502023
  C      2.082109    2.829848   -1.090483
  H      3.911761    2.558854    0.967994
  H      2.345668    3.044435    1.637920
  H      2.964329    1.421305    1.944034
  H      3.113161    0.561984   -1.687996
  H      3.828255    0.239142   -0.105738
  H      2.776372   -2.432477   -1.066873
  H      0.788892   -3.796421   -0.490173
  H     -1.194320   -2.737841    0.511782
  H     -1.882771   -0.685155   -1.255822
  H     -3.943485    0.279650   -2.285856
  H     -4.771749   -0.243293   -0.801905
  H     -4.160812   -1.455898   -1.953753
  H      1.553777    2.467445   -1.969655
  H      3.069340    3.175485   -1.385078
  H      1.523442    3.662885   -0.672403

 Total Charge           Charge          ....    0
 Multiplicity           Mult            ....    1
 Number of Electrons    NEL             ....  118
 Basis Dimension        Dim             ....  254

ORBITAL ENERGIES
----------------

  NO   OCC          E(Eh)            E(eV)
   0   2.0000     -18.797788      -511.5138
   1   2.0000     -18.791160      -511.3335
   2   2.0000     -18.705329      -508.9979
   3   2.0000     -14.017480      -381.4350
   4   2.0000     -10.018873      -272.6274
   5   2.0000      -9.970141      -271.3013
   6   2.0000      -9.957412      -270.9550
   7   2.0000      -9.954057      -270.8637
   8   2.0000      -9.916683      -269.8467
   9   2.0000      -9.907777      -269.6043
  10   2.0000      -9.907735      -269.6032
  11   2.0000      -9.902123      -269.4505
  12   2.0000      -9.902037      -269.4481
  13   2.0000      -9.898526      -269.3526
  14   2.0000      -9.889514      -269.1073
  15   2.0000      -9.887358      -269.0487
  16   2.0000      -1.007530       -27.4163
  17   2.0000      -0.986319       -26.8391
  18   2.0000      -0.914200       -24.8766
  19   2.0000      -0.835135       -22.7252
  20   2.0000      -0.784206       -21.3393
  21   2.0000      -0.744889       -20.2695
  22   2.0000      -0.701843       -19.0981
  23   2.0000      -0.678049       -18.4507
  24   2.0000      -0.638893       -17.3852
  25   2.0000      -0.633194       -17.2301
  26   2.0000      -0.625731       -17.0270
  27   2.0000      -0.580561       -15.7979
  28   2.0000      -0.561736       -15.2856
  29   2.0000      -0.530449       -14.4343
  30   2.0000      -0.523605       -14.2480
  31   2.0000      -0.511044       -13.9062
  32   2.0000      -0.466346       -12.6899
  33   2.0000      -0.446490       -12.1496
  34   2.0000      -0.438987       -11.9455
  35   2.0000      -0.435469       -11.8497
  36   2.0000      -0.429960       -11.6998
  37   2.0000      -0.414023       -11.2661
  38   2.0000      -0.399779       -10.8785
  39   2.0000      -0.381833       -10.3902
  40   2.0000      -0.378375       -10.2961
  41   2.0000      -0.371174       -10.1002
  42   2.0000      -0.367980       -10.0132
  43   2.0000      -0.362438        -9.8624
  44   2.0000      -0.361684        -9.8419
  45   2.0000      -0.348844        -9.4925
  46   2.0000      -0.345198        -9.3933
  47   2.0000      -0.340177        -9.2567
  48   2.0000      -0.330287        -8.9876
  49   2.0000      -0.328182        -8.9303
  50   2.0000      -0.320434        -8.7195
  51   2.0000      -0.310753        -8.4560
  52   2.0000      -0.293477        -7.9859
  53   2.0000      -0.286550        -7.7974
  54   2.0000      -0.261292        -7.1101
  55   2.0000      -0.225218        -6.1285
  56   2.0000      -0.217312        -5.9134
  57   2.0000      -0.209960        -5.7133
  58   2.0000      -0.192950        -5.2504
  59   0.0000      -0.045867        -1.2481
  60   0.0000      -0.027655        -0.7525
  61   0.0000       0.022289         0.6065
  62   0.0000       0.030581         0.8322
  63   0.0000       0.040903         1.1130

MULLIKEN ATOMIC CHARGES
-----------------------
   0 C :   -0.194543
   1 C :   -0.091077
   2 C :   -0.005505
   3 C :   -0.048901
   4 C :   -0.149286
   5 C :   -0.046684
   6 C :   -0.143990
   7 C :    0.040073
   8 C :    0.202608
   9 O :   -0.235619
  10 O :   -0.201006
  11 C :    0.200495
  12 O :   -0.194535
  13 N :   -0.335394
  14 C :   -0.179755
  15 C :   -0.201351
  16 H :    0.103406
  17 H :    0.114028
  18 H :    0.109101
  19 H :    0.092715
  20 H :    0.095047
  21 H :    0.034941
  22 H :    0.053292
  23 H :    0.051456
  24 H :    0.246213
  25 H :    0.112191
  26 H :    0.139634
  27 H :    0.110295
  28 H :    0.103015
  29 H :    0.105538
  30 H :    0.113601
Sum of atomic charges:   -0.0000000

LOEWDIN ATOMIC CHARGES
----------------------
   0 C :   -0.326841
   1 C :    0.015676
   2 C :   -0.199486
   3 C :   -0.067605
   4 C :   -0.127200
   5 C :   -0.140790
   6 C :   -0.142068
   7 C :   -0.014769
   8 C :    0.019537
   9 O :   -0.060711
  10 O :   -0.036722
  11 C :    0.028714
  12 O :   -0.181309
  13 N :   -0.194536
  14 C :   -0.258630
  15 C :   -0.326737
  16 H :    0.124665
  17 H :    0.128203
  18 H :    0.126302
  19 H :    0.131529
  20 H :    0.133760
  21 H :    0.125388
  22 H :    0.125714
  23 H :    0.134874
  24 H :    0.236970
  25 H :    0.115554
  26 H :    0.138356
  27 H :    0.115411
  28 H :    0.122524
  29 H :    0.126114
  30 H :    0.128116

  Mayer bond orders larger than 0.100000
B(  0-C ,  1-C ) :   1.0998 B(  0-C , 16-H ) :   0.9397 B(  0-C , 17-H ) :   0.9395
B(  0-C , 18-H ) :   0.9372 B(  1-C ,  2-C ) :   1.0550 B(  1-C ,  9-O ) :   0.9373
B(  1-C , 15-C ) :   1.1029 B(  2-C ,  3-C ) :   1.0662 B(  2-C , 19-H ) :   0.8787
B(  2-C , 20-H ) :   0.8803 B(  3-C ,  4-C ) :   1.3875 B(  3-C ,  6-C ) :   0.1020
B(  3-C ,  8-C ) :   1.3294 B(  4-C ,  5-C ) :   1.2987 B(  4-C , 21-H ) :   0.9853
B(  5-C ,  6-C ) :   1.3347 B(  5-C , 22-H ) :   0.9646 B(  6-C ,  7-C ) :   1.3657
B(  6-C , 23-H ) :   0.9716 B(  7-C ,  8-C ) :   1.3341 B(  7-C , 10-O ) :   1.0616
B(  8-C ,  9-O ) :   1.1730 B( 10-O , 11-C ) :   1.0543 B( 11-C , 12-O ) :   2.0984
B( 11-C , 13-N ) :   1.1822 B( 13-N , 14-C ) :   1.0297 B( 13-N , 24-H ) :   0.8388
B( 14-C , 25-H ) :   0.9592 B( 14-C , 26-H ) :   0.9346 B( 14-C , 27-H ) :   0.9577
B( 15-C , 28-H ) :   0.9381 B( 15-C , 29-H ) :   0.9409 B( 15-C , 30-H ) :   0.9407

Dispersion correction           -0.036254078
FINAL SINGLE POINT ENERGY      -745.170127195579

DIPOLE MOMENT
-------------

Method             : SCF
Type of density    : Electron Density
Multiplicity       :   1
Irrep              :   0
Energy             :  -745.2716689480650984 Eh
Relativity type    :
Basis              : AO
                                X                 Y                 Z
Electronic contribution:     -7.640985871      -5.947774618       6.432965525
Nuclear contribution   :      9.230528555       5.702007696      -8.045806783
                        -----------------------------------------
Total Dipole Moment    :      1.589542684      -0.245766922      -1.612841259
                        -----------------------------------------
Magnitude (a.u.)       :      2.277784944
Magnitude (Debye)      :      5.789669215

Rotational constants in cm-1:             0.028283             0.011816             0.009860
Rotational constants in MHz :           847.904354           354.239160           295.600427

                             ****ORCA TERMINATED NORMALLY****
TOTAL RUN TIME: 0 days 0 hours 0 minutes 26 seconds 930 msec
