                         Program Version 6.0.1  -  RELEASE   -
|  1> ! r2scan-3c def2/J RI DEFGRID2 scfconv6 printgap
|  2> %output
|  3>     printlevel normal
|  4> end
|  5> * xyz 0 1
|  6> C 1.1410951237 -1.4137290445 -0.3913849184
|  7> C 0.6842016453 -0.2005996625 0.4244354096
|  8> C 1.6548829229 0.9640026486 0.2546801116
|  9> C -0.7232580809 0.2085187758 0.0116394145
| 10> O -0.9753726972 1.2885717252 -0.4575367333
| 11> C -1.7886612161 -0.8418229436 0.2195940227
| 12> H 0.5121306263 -2.2798050553 -0.2039397707
| 13> H 1.1127191941 -1.1831210718 -1.4541738677
| 14> H 2.1639740968 -1.6704759498 -0.1251721607
| 15> H 0.6424835858 -0.4855602289 1.4824930291
| 16> H 1.3170417668 1.8232430221 0.8283138657
| 17> H 1.7067148491 1.2569862052 -0.7909341584
| 18> H 2.6496548446 0.6837309102 0.5923241633
| 19> H -2.7615155984 -0.3641157895 0.3039305685
| 20> H -1.5901519177 -1.4467421953 1.0993602225
| 21> H -1.8086102045 -1.4920839027 -0.6536860402
| 22> *
| 23>
| 24>                          ****END OF INPUT****

CARTESIAN COORDINATES (ANGSTROEM)
---------------------------------
  C      1.141095   -1.413729   -0.391385
  C      0.684202   -0.200600    0.424435
  C      1.654883    0.964003    0.254680
  C     -0.723258    0.208519    0.011639
  O     -0.975373    1.288572   -0.457537
  C     -1.788661   -0.841823    0.219594
  H      0.512131   -2.279805   -0.203940
  H      1.112719   -1.183121   -1.454174
  H      2.163974   -1.670476   -0.125172
  H      0.642484   -0.485560    1.482493
  H      1.317042    1.823243    0.828314
  H      1.706715    1.256986   -0.790934
  H      2.649655    0.683731    0.592324
  H     -2.761516   -0.364116    0.303931
  H     -1.590152   -1.446742    1.099360
  H     -1.808610   -1.492084   -0.653686

 Total Charge           Charge          ....    0
 Multiplicity           Mult            ....    1
 Number of Electrons    NEL             ....   48
 Basis Dimension        Dim             ....  169

ORBITAL ENERGIES
----------------

  NO   OCC          E(Eh)            E(eV)
   0   2.0000     -18.938400      -515.3401
   1   2.0000     -10.116329      -275.2793
   2   2.0000     -10.046857      -273.3889
   3   2.0000     -10.033883      -273.0358
   4   2.0000     -10.033599      -273.0281
   5   2.0000     -10.016518      -272.5633
   6   2.0000      -1.009956       -27.4823
   7   2.0000      -0.778091       -21.1729
   8   2.0000      -0.709259       -19.2999
   9   2.0000      -0.657334       -17.8870
  10   2.0000      -0.591110       -16.0849
  11   2.0000      -0.489952       -13.3323
  12   2.0000      -0.449496       -12.2314
  13   2.0000      -0.432632       -11.7725
  14   2.0000      -0.417459       -11.3596
  15   2.0000      -0.399085       -10.8596
  16   2.0000      -0.378993       -10.3129
  17   2.0000      -0.368289       -10.0216
  18   2.0000      -0.359245        -9.7756
  19   2.0000      -0.332048        -9.0355
  20   2.0000      -0.328232        -8.9316
  21   2.0000      -0.312934        -8.5154
  22   2.0000      -0.312393        -8.5007
  23   2.0000      -0.212755        -5.7893
  24   0.0000      -0.043148        -1.1741
  25   0.0000       0.070325         1.9136
  26   0.0000       0.115820         3.1516
  27   0.0000       0.121849         3.3157
  28   0.0000       0.125726         3.4212

MULLIKEN ATOMIC CHARGES
-----------------------
   0 C :   -0.487308
   1 C :    0.002161
   2 C :   -0.507116
   3 C :    0.277451
   4 O :   -0.342245
   5 C :   -0.542877
   6 H :    0.153788
   7 H :    0.162642
   8 H :    0.152195
   9 H :    0.150943
  10 H :    0.158246
  11 H :    0.160850
  12 H :    0.142709
  13 H :    0.177376
  14 H :    0.159973
  15 H :    0.181211
Sum of atomic charges:   -0.0000000

LOEWDIN ATOMIC CHARGES
----------------------
   0 C :   -0.394765
   1 C :   -0.225692
   2 C :   -0.397731
   3 C :    0.221333
   4 O :   -0.456811
   5 C :   -0.391011
   6 H :    0.155737
   7 H :    0.160015
   8 H :    0.158199
   9 H :    0.170718
  10 H :    0.164502
  11 H :    0.164594
  12 H :    0.150815
  13 H :    0.176237
  14 H :    0.164037
  15 H :    0.179824

  Mayer bond orders larger than 0.100000
B(  0-C ,  1-C ) :   0.8625 B(  0-C ,  6-H ) :   0.9655 B(  0-C ,  7-H ) :   0.9808
B(  0-C ,  8-H ) :   0.9677 B(  1-C ,  2-C ) :   0.9337 B(  1-C ,  3-C ) :   0.8855
B(  1-C ,  4-O ) :  -0.1046 B(  1-C ,  9-H ) :   0.9211 B(  2-C , 10-H ) :   0.9691
B(  2-C , 11-H ) :   0.9809 B(  2-C , 12-H ) :   0.9748 B(  3-C ,  4-O ) :   1.9505
B(  3-C ,  5-C ) :   0.9067 B(  5-C , 13-H ) :   0.9726 B(  5-C , 14-H ) :   0.9664
B(  5-C , 15-H ) :   0.9470

Dispersion correction           -0.003924606
FINAL SINGLE POINT ENERGY      -271.705237498075

DIPOLE MOMENT
-------------

Method             : SCF
Type of density    : Electron Density
Multiplicity       :   1
Irrep              :   0
Energy             :  -271.7088549784725728 Eh
Relativity type    :
Basis              : AO
                                X                 Y                 Z
Electronic contribution:     -3.422141321       3.799759158      -0.607266055
Nuclear contribution   :      3.686071079      -4.819891900       1.005039758
                        -----------------------------------------
Total Dipole Moment    :      0.263929758      -1.020132742       0.397773703
                        -----------------------------------------
Magnitude (a.u.)       :      1.126300869
Magnitude (Debye)      :      2.862829297

Rotational constants in cm-1:             0.157196             0.103709             0.071115
Rotational constants in MHz :          4712.613313          3109.113711          2131.973304

                             ****ORCA TERMINATED NORMALLY****
TOTAL RUN TIME: 0 days 0 hours 0 minutes 13 seconds 200 msec
