                         Program Version 6.0.1  -  RELEASE   -
|  1> ! r2scan-3c def2/J RI DEFGRID2 scfconv6 printgap
|  2> %output
|  3>     printlevel normal
|  4> end
|  5> * xyz 0 1
|  6> C -2.6631675414 -0.3968990905 -1.0601169325
|  7> C -1.760133253 0.0113430015 0.0817350749
|  8> O -2.1697444391 0.1108454819 1.2108919056
|  9> C -0.3090939108 0.2533171437 -0.289339943
| 10> C 0.3685185232 -1.1059860354 -0.523150241
| 11> C 1.8359507652 -0.9113883774 -0.8935806046
| 12> C 2.5685002918 -0.1413039308 0.2004985426
| 13> C 1.8976983495 1.2077964417 0.4391696623
| 14> C 0.4305752557 1.0179463308 0.8077626818
| 15> H -3.517858217 0.2762061516 -1.0899013565
| 16> H -2.1533874666 -0.3817271961 -2.0179009732
| 17> H -3.048440837 -1.3963876798 -0.8661929462
| 18> H -0.2767592463 0.82616898 -1.2227878743
| 19> H 0.2995025724 -1.6959336973 0.3935281107
| 20> H -0.1453692557 -1.6530474445 -1.3161625639
| 21> H 2.3063147336 -1.8854015508 -1.0439615999
| 22> H 1.9027600501 -0.3584088415 -1.8337641549
| 23> H 2.5507886253 -0.722489848 1.1250275562
| 24> H 3.6125453391 0.0052187362 -0.0837521615
| 25> H 2.4118971847 1.7429198368 1.2396518519
| 26> H 1.9701509806 1.8140060619 -0.4675231759
| 27> H 0.3499067376 0.4592083225 1.7417310225
| 28> H -0.0487660706 1.9867828756 0.9617268875
| 29> *
| 30>
| 31>                          ****END OF INPUT****

CARTESIAN COORDINATES (ANGSTROEM)
---------------------------------
  C     -2.663168   -0.396899   -1.060117
  C     -1.760133    0.011343    0.081735
  O     -2.169744    0.110845    1.210892
  C     -0.309094    0.253317   -0.289340
  C      0.368519   -1.105986   -0.523150
  C      1.835951   -0.911388   -0.893581
  C      2.568500   -0.141304    0.200499
  C      1.897698    1.207796    0.439170
  C      0.430575    1.017946    0.807763
  H     -3.517858    0.276206   -1.089901
  H     -2.153387   -0.381727   -2.017901
  H     -3.048441   -1.396388   -0.866193
  H     -0.276759    0.826169   -1.222788
  H      0.299503   -1.695934    0.393528
  H     -0.145369   -1.653047   -1.316163
  H      2.306315   -1.885402   -1.043962
  H      1.902760   -0.358409   -1.833764
  H      2.550789   -0.722490    1.125028
  H      3.612545    0.005219   -0.083752
  H      2.411897    1.742920    1.239652
  H      1.970151    1.814006   -0.467523
  H      0.349907    0.459208    1.741731
  H     -0.048766    1.986783    0.961727

 Total Charge           Charge          ....    0
 Multiplicity           Mult            ....    1
 Number of Electrons    NEL             ....   70
 Basis Dimension        Dim             ....  246

ORBITAL ENERGIES
----------------

  NO   OCC          E(Eh)            E(eV)
   0   2.0000     -18.935431      -515.2593
   1   2.0000     -10.114165      -275.2204
   2   2.0000     -10.040359      -273.2120
   3   2.0000     -10.038137      -273.1516
   4   2.0000     -10.031879      -272.9813
   5   2.0000     -10.030751      -272.9506
   6   2.0000     -10.025609      -272.8107
   7   2.0000     -10.024538      -272.7816
   8   2.0000     -10.021878      -272.7092
   9   2.0000      -1.006964       -27.4009
  10   2.0000      -0.809718       -22.0335
  11   2.0000      -0.737847       -20.0778
  12   2.0000      -0.713322       -19.4105
  13   2.0000      -0.697283       -18.9740
  14   2.0000      -0.595691       -16.2096
  15   2.0000      -0.579613       -15.7721
  16   2.0000      -0.531005       -14.4494
  17   2.0000      -0.497141       -13.5279
  18   2.0000      -0.451567       -12.2878
  19   2.0000      -0.434521       -11.8239
  20   2.0000      -0.420678       -11.4472
  21   2.0000      -0.417084       -11.3494
  22   2.0000      -0.404145       -10.9974
  23   2.0000      -0.394824       -10.7437
  24   2.0000      -0.383457       -10.4344
  25   2.0000      -0.355799        -9.6818
  26   2.0000      -0.351680        -9.5697
  27   2.0000      -0.342835        -9.3290
  28   2.0000      -0.325205        -8.8493
  29   2.0000      -0.317431        -8.6377
  30   2.0000      -0.314334        -8.5535
  31   2.0000      -0.295179        -8.0322
  32   2.0000      -0.283208        -7.7065
  33   2.0000      -0.271475        -7.3872
  34   2.0000      -0.209377        -5.6974
  35   0.0000      -0.042722        -1.1625
  36   0.0000       0.070252         1.9117
  37   0.0000       0.093273         2.5381
  38   0.0000       0.104945         2.8557
  39   0.0000       0.112367         3.0576

MULLIKEN ATOMIC CHARGES
-----------------------
   0 C :   -0.549976
   1 C :    0.295047
   2 O :   -0.344209
   3 C :   -0.082294
   4 C :   -0.315691
   5 C :   -0.282867
   6 C :   -0.285361
   7 C :   -0.271026
   8 C :   -0.366997
   9 H :    0.177723
  10 H :    0.158898
  11 H :    0.182176
  12 H :    0.167016
  13 H :    0.168260
  14 H :    0.145947
  15 H :    0.148882
  16 H :    0.143778
  17 H :    0.144576
  18 H :    0.147990
  19 H :    0.148361
  20 H :    0.141395
  21 H :    0.175797
  22 H :    0.152574
Sum of atomic charges:    0.0000000

LOEWDIN ATOMIC CHARGES
----------------------
   0 C :   -0.394690
   1 C :    0.224710
   2 O :   -0.458171
   3 C :   -0.207342
   4 C :   -0.271274
   5 C :   -0.299315
   6 C :   -0.303522
   7 C :   -0.301704
   8 C :   -0.278029
   9 H :    0.181140
  10 H :    0.157823
  11 H :    0.181491
  12 H :    0.171966
  13 H :    0.165511
  14 H :    0.160346
  15 H :    0.156796
  16 H :    0.155378
  17 H :    0.155893
  18 H :    0.155409
  19 H :    0.156520
  20 H :    0.153988
  21 H :    0.172225
  22 H :    0.164851

  Mayer bond orders larger than 0.100000
B(  0-C ,  1-C ) :   0.8818 B(  0-C ,  9-H ) :   0.9564 B(  0-C , 10-H ) :   0.9764
B(  0-C , 11-H ) :   0.9599 B(  1-C ,  2-O ) :   1.9468 B(  1-C ,  3-C ) :   0.8612
B(  2-O ,  3-C ) :  -0.1063 B(  3-C ,  4-C ) :   0.8844 B(  3-C ,  8-C ) :   0.9193
B(  3-C , 12-H ) :   0.9390 B(  4-C ,  5-C ) :   0.9017 B(  4-C , 13-H ) :   0.9994
B(  4-C , 14-H ) :   0.9337 B(  5-C ,  6-C ) :   0.9202 B(  5-C , 15-H ) :   0.9437
B(  5-C , 16-H ) :   0.9922 B(  6-C ,  7-C ) :   0.9175 B(  6-C , 17-H ) :   0.9933
B(  6-C , 18-H ) :   0.9481 B(  7-C ,  8-C ) :   0.8852 B(  7-C , 19-H ) :   0.9476
B(  7-C , 20-H ) :   0.9913 B(  8-C , 21-H ) :   1.0058 B(  8-C , 22-H ) :   0.9458

Dispersion correction           -0.007293784
FINAL SINGLE POINT ENERGY      -388.408251133625

DIPOLE MOMENT
-------------

Method             : SCF
Type of density    : Electron Density
Multiplicity       :   1
Irrep              :   0
Energy             :  -388.4106705245381477 Eh
Relativity type    :
Basis              : AO
                                X                 Y                 Z
Electronic contribution:     -5.302637863       0.782083515       3.203994736
Nuclear contribution   :      5.796913411      -0.920465614      -4.185288936
                        -----------------------------------------
Total Dipole Moment    :      0.494275548      -0.138382099      -0.981294200
                        -----------------------------------------
Magnitude (a.u.)       :      1.107427754
Magnitude (Debye)      :      2.814857651

Rotational constants in cm-1:             0.103480             0.036158             0.030092
Rotational constants in MHz :          3102.264898          1083.987370           902.133798

                             ****ORCA TERMINATED NORMALLY****
TOTAL RUN TIME: 0 days 0 hours 0 minutes 30 seconds 217 msec
