                         Program Version 6.0.1  -  RELEASE   -
|  1> ! r2scan-3c def2/J RI DEFGRID2 scfconv6 printgap
|  2> %output
|  3>     printlevel normal
|  4> end
|  5> * xyz 0 1
|  6> C 3.72323351 -0.1772563058 -0.0636396955
|  7> C 2.2500085309 -0.3283461329 0.3045665912
|  8> H 2.1774007946 -0.5480596315 1.3763946743
|  9> C 1.6011207075 -1.4732721535 -0.4701904497
| 10> C 0.123239202 -1.5998731195 -0.1162749885
| 11> C -0.6443720041 -0.306430697 -0.4080747981
| 12> H -0.5187653547 -0.0638413893 -1.4687416185
| 13> C 0.0007354281 0.833538135 0.3928846357
| 14> H -0.0679165119 0.6012351368 1.4684987555
| 15> C 1.4827036131 0.9612028087 0.0224780919
| 16> O -0.6813709855 2.0457047775 0.1299463294
| 17> C -2.1572780214 -0.4953792678 -0.1593070938
| 18> C -2.5526907167 -0.3554429171 1.3087883135
| 19> C -2.981718502 0.4675241996 -1.0119908248
| 20> H 3.8285098805 0.0470022656 -1.1230381736
| 21> H 4.1813027881 0.6291958429 0.5048339778
| 22> H 4.2649585074 -1.0964752043 0.1473347045
| 23> H 1.703372523 -1.2844936659 -1.5414000992
| 24> H 2.1153877917 -2.4103375787 -0.2456056859
| 25> H -0.3176189382 -2.416455818 -0.691694183
| 26> H 0.0260104389 -1.849349899 0.9427841807
| 27> H 1.5583043453 1.2102505279 -1.0388629428
| 28> H 1.9243169245 1.7856995602 0.5919226638
| 29> H -0.188628951 2.7661683293 0.537388854
| 30> H -2.4017780435 -1.5171852512 -0.4767997498
| 31> H -3.5945747403 -0.6410379665 1.4380217224
| 32> H -2.4418174118 0.6757980777 1.6321877098
| 33> H -1.9457226088 -0.9959441469 1.944698635
| 34> H -4.0436559797 0.3214101451 -0.8255837301
| 35> H -2.7934592039 0.2992777486 -2.0702190107
| 36> H -2.7190728419 1.4927858142 -0.7724573471
| 37> *
| 38>
| 39>                          ****END OF INPUT****

CARTESIAN COORDINATES (ANGSTROEM)
---------------------------------
  C      3.723234   -0.177256   -0.063640
  C      2.250009   -0.328346    0.304567
  H      2.177401   -0.548060    1.376395
  C      1.601121   -1.473272   -0.470190
  C      0.123239   -1.599873   -0.116275
  C     -0.644372   -0.306431   -0.408075
  H     -0.518765   -0.063841   -1.468742
  C      0.000735    0.833538    0.392885
  H     -0.067917    0.601235    1.468499
  C      1.482704    0.961203    0.022478
  O     -0.681371    2.045705    0.129946
  C     -2.157278   -0.495379   -0.159307
  C     -2.552691   -0.355443    1.308788
  C     -2.981719    0.467524   -1.011991
  H      3.828510    0.047002   -1.123038
  H      4.181303    0.629196    0.504834
  H      4.264959   -1.096475    0.147335
  H      1.703373   -1.284494   -1.541400
  H      2.115388   -2.410338   -0.245606
  H     -0.317619   -2.416456   -0.691694
  H      0.026010   -1.849350    0.942784
  H      1.558304    1.210251   -1.038863
  H      1.924317    1.785700    0.591923
  H     -0.188629    2.766168    0.537389
  H     -2.401778   -1.517185   -0.476800
  H     -3.594575   -0.641038    1.438022
  H     -2.441817    0.675798    1.632188
  H     -1.945723   -0.995944    1.944699
  H     -4.043656    0.321410   -0.825584
  H     -2.793459    0.299278   -2.070219
  H     -2.719073    1.492786   -0.772457

 Total Charge           Charge          ....    0
 Multiplicity           Mult            ....    1
 Number of Electrons    NEL             ....   88
 Basis Dimension        Dim             ....  314

ORBITAL ENERGIES
----------------

  NO   OCC          E(Eh)            E(eV)
   0   2.0000     -18.946387      -515.5574
   1   2.0000     -10.076730      -274.2018
   2   2.0000     -10.034692      -273.0579
   3   2.0000     -10.025980      -272.8208
   4   2.0000     -10.024557      -272.7821
   5   2.0000     -10.024444      -272.7790
   6   2.0000     -10.023091      -272.7422
   7   2.0000     -10.022732      -272.7324
   8   2.0000     -10.017643      -272.5939
   9   2.0000     -10.006452      -272.2894
  10   2.0000      -9.997276      -272.0397
  11   2.0000      -0.986699       -26.8495
  12   2.0000      -0.806655       -21.9502
  13   2.0000      -0.764388       -20.8000
  14   2.0000      -0.711763       -19.3681
  15   2.0000      -0.697886       -18.9905
  16   2.0000      -0.641990       -17.4694
  17   2.0000      -0.638024       -17.3615
  18   2.0000      -0.583716       -15.8837
  19   2.0000      -0.561314       -15.2741
  20   2.0000      -0.529555       -14.4099
  21   2.0000      -0.509879       -13.8745
  22   2.0000      -0.474667       -12.9163
  23   2.0000      -0.435880       -11.8609
  24   2.0000      -0.433877       -11.8064
  25   2.0000      -0.421169       -11.4606
  26   2.0000      -0.409525       -11.1437
  27   2.0000      -0.386775       -10.5247
  28   2.0000      -0.376791       -10.2530
  29   2.0000      -0.367116        -9.9897
  30   2.0000      -0.359634        -9.7861
  31   2.0000      -0.352291        -9.5863
  32   2.0000      -0.348081        -9.4718
  33   2.0000      -0.334601        -9.1049
  34   2.0000      -0.327685        -8.9168
  35   2.0000      -0.323607        -8.8058
  36   2.0000      -0.310004        -8.4356
  37   2.0000      -0.303108        -8.2480
  38   2.0000      -0.295244        -8.0340
  39   2.0000      -0.281170        -7.6510
  40   2.0000      -0.279240        -7.5985
  41   2.0000      -0.269820        -7.3422
  42   2.0000      -0.254617        -6.9285
  43   2.0000      -0.232016        -6.3135
  44   0.0000       0.060791         1.6542
  45   0.0000       0.081400         2.2150
  46   0.0000       0.090095         2.4516
  47   0.0000       0.102445         2.7877
  48   0.0000       0.111625         3.0375

MULLIKEN ATOMIC CHARGES
-----------------------
   0 C :   -0.500666
   1 C :   -0.033246
   2 H :    0.160290
   3 C :   -0.335273
   4 C :   -0.354812
   5 C :   -0.146318
   6 H :    0.176889
   7 C :   -0.014946
   8 H :    0.157544
   9 C :   -0.383864
  10 O :   -0.414529
  11 C :    0.089759
  12 C :   -0.582071
  13 C :   -0.556997
  14 H :    0.151492
  15 H :    0.146213
  16 H :    0.148164
  17 H :    0.157797
  18 H :    0.147363
  19 H :    0.147866
  20 H :    0.158003
  21 H :    0.175150
  22 H :    0.130035
  23 H :    0.282876
  24 H :    0.144210
  25 H :    0.148888
  26 H :    0.172543
  27 H :    0.154285
  28 H :    0.138731
  29 H :    0.139449
  30 H :    0.195176
Sum of atomic charges:    0.0000000

LOEWDIN ATOMIC CHARGES
----------------------
   0 C :   -0.412183
   1 C :   -0.233209
   2 H :    0.158597
   3 C :   -0.293018
   4 C :   -0.286328
   5 C :   -0.185743
   6 H :    0.172752
   7 C :    0.067419
   8 H :    0.168834
   9 C :   -0.269857
  10 O :   -0.619380
  11 C :   -0.228026
  12 C :   -0.414223
  13 C :   -0.413816
  14 H :    0.154517
  15 H :    0.152829
  16 H :    0.153610
  17 H :    0.159094
  18 H :    0.158369
  19 H :    0.159821
  20 H :    0.160092
  21 H :    0.168654
  22 H :    0.157179
  23 H :    0.266245
  24 H :    0.156526
  25 H :    0.153199
  26 H :    0.162344
  27 H :    0.150367
  28 H :    0.148579
  29 H :    0.150421
  30 H :    0.176331

  Mayer bond orders larger than 0.100000
B(  0-C ,  1-C ) :   0.8834 B(  0-C , 14-H ) :   0.9962 B(  0-C , 15-H ) :   0.9776
B(  0-C , 16-H ) :   0.9760 B(  1-C ,  2-H ) :   0.9536 B(  1-C ,  3-C ) :   0.9197
B(  1-C ,  9-C ) :   0.9042 B(  3-C ,  4-C ) :   0.8780 B(  3-C , 17-H ) :   1.0170
B(  3-C , 18-H ) :   0.9468 B(  4-C ,  5-C ) :   0.9160 B(  4-C , 19-H ) :   0.9463
B(  4-C , 20-H ) :   0.9942 B(  5-C ,  6-H ) :   1.0153 B(  5-C ,  7-C ) :   0.9161
B(  5-C , 11-C ) :   0.8545 B(  7-C ,  8-H ) :   0.9819 B(  7-C ,  9-C ) :   0.8620
B(  7-C , 10-O ) :   0.8553 B(  9-C , 21-H ) :   1.0229 B(  9-C , 22-H ) :   0.9421
B( 10-O , 23-H ) :   0.9031 B( 11-C , 12-C ) :   0.8362 B( 11-C , 13-C ) :   0.8927
B( 11-C , 24-H ) :   0.9905 B( 12-C , 25-H ) :   0.9676 B( 12-C , 26-H ) :   0.9729
B( 12-C , 27-H ) :   0.9907 B( 13-C , 28-H ) :   0.9794 B( 13-C , 29-H ) :   0.9804
B( 13-C , 30-H ) :   0.9779

Dispersion correction           -0.010868373
FINAL SINGLE POINT ENERGY      -468.207896292589

DIPOLE MOMENT
-------------

Method             : SCF
Type of density    : Electron Density
Multiplicity       :   1
Irrep              :   0
Energy             :  -468.2122980165263471 Eh
Relativity type    :
Basis              : AO
                                X                 Y                 Z
Electronic contribution:     -0.110070900       2.727348900      -0.035056336
Nuclear contribution   :      0.690280080      -2.778846366       0.311206468
                        -----------------------------------------
Total Dipole Moment    :      0.580209180      -0.051497467       0.276150132
                        -----------------------------------------
Magnitude (a.u.)       :      0.644634453
Magnitude (Debye)      :      1.638530562

Rotational constants in cm-1:             0.065975             0.022745             0.019598
Rotational constants in MHz :          1977.883022           681.887090           587.530364

                             ****ORCA TERMINATED NORMALLY****
TOTAL RUN TIME: 0 days 0 hours 0 minutes 41 seconds 570 msec
