                         Program Version 6.0.1  -  RELEASE   -
|  1> ! r2scan-3c def2/J RI DEFGRID2 scfconv6 printgap
|  2> %output
|  3>     printlevel normal
|  4> end
|  5> * xyz 0 1
|  6> C -3.9067120791 -1.5107250586 0.0682710022
|  7> C -2.9900134242 -1.9683192108 -0.8633944305
|  8> C -1.703659717 -1.4613277515 -0.8780273378
|  9> C -1.3234932345 -0.4812372853 0.0338129445
| 10> C -2.2476735709 -0.0303048022 0.97091629
| 11> C -3.5310061608 -0.5453229417 0.9871683126
| 12> C 0.0521564562 0.0482722269 0.0097349848
| 13> C 1.1255242974 -0.835446593 0.0743382561
| 14> C 2.4265336089 -0.3648970554 0.0592944984
| 15> C 2.6902592093 0.9933422105 -0.0266536623
| 16> C 1.6325968061 1.8802221031 -0.1050423811
| 17> C 0.3279942476 1.4126606308 -0.0866114285
| 18> Cl -0.9607647793 2.5564144737 -0.2388888713
| 19> Cl 3.7373287277 -1.4863385903 0.1496139637
| 20> H -4.9110168761 -1.9072774557 0.0795626154
| 21> H -3.2781115381 -2.7220523039 -1.5813504491
| 22> H -0.9897983877 -1.8094993376 -1.61042483
| 23> H -1.9536397067 0.7122576408 1.6975218443
| 24> H -4.2406012028 -0.1911890446 1.7203460921
| 25> H 0.9332720574 -1.8944795369 0.1505896656
| 26> H 3.7070821464 1.3514267972 -0.0369787001
| 27> H 1.8175674499 2.9397257853 -0.1844246433
| 28> *
| 29>
| 30>                          ****END OF INPUT****

CARTESIAN COORDINATES (ANGSTROEM)
---------------------------------
  C     -3.906712   -1.510725    0.068271
  C     -2.990013   -1.968319   -0.863394
  C     -1.703660   -1.461328   -0.878027
  C     -1.323493   -0.481237    0.033813
  C     -2.247674   -0.030305    0.970916
  C     -3.531006   -0.545323    0.987168
  C      0.052156    0.048272    0.009735
  C      1.125524   -0.835447    0.074338
  C      2.426534   -0.364897    0.059294
  C      2.690259    0.993342   -0.026654
  C      1.632597    1.880222   -0.105042
  C      0.327994    1.412661   -0.086611
  Cl    -0.960765    2.556414   -0.238889
  Cl     3.737329   -1.486339    0.149614
  H     -4.911017   -1.907277    0.079563
  H     -3.278112   -2.722052   -1.581350
  H     -0.989798   -1.809499   -1.610425
  H     -1.953640    0.712258    1.697522
  H     -4.240601   -0.191189    1.720346
  H      0.933272   -1.894480    0.150590
  H      3.707082    1.351427   -0.036979
  H      1.817567    2.939726   -0.184425

 Total Charge           Charge          ....    0
 Multiplicity           Mult            ....    1
 Number of Electrons    NEL             ....  114
 Basis Dimension        Dim             ....  322

ORBITAL ENERGIES
----------------

  NO   OCC          E(Eh)            E(eV)
   0   2.0000    -101.226731     -2754.5194
   1   2.0000    -101.224961     -2754.4712
   2   2.0000     -10.109687      -275.0986
   3   2.0000     -10.109598      -275.0962
   4   2.0000     -10.071869      -274.0695
   5   2.0000     -10.061535      -273.7883
   6   2.0000     -10.060277      -273.7541
   7   2.0000     -10.059759      -273.7400
   8   2.0000     -10.056764      -273.6585
   9   2.0000     -10.044415      -273.3224
  10   2.0000     -10.043424      -273.2955
  11   2.0000     -10.042792      -273.2783
  12   2.0000     -10.042358      -273.2665
  13   2.0000     -10.041946      -273.2552
  14   2.0000      -9.382762      -255.3179
  15   2.0000      -9.381064      -255.2717
  16   2.0000      -7.128957      -193.9888
  17   2.0000      -7.127325      -193.9444
  18   2.0000      -7.119027      -193.7186
  19   2.0000      -7.118551      -193.7056
  20   2.0000      -7.117406      -193.6745
  21   2.0000      -7.116675      -193.6546
  22   2.0000      -0.886625       -24.1263
  23   2.0000      -0.853606       -23.2278
  24   2.0000      -0.836353       -22.7583
  25   2.0000      -0.796429       -21.6719
  26   2.0000      -0.765300       -20.8249
  27   2.0000      -0.725641       -19.7457
  28   2.0000      -0.715439       -19.4681
  29   2.0000      -0.691501       -18.8167
  30   2.0000      -0.618181       -16.8216
  31   2.0000      -0.595151       -16.1949
  32   2.0000      -0.578953       -15.7541
  33   2.0000      -0.556950       -15.1554
  34   2.0000      -0.507806       -13.8181
  35   2.0000      -0.484894       -13.1946
  36   2.0000      -0.472030       -12.8446
  37   2.0000      -0.450651       -12.2628
  38   2.0000      -0.432153       -11.7595
  39   2.0000      -0.430148       -11.7049
  40   2.0000      -0.417850       -11.3703
  41   2.0000      -0.405787       -11.0420
  42   2.0000      -0.400528       -10.8989
  43   2.0000      -0.390459       -10.6249
  44   2.0000      -0.367127        -9.9900
  45   2.0000      -0.361564        -9.8387
  46   2.0000      -0.350268        -9.5313
  47   2.0000      -0.348395        -9.4803
  48   2.0000      -0.325935        -8.8691
  49   2.0000      -0.322506        -8.7758
  50   2.0000      -0.295526        -8.0417
  51   2.0000      -0.293030        -7.9737
  52   2.0000      -0.290167        -7.8959
  53   2.0000      -0.268786        -7.3141
  54   2.0000      -0.244874        -6.6634
  55   2.0000      -0.238074        -6.4783
  56   2.0000      -0.222607        -6.0574
  57   0.0000      -0.067729        -1.8430
  58   0.0000      -0.055301        -1.5048
  59   0.0000      -0.039130        -1.0648
  60   0.0000      -0.025920        -0.7053
  61   0.0000       0.000994         0.0271

MULLIKEN ATOMIC CHARGES
-----------------------
   0 C :   -0.131677
   1 C :   -0.164979
   2 C :   -0.197298
   3 C :    0.129866
   4 C :   -0.175790
   5 C :   -0.166905
   6 C :    0.135513
   7 C :   -0.292064
   8 C :    0.197181
   9 C :   -0.198174
  10 C :   -0.192444
  11 C :    0.061058
  12 Cl:   -0.118130
  13 Cl:   -0.140401
  14 H :    0.147909
  15 H :    0.146935
  16 H :    0.155117
  17 H :    0.158413
  18 H :    0.146816
  19 H :    0.171275
  20 H :    0.164011
  21 H :    0.163769
Sum of atomic charges:    0.0000000

LOEWDIN ATOMIC CHARGES
----------------------
   0 C :   -0.159853
   1 C :   -0.158778
   2 C :   -0.142791
   3 C :   -0.079682
   4 C :   -0.142787
   5 C :   -0.158121
   6 C :   -0.068749
   7 C :   -0.146059
   8 C :   -0.168466
   9 C :   -0.165861
  10 C :   -0.157884
  11 C :   -0.153193
  12 Cl:    0.158912
  13 Cl:    0.135085
  14 H :    0.168127
  15 H :    0.168929
  16 H :    0.175502
  17 H :    0.176209
  18 H :    0.169075
  19 H :    0.188249
  20 H :    0.180858
  21 H :    0.181279

  Mayer bond orders larger than 0.100000
B(  0-C ,  1-C ) :   1.4210 B(  0-C ,  5-C ) :   1.4133 B(  0-C , 14-H ) :   0.9460
B(  1-C ,  2-C ) :   1.4320 B(  1-C , 15-H ) :   0.9490 B(  2-C ,  3-C ) :   1.4074
B(  2-C , 16-H ) :   0.9439 B(  3-C ,  4-C ) :   1.4030 B(  3-C ,  6-C ) :   0.7870
B(  4-C ,  5-C ) :   1.4435 B(  4-C , 17-H ) :   0.9380 B(  5-C , 18-H ) :   0.9489
B(  6-C ,  7-C ) :   1.3829 B(  6-C , 11-C ) :   1.3463 B(  7-C ,  8-C ) :   1.3885
B(  7-C , 19-H ) :   0.9318 B(  8-C ,  9-C ) :   1.3800 B(  8-C , 13-Cl) :   0.9176
B(  9-C , 10-C ) :   1.3723 B(  9-C , 20-H ) :   0.9416 B( 10-C , 11-C ) :   1.3496
B( 10-C , 21-H ) :   0.9446 B( 11-C , 12-Cl) :   1.0491

Dispersion correction           -0.010713387
FINAL SINGLE POINT ENERGY     -1382.334077821263

DIPOLE MOMENT
-------------

Method             : SCF
Type of density    : Electron Density
Multiplicity       :   1
Irrep              :   0
Energy             : -1382.3303948280702116 Eh
Relativity type    :
Basis              : AO
                                X                 Y                 Z
Electronic contribution:     11.828820524       4.714754253      -0.318181324
Nuclear contribution   :    -12.090779141      -4.739657422       0.340147784
                        -----------------------------------------
Total Dipole Moment    :     -0.261958617      -0.024903169       0.021966460
                        -----------------------------------------
Magnitude (a.u.)       :      0.264054938
Magnitude (Debye)      :      0.671174313

Rotational constants in cm-1:             0.028622             0.011848             0.008869
Rotational constants in MHz :           858.058072           355.181642           265.884895

                             ****ORCA TERMINATED NORMALLY****
TOTAL RUN TIME: 0 days 0 hours 0 minutes 31 seconds 759 msec
