                         Program Version 6.0.1  -  RELEASE   -
|  1> ! pbe def2-sv(p) def2/J RI DEFGRID1 loosescf d4 GCP(DFT/SV(P)) printgap
|  2> %output
|  3>     printlevel normal
|  4> end
|  5> * xyz 0 1
|  6> C -2.5111905829 -0.5207711382 1.3677667202
|  7> C -2.0523711598 -0.4512140209 -0.0940933543
|  8> H -2.9471650198 -0.4560909176 -0.7244213746
|  9> C -1.137472428 -1.6346343011 -0.4680238458
| 10> C 0.2913721904 -1.1929196018 -0.7750544835
| 11> C 0.7954999416 -0.2825706021 0.346217369
| 12> H 0.5912049147 -0.7804639966 1.2996824786
| 13> C 0.0097615198 1.0374489062 0.2849568698
| 14> C -1.3746857594 0.8893451041 -0.3008181697
| 15> O -1.9258740142 1.8019539071 -0.8656690756
| 16> C 2.2799042175 -0.0129662189 0.2768749291
| 17> C 3.0339251665 -0.0699065041 1.363426469
| 18> C 2.8535844519 0.3256003832 -1.065555484
| 19> H -1.6606533509 -0.5296013528 2.0446266818
| 20> H -3.1373926095 0.3360367363 1.607962341
| 21> H -3.0924781172 -1.4260290422 1.529424146
| 22> H -1.1182762084 -2.3486993089 0.3580534248
| 23> H -1.5454856242 -2.1526546853 -1.3373576288
| 24> H 0.9311195901 -2.0730010383 -0.8639604068
| 25> H 0.3140364368 -0.6541929876 -1.7242456804
| 26> H -0.1003850667 1.4635215165 1.2855826226
| 27> H 0.5404023219 1.7824683817 -0.3116208176
| 28> H 4.0903048478 0.1370216782 1.3350930723
| 29> H 2.628938011 -0.3262400533 2.3281435323
| 30> H 3.864787733 0.7103875087 -0.9637394563
| 31> H 2.8879368059 -0.5638305092 -1.6940927236
| 32> H 2.246434445 1.0691972702 -1.5780706804
| 33> *
| 34>
| 35>                          ****END OF INPUT****

CARTESIAN COORDINATES (ANGSTROEM)
---------------------------------
  C     -2.511191   -0.520771    1.367767
  C     -2.052371   -0.451214   -0.094093
  H     -2.947165   -0.456091   -0.724421
  C     -1.137472   -1.634634   -0.468024
  C      0.291372   -1.192920   -0.775054
  C      0.795500   -0.282571    0.346217
  H      0.591205   -0.780464    1.299682
  C      0.009762    1.037449    0.284957
  C     -1.374686    0.889345   -0.300818
  O     -1.925874    1.801954   -0.865669
  C      2.279904   -0.012966    0.276875
  C      3.033925   -0.069907    1.363426
  C      2.853584    0.325600   -1.065555
  H     -1.660653   -0.529601    2.044627
  H     -3.137393    0.336037    1.607962
  H     -3.092478   -1.426029    1.529424
  H     -1.118276   -2.348699    0.358053
  H     -1.545486   -2.152655   -1.337358
  H      0.931120   -2.073001   -0.863960
  H      0.314036   -0.654193   -1.724246
  H     -0.100385    1.463522    1.285583
  H      0.540402    1.782468   -0.311621
  H      4.090305    0.137022    1.335093
  H      2.628938   -0.326240    2.328144
  H      3.864788    0.710388   -0.963739
  H      2.887937   -0.563831   -1.694093
  H      2.246434    1.069197   -1.578071

 Total Charge           Charge          ....    0
 Multiplicity           Mult            ....    1
 Number of Electrons    NEL             ....   84
 Basis Dimension        Dim             ....  186

ORBITAL ENERGIES
----------------

  NO   OCC          E(Eh)            E(eV)
   0   2.0000     -18.737472      -509.8725
   1   2.0000      -9.969516      -271.2843
   2   2.0000      -9.906121      -269.5593
   3   2.0000      -9.903520      -269.4885
   4   2.0000      -9.900981      -269.4194
   5   2.0000      -9.895231      -269.2629
   6   2.0000      -9.894546      -269.2443
   7   2.0000      -9.894459      -269.2419
   8   2.0000      -9.891301      -269.1560
   9   2.0000      -9.885800      -269.0063
  10   2.0000      -9.875959      -268.7385
  11   2.0000      -0.938090       -25.5267
  12   2.0000      -0.774002       -21.0617
  13   2.0000      -0.730187       -19.8694
  14   2.0000      -0.683287       -18.5932
  15   2.0000      -0.665607       -18.1121
  16   2.0000      -0.619972       -16.8703
  17   2.0000      -0.602800       -16.4030
  18   2.0000      -0.554687       -15.0938
  19   2.0000      -0.540007       -14.6943
  20   2.0000      -0.480325       -13.0703
  21   2.0000      -0.460676       -12.5356
  22   2.0000      -0.440373       -11.9832
  23   2.0000      -0.418786       -11.3957
  24   2.0000      -0.417931       -11.3725
  25   2.0000      -0.399767       -10.8782
  26   2.0000      -0.394564       -10.7366
  27   2.0000      -0.382101       -10.3975
  28   2.0000      -0.368332       -10.0228
  29   2.0000      -0.363511        -9.8916
  30   2.0000      -0.352372        -9.5885
  31   2.0000      -0.350023        -9.5246
  32   2.0000      -0.346031        -9.4160
  33   2.0000      -0.329653        -8.9703
  34   2.0000      -0.316618        -8.6156
  35   2.0000      -0.314014        -8.5448
  36   2.0000      -0.308204        -8.3867
  37   2.0000      -0.295006        -8.0275
  38   2.0000      -0.280880        -7.6431
  39   2.0000      -0.276693        -7.5292
  40   2.0000      -0.222792        -6.0625
  41   2.0000      -0.188930        -5.1410
  42   0.0000      -0.050203        -1.3661
  43   0.0000      -0.014093        -0.3835
  44   0.0000       0.025671         0.6986
  45   0.0000       0.041149         1.1197
  46   0.0000       0.051128         1.3913

MULLIKEN ATOMIC CHARGES
-----------------------
   0 C :   -0.278857
   1 C :   -0.137681
   2 H :    0.072265
   3 C :   -0.078261
   4 C :   -0.142634
   5 C :   -0.156241
   6 H :    0.057387
   7 C :   -0.106992
   8 C :   -0.010591
   9 O :   -0.147820
  10 C :   -0.024301
  11 C :   -0.231250
  12 C :   -0.225254
  13 H :    0.111841
  14 H :    0.117167
  15 H :    0.116908
  16 H :    0.074146
  17 H :    0.089766
  18 H :    0.095726
  19 H :    0.093792
  20 H :    0.115607
  21 H :    0.099981
  22 H :    0.080399
  23 H :    0.081782
  24 H :    0.101980
  25 H :    0.117887
  26 H :    0.113245
Sum of atomic charges:   -0.0000000

LOEWDIN ATOMIC CHARGES
----------------------
   0 C :   -0.320435
   1 C :   -0.170906
   2 H :    0.128434
   3 C :   -0.211149
   4 C :   -0.217223
   5 C :   -0.131978
   6 H :    0.118661
   7 C :   -0.234407
   8 C :    0.045546
   9 O :   -0.123228
  10 C :   -0.048532
  11 C :   -0.266389
  12 C :   -0.323035
  13 H :    0.117721
  14 H :    0.125586
  15 H :    0.125330
  16 H :    0.117322
  17 H :    0.123898
  18 H :    0.122426
  19 H :    0.121040
  20 H :    0.146789
  21 H :    0.136784
  22 H :    0.117068
  23 H :    0.115857
  24 H :    0.127182
  25 H :    0.132164
  26 H :    0.125475

  Mayer bond orders larger than 0.100000
B(  0-C ,  1-C ) :   1.0837 B(  0-C , 13-H ) :   0.9449 B(  0-C , 14-H ) :   0.9454
B(  0-C , 15-H ) :   0.9431 B(  1-C ,  2-H ) :   0.8749 B(  1-C ,  3-C ) :   1.0280
B(  1-C ,  8-C ) :   1.0092 B(  3-C ,  4-C ) :   1.1869 B(  3-C , 16-H ) :   0.9065
B(  3-C , 17-H ) :   0.9099 B(  4-C ,  5-C ) :   1.1273 B(  4-C , 18-H ) :   0.9201
B(  4-C , 19-H ) :   0.8740 B(  5-C ,  6-H ) :   0.8614 B(  5-C ,  7-C ) :   1.0350
B(  5-C , 10-C ) :   1.0128 B(  7-C ,  8-C ) :   0.9997 B(  7-C , 20-H ) :   0.8783
B(  7-C , 21-H ) :   0.8841 B(  8-C ,  9-O ) :   2.2065 B( 10-C , 11-C ) :   2.0429
B( 10-C , 12-C ) :   1.1167 B( 11-C , 22-H ) :   0.9029 B( 11-C , 23-H ) :   0.9093
B( 12-C , 24-H ) :   0.9357 B( 12-C , 25-H ) :   0.9211 B( 12-C , 26-H ) :   0.9262

Dispersion correction           -0.028703515
FINAL SINGLE POINT ENERGY      -464.822396641100

DIPOLE MOMENT
-------------

Method             : SCF
Type of density    : Electron Density
Multiplicity       :   1
Irrep              :   0
Energy             :  -464.9078482474768634 Eh
Relativity type    :
Basis              : AO
                                X                 Y                 Z
Electronic contribution:     -3.821094896       4.616775850      -2.090283341
Nuclear contribution   :      4.186932696      -5.426063434       2.418008558
                        -----------------------------------------
Total Dipole Moment    :      0.365837800      -0.809287584       0.327725217
                        -----------------------------------------
Magnitude (a.u.)       :      0.946671805
Magnitude (Debye)      :      2.406248501

Rotational constants in cm-1:             0.061469             0.023991             0.022287
Rotational constants in MHz :          1842.789051           719.238090           668.137216

                             ****ORCA TERMINATED NORMALLY****
TOTAL RUN TIME: 0 days 0 hours 0 minutes 26 seconds 921 msec
