                         Program Version 6.0.1  -  RELEASE   -
|  1> ! r2scan-3c def2/J RI DEFGRID2 scfconv6 printgap
|  2> %output
|  3>     printlevel normal
|  4> end
|  5> * xyz 0 1
|  6> C -2.1535082243 -0.9009234076 -0.2607343586
|  7> C -1.1604619407 -0.341323914 0.7839434566
|  8> H -1.7108559392 -0.3637952951 1.7373493966
|  9> C -0.7479194549 1.1253381555 0.5361587549
| 10> H -1.6089519554 1.6685757666 0.114410991
| 11> C 0.4346963798 1.2797164311 -0.4348634421
| 12> H 0.8285528751 2.2987387286 -0.2908529629
| 13> C 1.5625174229 0.2997657028 -0.0671129743
| 14> H 2.2873470531 0.2464217631 -0.8894808373
| 15> C 1.0446652994 -1.145281208 0.1670577553
| 16> H 1.8333043915 -1.6846529931 0.7097538273
| 17> O -0.0531327084 -1.1837717038 1.0450936499
| 18> O 0.8466966072 -1.8243907435 -1.0258217109
| 19> O 2.2688651078 0.772992537 1.0452924621
| 20> O -0.0405714495 1.1372600892 -1.7566150434
| 21> O -0.3265337777 1.7330239394 1.7394211206
| 22> O -1.6821566187 -0.9895946317 -1.5777086771
| 23> H -3.0613023338 -0.2821731225 -0.2198430095
| 24> H -2.4105809693 -1.9217627376 0.033269946
| 25> H -0.0662114227 -1.6708202723 -1.3506769807
| 26> H 1.6296061173 0.9736244554 1.7446696621
| 27> H 0.7137071418 1.0494232576 -2.3508373102
| 28> H -1.0183536922 1.6503000262 2.4053371457
| 29> H -1.3439528433 -0.1179780004 -1.8576710193
| 30> *
| 31>
| 32>                          ****END OF INPUT****

CARTESIAN COORDINATES (ANGSTROEM)
---------------------------------
  C     -2.153508   -0.900923   -0.260734
  C     -1.160462   -0.341324    0.783943
  H     -1.710856   -0.363795    1.737349
  C     -0.747919    1.125338    0.536159
  H     -1.608952    1.668576    0.114411
  C      0.434696    1.279716   -0.434863
  H      0.828553    2.298739   -0.290853
  C      1.562517    0.299766   -0.067113
  H      2.287347    0.246422   -0.889481
  C      1.044665   -1.145281    0.167058
  H      1.833304   -1.684653    0.709754
  O     -0.053133   -1.183772    1.045094
  O      0.846697   -1.824391   -1.025822
  O      2.268865    0.772993    1.045292
  O     -0.040571    1.137260   -1.756615
  O     -0.326534    1.733024    1.739421
  O     -1.682157   -0.989595   -1.577709
  H     -3.061302   -0.282173   -0.219843
  H     -2.410581   -1.921763    0.033270
  H     -0.066211   -1.670820   -1.350677
  H      1.629606    0.973624    1.744670
  H      0.713707    1.049423   -2.350837
  H     -1.018354    1.650300    2.405337
  H     -1.343953   -0.117978   -1.857671

 Total Charge           Charge          ....    0
 Multiplicity           Mult            ....    1
 Number of Electrons    NEL             ....   96
 Basis Dimension        Dim             ....  318

ORBITAL ENERGIES
----------------

  NO   OCC          E(Eh)            E(eV)
   0   2.0000     -18.993993      -516.8528
   1   2.0000     -18.986582      -516.6512
   2   2.0000     -18.969293      -516.1807
   3   2.0000     -18.966577      -516.1068
   4   2.0000     -18.948758      -515.6219
   5   2.0000     -18.933470      -515.2059
   6   2.0000     -10.124464      -275.5007
   7   2.0000     -10.115126      -275.2466
   8   2.0000     -10.108589      -275.0687
   9   2.0000     -10.107365      -275.0354
  10   2.0000     -10.095109      -274.7019
  11   2.0000     -10.089132      -274.5392
  12   2.0000      -1.048865       -28.5411
  13   2.0000      -1.029183       -28.0055
  14   2.0000      -1.023192       -27.8425
  15   2.0000      -1.005287       -27.3553
  16   2.0000      -0.990320       -26.9480
  17   2.0000      -0.962798       -26.1991
  18   2.0000      -0.765238       -20.8232
  19   2.0000      -0.735028       -20.0011
  20   2.0000      -0.673622       -18.3302
  21   2.0000      -0.626183       -17.0393
  22   2.0000      -0.621124       -16.9016
  23   2.0000      -0.561467       -15.2783
  24   2.0000      -0.525597       -14.3022
  25   2.0000      -0.518269       -14.1028
  26   2.0000      -0.500871       -13.6294
  27   2.0000      -0.488295       -13.2872
  28   2.0000      -0.468828       -12.7574
  29   2.0000      -0.454026       -12.3547
  30   2.0000      -0.447940       -12.1891
  31   2.0000      -0.441930       -12.0255
  32   2.0000      -0.419523       -11.4158
  33   2.0000      -0.407559       -11.0903
  34   2.0000      -0.389591       -10.6013
  35   2.0000      -0.380284       -10.3481
  36   2.0000      -0.371140       -10.0992
  37   2.0000      -0.354577        -9.6485
  38   2.0000      -0.326964        -8.8972
  39   2.0000      -0.325018        -8.8442
  40   2.0000      -0.315306        -8.5799
  41   2.0000      -0.302224        -8.2239
  42   2.0000      -0.278776        -7.5859
  43   2.0000      -0.274724        -7.4756
  44   2.0000      -0.269475        -7.3328
  45   2.0000      -0.261538        -7.1168
  46   2.0000      -0.233941        -6.3659
  47   2.0000      -0.212681        -5.7873
  48   0.0000       0.011540         0.3140
  49   0.0000       0.034916         0.9501
  50   0.0000       0.070230         1.9110
  51   0.0000       0.077958         2.1213
  52   0.0000       0.079550         2.1647

MULLIKEN ATOMIC CHARGES
-----------------------
   0 C :   -0.197480
   1 C :   -0.008830
   2 H :    0.144659
   3 C :   -0.121464
   4 H :    0.159139
   5 C :    0.052149
   6 H :    0.160043
   7 C :   -0.131976
   8 H :    0.159319
   9 C :   -0.060337
  10 H :    0.151316
  11 O :   -0.167644
  12 O :   -0.405473
  13 O :   -0.397403
  14 O :   -0.428604
  15 O :   -0.412166
  16 O :   -0.468146
  17 H :    0.134425
  18 H :    0.160115
  19 H :    0.395230
  20 H :    0.333257
  21 H :    0.315192
  22 H :    0.296911
  23 H :    0.337767
Sum of atomic charges:    0.0000000

LOEWDIN ATOMIC CHARGES
----------------------
   0 C :    0.023884
   1 C :    0.093066
   2 H :    0.199370
   3 C :    0.119369
   4 H :    0.185371
   5 C :    0.130374
   6 H :    0.198637
   7 C :    0.111076
   8 H :    0.196576
   9 C :    0.287248
  10 H :    0.214878
  11 O :   -0.646447
  12 O :   -0.521485
  13 O :   -0.563034
  14 O :   -0.592476
  15 O :   -0.591760
  16 O :   -0.611224
  17 H :    0.168449
  18 H :    0.191070
  19 H :    0.286197
  20 H :    0.283128
  21 H :    0.280394
  22 H :    0.273938
  23 H :    0.283401

  Mayer bond orders larger than 0.100000
B(  0-C ,  1-C ) :   0.9069 B(  0-C , 16-O ) :   0.9792 B(  0-C , 17-H ) :   0.9754
B(  0-C , 18-H ) :   0.9705 B(  1-C ,  2-H ) :   0.9531 B(  1-C ,  3-C ) :   0.8531
B(  1-C , 11-O ) :   0.8991 B(  3-C ,  4-H ) :   0.9663 B(  3-C ,  5-C ) :   0.8759
B(  3-C , 15-O ) :   0.9121 B(  5-C ,  6-H ) :   0.9551 B(  5-C ,  7-C ) :   0.8721
B(  5-C , 14-O ) :   0.8930 B(  7-C ,  8-H ) :   0.9896 B(  7-C ,  9-C ) :   0.8806
B(  7-C , 13-O ) :   0.9791 B(  9-C , 10-H ) :   0.9742 B(  9-C , 11-O ) :   0.9935
B(  9-C , 12-O ) :   1.0488 B( 12-O , 19-H ) :   0.7690 B( 13-O , 20-H ) :   0.8440
B( 14-O , 21-H ) :   0.8870 B( 15-O , 22-H ) :   0.8961 B( 16-O , 23-H ) :   0.8060

Dispersion correction           -0.008881255
FINAL SINGLE POINT ENERGY      -687.072673860552

DIPOLE MOMENT
-------------

Method             : SCF
Type of density    : Electron Density
Multiplicity       :   1
Irrep              :   0
Energy             :  -687.0864294569622643 Eh
Relativity type    :
Basis              : AO
                                X                 Y                 Z
Electronic contribution:      2.545325053      -0.658271483       0.429593457
Nuclear contribution   :     -3.669833314       1.726518251      -0.209160933
                        -----------------------------------------
Total Dipole Moment    :     -1.124508261       1.068246768       0.220432524
                        -----------------------------------------
Magnitude (a.u.)       :      1.566607955
Magnitude (Debye)      :      3.982000967

Rotational constants in cm-1:             0.040243             0.031284             0.027664
Rotational constants in MHz :          1206.441620           937.859487           829.331662

                             ****ORCA TERMINATED NORMALLY****
TOTAL RUN TIME: 0 days 0 hours 0 minutes 42 seconds 169 msec
