                         Program Version 6.0.1  -  RELEASE   -
|  1> ! r2scan-3c def2/J RI DEFGRID2 scfconv6 printgap
|  2> %output
|  3>     printlevel normal
|  4> end
|  5> * xyz 0 1
|  6> C -0.7220416582 -0.6165423166 0.2646994814
|  7> C 0.7255076483 -0.6229537126 -0.238504232
|  8> O 1.4147028536 0.5602625505 0.0723635633
|  9> O -1.4178889921 0.5484800246 -0.0958104758
| 10> H -0.7419703067 -0.6416890553 1.3587698981
| 11> H -1.2323773532 -1.5158179611 -0.1129436804
| 12> H 0.7456284985 -0.6940436875 -1.3305306151
| 13> H 1.2410286583 -1.5024784165 0.176521726
| 14> H 1.2453052738 0.7869122974 0.9939885649
| 15> H -1.2483417298 0.7378389678 -1.025774748
| 16> *
| 17>
| 18>                          ****END OF INPUT****

CARTESIAN COORDINATES (ANGSTROEM)
---------------------------------
  C     -0.722042   -0.616542    0.264699
  C      0.725508   -0.622954   -0.238504
  O      1.414703    0.560263    0.072364
  O     -1.417889    0.548480   -0.095810
  H     -0.741970   -0.641689    1.358770
  H     -1.232377   -1.515818   -0.112944
  H      0.745628   -0.694044   -1.330531
  H      1.241029   -1.502478    0.176522
  H      1.245305    0.786912    0.993989
  H     -1.248342    0.737839   -1.025775

 Total Charge           Charge          ....    0
 Multiplicity           Mult            ....    1
 Number of Electrons    NEL             ....   34
 Basis Dimension        Dim             ....  116

ORBITAL ENERGIES
----------------

  NO   OCC          E(Eh)            E(eV)
   0   2.0000     -18.952011      -515.7104
   1   2.0000     -18.951984      -515.7097
   2   2.0000     -10.083442      -274.3844
   3   2.0000     -10.083319      -274.3811
   4   2.0000      -1.003089       -27.2954
   5   2.0000      -0.981422       -26.7058
   6   2.0000      -0.704164       -19.1613
   7   2.0000      -0.604770       -16.4566
   8   2.0000      -0.494213       -13.4482
   9   2.0000      -0.452034       -12.3005
  10   2.0000      -0.432751       -11.7758
  11   2.0000      -0.424603       -11.5540
  12   2.0000      -0.372641       -10.1401
  13   2.0000      -0.323469        -8.8020
  14   2.0000      -0.298626        -8.1260
  15   2.0000      -0.249166        -6.7801
  16   2.0000      -0.235760        -6.4154
  17   0.0000       0.052965         1.4413
  18   0.0000       0.078143         2.1264
  19   0.0000       0.106311         2.8929
  20   0.0000       0.125781         3.4227
  21   0.0000       0.142687         3.8827

MULLIKEN ATOMIC CHARGES
-----------------------
   0 C :   -0.156270
   1 C :   -0.156476
   2 O :   -0.402578
   3 O :   -0.402558
   4 H :    0.134674
   5 H :    0.127828
   6 H :    0.134717
   7 H :    0.127851
   8 H :    0.296396
   9 H :    0.296418
Sum of atomic charges:   -0.0000000

LOEWDIN ATOMIC CHARGES
----------------------
   0 C :   -0.000097
   1 C :   -0.000090
   2 O :   -0.599082
   3 O :   -0.599072
   4 H :    0.172368
   5 H :    0.160348
   6 H :    0.172384
   7 H :    0.160349
   8 H :    0.266443
   9 H :    0.266448

  Mayer bond orders larger than 0.100000
B(  0-C ,  1-C ) :   0.9690 B(  0-C ,  3-O ) :   0.9377 B(  0-C ,  4-H ) :   0.9701
B(  0-C ,  5-H ) :   0.9592 B(  1-C ,  2-O ) :   0.9377 B(  1-C ,  6-H ) :   0.9701
B(  1-C ,  7-H ) :   0.9593 B(  2-O ,  8-H ) :   0.8966 B(  3-O ,  9-H ) :   0.8966

Dispersion correction           -0.001589116
FINAL SINGLE POINT ENERGY      -230.206637804482

DIPOLE MOMENT
-------------

Method             : SCF
Type of density    : Electron Density
Multiplicity       :   1
Irrep              :   0
Energy             :  -230.2124893903579732 Eh
Relativity type    :
Basis              : AO
                                X                 Y                 Z
Electronic contribution:     -0.006117067       2.053454079      -0.043321549
Nuclear contribution   :      0.008652427      -2.637898008       0.055971639
                        -----------------------------------------
Total Dipole Moment    :      0.002535360      -0.584443929       0.012650090
                        -----------------------------------------
Magnitude (a.u.)       :      0.584586315
Magnitude (Debye)      :      1.485900325

Rotational constants in cm-1:             0.507351             0.184044             0.153478
Rotational constants in MHz :         15209.996434          5517.512461          4601.142612

                             ****ORCA TERMINATED NORMALLY****
TOTAL RUN TIME: 0 days 0 hours 0 minutes 11 seconds 547 msec
