                         Program Version 6.0.1  -  RELEASE   -
|  1> ! pbe def2-sv(p) def2/J RI DEFGRID1 loosescf d4 GCP(DFT/SV(P)) printgap
|  2> %output
|  3>     printlevel normal
|  4> end
|  5> * xyz 0 1
|  6> C -2.1829847634 -1.236168496 0.04894573
|  7> C -1.1703125307 -0.3624879431 0.8251385097
|  8> H -1.6144995754 -0.0938973426 1.7906659369
|  9> C -0.841515094 0.9294763172 0.0572968467
| 10> H -1.0270906148 0.7785939675 -1.0173199072
| 11> C 0.6366663091 1.3012785452 0.2303852646
| 12> H 0.8573062241 1.4425151036 1.2984693106
| 13> C 1.5065261054 0.1631877888 -0.306150583
| 14> H 1.3836302751 0.131540239 -1.3960572249
| 15> C 1.0360626792 -1.1909737735 0.2801635146
| 16> H 1.8635172625 -1.611325838 0.8712745801
| 17> O -0.0090629009 -1.0999297504 1.1974202359
| 18> O 0.7232964552 -2.0487071403 -0.7945180506
| 19> O 2.8405825548 0.4113307815 0.0516777911
| 20> O 0.9306310798 2.4607487135 -0.4977632395
| 21> O -1.6003659427 2.0249341833 0.5262393893
| 22> O -1.9223768323 -1.3317223115 -1.3225850724
| 23> H -3.1780536391 -0.7919010838 0.1356292943
| 24> H -2.2052264802 -2.2293777841 0.5210083685
| 25> H 0.5427656365 -2.932266008 -0.4475360458
| 26> H 3.4306020647 0.0218319109 -0.6008727208
| 27> H 0.2958846114 3.1341326712 -0.2215777363
| 28> H -2.5246971882 1.8861293311 0.296189569
| 29> H -1.0038531698 -1.6345943996 -1.4381138657
| 30> *
| 31>
| 32>                          ****END OF INPUT****

CARTESIAN COORDINATES (ANGSTROEM)
---------------------------------
  C     -2.182985   -1.236168    0.048946
  C     -1.170313   -0.362488    0.825139
  H     -1.614500   -0.093897    1.790666
  C     -0.841515    0.929476    0.057297
  H     -1.027091    0.778594   -1.017320
  C      0.636666    1.301279    0.230385
  H      0.857306    1.442515    1.298469
  C      1.506526    0.163188   -0.306151
  H      1.383630    0.131540   -1.396057
  C      1.036063   -1.190974    0.280164
  H      1.863517   -1.611326    0.871275
  O     -0.009063   -1.099930    1.197420
  O      0.723296   -2.048707   -0.794518
  O      2.840583    0.411331    0.051678
  O      0.930631    2.460749   -0.497763
  O     -1.600366    2.024934    0.526239
  O     -1.922377   -1.331722   -1.322585
  H     -3.178054   -0.791901    0.135629
  H     -2.205226   -2.229378    0.521008
  H      0.542766   -2.932266   -0.447536
  H      3.430602    0.021832   -0.600873
  H      0.295885    3.134133   -0.221578
  H     -2.524697    1.886129    0.296190
  H     -1.003853   -1.634594   -1.438114

 Total Charge           Charge          ....    0
 Multiplicity           Mult            ....    1
 Number of Electrons    NEL             ....   96
 Basis Dimension        Dim             ....  192

ORBITAL ENERGIES
----------------

  NO   OCC          E(Eh)            E(eV)
   0   2.0000     -18.791152      -511.3333
   1   2.0000     -18.774234      -510.8729
   2   2.0000     -18.763142      -510.5710
   3   2.0000     -18.752796      -510.2895
   4   2.0000     -18.739175      -509.9189
   5   2.0000     -18.739076      -509.9162
   6   2.0000      -9.993448      -271.9356
   7   2.0000      -9.945906      -270.6419
   8   2.0000      -9.944695      -270.6089
   9   2.0000      -9.940196      -270.4865
  10   2.0000      -9.937776      -270.4206
  11   2.0000      -9.934173      -270.3226
  12   2.0000      -0.994880       -27.0721
  13   2.0000      -0.947356       -25.7789
  14   2.0000      -0.935090       -25.4451
  15   2.0000      -0.927993       -25.2520
  16   2.0000      -0.918022       -24.9806
  17   2.0000      -0.912123       -24.8201
  18   2.0000      -0.704290       -19.1647
  19   2.0000      -0.696963       -18.9653
  20   2.0000      -0.624337       -16.9891
  21   2.0000      -0.590539       -16.0694
  22   2.0000      -0.568196       -15.4614
  23   2.0000      -0.516944       -14.0668
  24   2.0000      -0.503246       -13.6940
  25   2.0000      -0.496008       -13.4971
  26   2.0000      -0.475286       -12.9332
  27   2.0000      -0.460499       -12.5308
  28   2.0000      -0.458524       -12.4771
  29   2.0000      -0.439101       -11.9486
  30   2.0000      -0.407278       -11.0826
  31   2.0000      -0.402293       -10.9469
  32   2.0000      -0.387636       -10.5481
  33   2.0000      -0.374069       -10.1789
  34   2.0000      -0.367344        -9.9959
  35   2.0000      -0.356737        -9.7073
  36   2.0000      -0.343977        -9.3601
  37   2.0000      -0.305471        -8.3123
  38   2.0000      -0.299541        -8.1509
  39   2.0000      -0.292402        -7.9567
  40   2.0000      -0.289297        -7.8722
  41   2.0000      -0.277577        -7.5532
  42   2.0000      -0.267326        -7.2743
  43   2.0000      -0.241901        -6.5825
  44   2.0000      -0.237390        -6.4597
  45   2.0000      -0.224725        -6.1151
  46   2.0000      -0.212864        -5.7923
  47   2.0000      -0.201035        -5.4704
  48   0.0000       0.009420         0.2563
  49   0.0000       0.011514         0.3133
  50   0.0000       0.029320         0.7978
  51   0.0000       0.047277         1.2865
  52   0.0000       0.061389         1.6705

MULLIKEN ATOMIC CHARGES
-----------------------
   0 C :    0.044549
   1 C :    0.027111
   2 H :    0.072077
   3 C :   -0.013429
   4 H :    0.072253
   5 C :    0.092514
   6 H :    0.065553
   7 C :    0.029901
   8 H :    0.072956
   9 C :    0.182971
  10 H :    0.069592
  11 O :   -0.301542
  12 O :   -0.412640
  13 O :   -0.397835
  14 O :   -0.410398
  15 O :   -0.419963
  16 O :   -0.440092
  17 H :    0.073395
  18 H :    0.071834
  19 H :    0.311618
  20 H :    0.305585
  21 H :    0.302429
  22 H :    0.308341
  23 H :    0.293219
Sum of atomic charges:    0.0000000

LOEWDIN ATOMIC CHARGES
----------------------
   0 C :   -0.138034
   1 C :   -0.082237
   2 H :    0.121024
   3 C :   -0.085493
   4 H :    0.107277
   5 C :   -0.062170
   6 H :    0.110765
   7 C :   -0.073278
   8 H :    0.114646
   9 C :   -0.009216
  10 H :    0.106091
  11 O :   -0.137723
  12 O :   -0.309042
  13 O :   -0.307898
  14 O :   -0.313467
  15 O :   -0.319953
  16 O :   -0.344985
  17 H :    0.109861
  18 H :    0.096748
  19 H :    0.288950
  20 H :    0.292012
  21 H :    0.283997
  22 H :    0.291038
  23 H :    0.261085

  Mayer bond orders larger than 0.100000
B(  0-C ,  1-C ) :   1.0354 B(  0-C , 16-O ) :   1.1051 B(  0-C , 17-H ) :   0.9192
B(  0-C , 18-H ) :   0.9064 B(  1-C ,  2-H ) :   0.8794 B(  1-C ,  3-C ) :   0.9813
B(  1-C , 11-O ) :   0.9863 B(  3-C ,  4-H ) :   0.8699 B(  3-C ,  5-C ) :   1.0154
B(  3-C , 15-O ) :   1.0619 B(  5-C ,  6-H ) :   0.8683 B(  5-C ,  7-C ) :   1.0230
B(  5-C , 14-O ) :   1.1024 B(  7-C ,  8-H ) :   0.8843 B(  7-C ,  9-C ) :   0.9784
B(  7-C , 13-O ) :   1.1167 B(  9-C , 10-H ) :   0.8916 B(  9-C , 11-O ) :   1.1103
B(  9-C , 12-O ) :   1.0313 B( 12-O , 19-H ) :   0.8310 B( 12-O , 23-H ) :   0.1297
B( 13-O , 20-H ) :   0.8504 B( 14-O , 21-H ) :   0.8366 B( 15-O , 22-H ) :   0.8476
B( 16-O , 23-H ) :   0.7867

Dispersion correction           -0.025025588
FINAL SINGLE POINT ENERGY      -685.694136166700

DIPOLE MOMENT
-------------

Method             : SCF
Type of density    : Electron Density
Multiplicity       :   1
Irrep              :   0
Energy             :  -685.8263512261459027 Eh
Relativity type    :
Basis              : AO
                                X                 Y                 Z
Electronic contribution:      2.746206049       0.961824654       0.302808973
Nuclear contribution   :     -2.968851239      -1.775055306      -0.207802154
                        -----------------------------------------
Total Dipole Moment    :     -0.222645190      -0.813230652       0.095006819
                        -----------------------------------------
Magnitude (a.u.)       :      0.848493529
Magnitude (Debye)      :      2.156699156

Rotational constants in cm-1:             0.038052             0.030895             0.020809
Rotational constants in MHz :          1140.765346           926.218044           623.834519

                             ****ORCA TERMINATED NORMALLY****
TOTAL RUN TIME: 0 days 0 hours 0 minutes 8 seconds 190 msec
