                         Program Version 6.0.1  -  RELEASE   -
|  1> ! pbe def2-sv(p) def2/J RI DEFGRID1 loosescf d4 GCP(DFT/SV(P)) printgap
|  2> %output
|  3>     printlevel normal
|  4> end
|  5> * xyz 0 1
|  6> C -1.8282912129 1.4823599045 -0.0006514172
|  7> C -0.542414352 0.7111643399 0.0003859876
|  8> C 0.6648617092 1.4005501667 0.0004942424
|  9> C 1.8615000027 0.7052573835 0.0001473812
| 10> C 1.8016701195 -0.6782739269 -0.0001997856
| 11> N 0.6644725101 -1.3479234929 -0.0003879426
| 12> C -0.4859662818 -0.6874135264 -5.9216e-06
| 13> C -1.7148797522 -1.5463726015 0.0005078336
| 14> H -1.8842922072 2.1098347666 -0.8899473187
| 15> H -2.6944593804 0.8297285491 0.016403874
| 16> H -1.8697556768 2.1372070667 0.8693019565
| 17> H 0.6603601506 2.4823648524 0.0008198291
| 18> H 2.8086403709 1.2222161715 -9.73717e-05
| 19> H 2.6991455591 -1.2833347437 -0.0013952088
| 20> H -2.32233477 -1.3532158691 -0.8822549921
| 21> H -1.4099624873 -2.5887661429 -0.0014684702
| 22> H -2.3194689302 -1.3559759926 0.8859454619
| 23> *
| 24>
| 25>                          ****END OF INPUT****

CARTESIAN COORDINATES (ANGSTROEM)
---------------------------------
  C     -1.828291    1.482360   -0.000651
  C     -0.542414    0.711164    0.000386
  C      0.664862    1.400550    0.000494
  C      1.861500    0.705257    0.000147
  C      1.801670   -0.678274   -0.000200
  N      0.664473   -1.347923   -0.000388
  C     -0.485966   -0.687414   -0.000006
  C     -1.714880   -1.546373    0.000508
  H     -1.884292    2.109835   -0.889947
  H     -2.694459    0.829729    0.016404
  H     -1.869756    2.137207    0.869302
  H      0.660360    2.482365    0.000820
  H      2.808640    1.222216   -0.000097
  H      2.699146   -1.283335   -0.001395
  H     -2.322335   -1.353216   -0.882255
  H     -1.409962   -2.588766   -0.001468
  H     -2.319469   -1.355976    0.885945

 Total Charge           Charge          ....    0
 Multiplicity           Mult            ....    1
 Number of Electrons    NEL             ....   58
 Basis Dimension        Dim             ....  130

ORBITAL ENERGIES
----------------

  NO   OCC          E(Eh)            E(eV)
   0   2.0000     -13.972623      -380.2144
   1   2.0000      -9.927314      -270.1359
   2   2.0000      -9.911425      -269.7036
   3   2.0000      -9.907880      -269.6071
   4   2.0000      -9.900583      -269.4086
   5   2.0000      -9.892684      -269.1936
   6   2.0000      -9.890998      -269.1477
   7   2.0000      -9.877095      -268.7694
   8   2.0000      -0.853947       -23.2371
   9   2.0000      -0.733005       -19.9461
  10   2.0000      -0.708324       -19.2745
  11   2.0000      -0.645288       -17.5592
  12   2.0000      -0.613023       -16.6812
  13   2.0000      -0.547218       -14.8906
  14   2.0000      -0.534130       -14.5344
  15   2.0000      -0.453662       -12.3448
  16   2.0000      -0.444786       -12.1032
  17   2.0000      -0.398375       -10.8403
  18   2.0000      -0.392588       -10.6829
  19   2.0000      -0.368801       -10.0356
  20   2.0000      -0.363844        -9.9007
  21   2.0000      -0.359640        -9.7863
  22   2.0000      -0.352235        -9.5848
  23   2.0000      -0.333991        -9.0884
  24   2.0000      -0.327908        -8.9228
  25   2.0000      -0.305966        -8.3258
  26   2.0000      -0.251055        -6.8316
  27   2.0000      -0.221684        -6.0323
  28   2.0000      -0.196745        -5.3537
  29   0.0000      -0.048696        -1.3251
  30   0.0000      -0.036383        -0.9900
  31   0.0000       0.042500         1.1565
  32   0.0000       0.057029         1.5519
  33   0.0000       0.080765         2.1977

MULLIKEN ATOMIC CHARGES
-----------------------
   0 C :   -0.223481
   1 C :   -0.024971
   2 C :   -0.064454
   3 C :   -0.065187
   4 C :   -0.060568
   5 N :   -0.053432
   6 C :   -0.136482
   7 C :   -0.215902
   8 H :    0.117217
   9 H :    0.105937
  10 H :    0.116631
  11 H :    0.047420
  12 H :    0.057837
  13 H :    0.064283
  14 H :    0.113800
  15 H :    0.107134
  16 H :    0.114220
Sum of atomic charges:   -0.0000000

LOEWDIN ATOMIC CHARGES
----------------------
   0 C :   -0.325585
   1 C :   -0.063014
   2 C :   -0.098828
   3 C :   -0.147478
   4 C :   -0.086665
   5 N :   -0.073781
   6 C :   -0.018835
   7 C :   -0.337685
   8 H :    0.134765
   9 H :    0.126434
  10 H :    0.134417
  11 H :    0.123278
  12 H :    0.126247
  13 H :    0.112340
  14 H :    0.130752
  15 H :    0.132789
  16 H :    0.130850

  Mayer bond orders larger than 0.100000
B(  0-C ,  1-C ) :   1.1232 B(  0-C ,  8-H ) :   0.9336 B(  0-C ,  9-H ) :   0.9295
B(  0-C , 10-H ) :   0.9339 B(  1-C ,  2-C ) :   1.4204 B(  1-C ,  6-C ) :   1.3494
B(  2-C ,  3-C ) :   1.4123 B(  2-C , 11-H ) :   0.9569 B(  3-C ,  4-C ) :   1.3672
B(  3-C , 12-H ) :   0.9479 B(  4-C ,  5-N ) :   1.5433 B(  4-C , 13-H ) :   0.9522
B(  5-N ,  6-C ) :   1.5794 B(  6-C ,  7-C ) :   1.1285 B(  7-C , 14-H ) :   0.9277
B(  7-C , 15-H ) :   0.9294 B(  7-C , 16-H ) :   0.9276

Dispersion correction           -0.016686755
FINAL SINGLE POINT ENERGY      -326.182943382448

DIPOLE MOMENT
-------------

Method             : SCF
Type of density    : Electron Density
Multiplicity       :   1
Irrep              :   0
Energy             :  -326.2313048273772438 Eh
Relativity type    :
Basis              : AO
                                X                 Y                 Z
Electronic contribution:      5.665171235      -1.275577954       0.001556762
Nuclear contribution   :     -5.936959335       2.056635137      -0.002527902
                        -----------------------------------------
Total Dipole Moment    :     -0.271788100       0.781057184      -0.000971140
                        -----------------------------------------
Magnitude (a.u.)       :      0.826994582
Magnitude (Debye)      :      2.102053175

Rotational constants in cm-1:             0.105277             0.076591             0.045080
Rotational constants in MHz :          3156.135251          2296.143339          1351.451735

                             ****ORCA TERMINATED NORMALLY****
TOTAL RUN TIME: 0 days 0 hours 0 minutes 8 seconds 935 msec
