                         Program Version 6.0.1  -  RELEASE   -
|  1> ! pbe def2-sv(p) def2/J RI DEFGRID1 loosescf d4 GCP(DFT/SV(P)) printgap
|  2> %output
|  3>     printlevel normal
|  4> end
|  5> * xyz 0 1
|  6> C 0.7462773307 -1.1714955119 0.316702636
|  7> C -0.7872396036 -1.2185491846 0.0998453328
|  8> N -1.2956156337 0.0154593576 -0.4714975146
|  9> C -0.774773855 1.1575342417 0.2532556483
| 10> C 0.7709804979 1.2264246109 0.1902035548
| 11> N 1.2560009812 -0.0127068035 -0.396161405
| 12> H 1.2214229032 -2.0647449124 -0.0927381678
| 13> H 0.9765187061 -1.1247163872 1.3959614165
| 14> H -1.0586399629 -2.0355584012 -0.5698157338
| 15> H -1.2969969407 -1.3766903477 1.0552673595
| 16> H -0.9792462671 0.0803065103 -1.435373021
| 17> H -1.2173819045 2.0630334019 -0.1654704579
| 18> H -1.1088578646 1.0637969004 1.2904988343
| 19> H 1.0966960709 2.0457454689 -0.4557274326
| 20> H 1.1804796474 1.402091536 1.2007721494
| 21> H 2.2698734807 -0.0189916465 -0.4141755739
| 22> *
| 23>
| 24>                          ****END OF INPUT****

CARTESIAN COORDINATES (ANGSTROEM)
---------------------------------
  C      0.746277   -1.171496    0.316703
  C     -0.787240   -1.218549    0.099845
  N     -1.295616    0.015459   -0.471498
  C     -0.774774    1.157534    0.253256
  C      0.770980    1.226425    0.190204
  N      1.256001   -0.012707   -0.396161
  H      1.221423   -2.064745   -0.092738
  H      0.976519   -1.124716    1.395961
  H     -1.058640   -2.035558   -0.569816
  H     -1.296997   -1.376690    1.055267
  H     -0.979246    0.080307   -1.435373
  H     -1.217382    2.063033   -0.165470
  H     -1.108858    1.063797    1.290499
  H      1.096696    2.045745   -0.455727
  H      1.180480    1.402092    1.200772
  H      2.269873   -0.018992   -0.414176

 Total Charge           Charge          ....    0
 Multiplicity           Mult            ....    1
 Number of Electrons    NEL             ....   48
 Basis Dimension        Dim             ....  104

ORBITAL ENERGIES
----------------

  NO   OCC          E(Eh)            E(eV)
   0   2.0000     -13.971627      -380.1873
   1   2.0000     -13.961320      -379.9068
   2   2.0000      -9.904100      -269.5043
   3   2.0000      -9.903610      -269.4909
   4   2.0000      -9.902666      -269.4652
   5   2.0000      -9.900959      -269.4188
   6   2.0000      -0.846848       -23.0439
   7   2.0000      -0.784359       -21.3435
   8   2.0000      -0.675099       -18.3704
   9   2.0000      -0.594265       -16.1708
  10   2.0000      -0.564585       -15.3632
  11   2.0000      -0.498395       -13.5620
  12   2.0000      -0.464304       -12.6344
  13   2.0000      -0.434489       -11.8231
  14   2.0000      -0.415070       -11.2946
  15   2.0000      -0.381110       -10.3705
  16   2.0000      -0.356211        -9.6930
  17   2.0000      -0.337137        -9.1740
  18   2.0000      -0.334210        -9.0943
  19   2.0000      -0.330828        -9.0023
  20   2.0000      -0.302918        -8.2428
  21   2.0000      -0.279866        -7.6155
  22   2.0000      -0.176822        -4.8116
  23   2.0000      -0.169221        -4.6047
  24   0.0000       0.024477         0.6660
  25   0.0000       0.055653         1.5144
  26   0.0000       0.071064         1.9337
  27   0.0000       0.074177         2.0184
  28   0.0000       0.087760         2.3881

MULLIKEN ATOMIC CHARGES
-----------------------
   0 C :   -0.079298
   1 C :   -0.063646
   2 N :   -0.330183
   3 C :   -0.093241
   4 C :   -0.061546
   5 N :   -0.377596
   6 H :    0.079565
   7 H :    0.052920
   8 H :    0.084906
   9 H :    0.077477
  10 H :    0.201140
  11 H :    0.090920
  12 H :    0.079776
  13 H :    0.077182
  14 H :    0.055031
  15 H :    0.206592
Sum of atomic charges:   -0.0000000

LOEWDIN ATOMIC CHARGES
----------------------
   0 C :   -0.190442
   1 C :   -0.177826
   2 N :   -0.249873
   3 C :   -0.179369
   4 C :   -0.189956
   5 N :   -0.269808
   6 H :    0.112052
   7 H :    0.084685
   8 H :    0.113911
   9 H :    0.108711
  10 H :    0.206732
  11 H :    0.114905
  12 H :    0.110955
  13 H :    0.108478
  14 H :    0.086643
  15 H :    0.210201

  Mayer bond orders larger than 0.100000
B(  0-C ,  1-C ) :   1.0669 B(  0-C ,  5-N ) :   1.1030 B(  0-C ,  6-H ) :   0.9297
B(  0-C ,  7-H ) :   0.9030 B(  1-C ,  2-N ) :   1.1383 B(  1-C ,  8-H ) :   0.9343
B(  1-C ,  9-H ) :   0.9289 B(  2-N ,  3-C ) :   1.1417 B(  2-N , 10-H ) :   0.8734
B(  3-C ,  4-C ) :   1.0777 B(  3-C , 11-H ) :   0.9379 B(  3-C , 12-H ) :   0.9235
B(  4-C ,  5-N ) :   1.1061 B(  4-C , 13-H ) :   0.9273 B(  4-C , 14-H ) :   0.9062
B(  5-N , 15-H ) :   0.8807

Dispersion correction           -0.013031364
FINAL SINGLE POINT ENERGY      -267.280820173239

DIPOLE MOMENT
-------------

Method             : SCF
Type of density    : Electron Density
Multiplicity       :   1
Irrep              :   0
Energy             :  -267.3457819162480291 Eh
Relativity type    :
Basis              : AO
                                X                 Y                 Z
Electronic contribution:     -0.397803751      -0.016603586      -1.598283368
Nuclear contribution   :      1.016630606       0.032167991       1.692578943
                        -----------------------------------------
Total Dipole Moment    :      0.618826854       0.015564404       0.094295574
                        -----------------------------------------
Magnitude (a.u.)       :      0.626163383
Magnitude (Debye)      :      1.591580833

Rotational constants in cm-1:             0.158191             0.153663             0.092198
Rotational constants in MHz :          4742.453227          4606.711194          2764.018208

                             ****ORCA TERMINATED NORMALLY****
TOTAL RUN TIME: 0 days 0 hours 0 minutes 17 seconds 54 msec
