                         Program Version 6.0.1  -  RELEASE   -
|  1> ! r2scan-3c def2/J RI DEFGRID2 scfconv6 printgap
|  2> %output
|  3>     printlevel normal
|  4> end
|  5> * xyz 0 1
|  6> C 2.483402398 -1.54863e-05 -0.0798178937
|  7> C 1.0139646688 -3.5698e-05 0.332124287
|  8> C 0.3011503467 1.2491154634 -0.1877086856
|  9> C -1.1682391766 1.251735482 0.2233678424
| 10> C -1.8701805788 9.55401e-05 -0.2937920721
| 11> C -1.1684052786 -1.25168867 0.2232475664
| 12> C 0.3010578081 -1.249187505 -0.1876000822
| 13> H 2.5739722282 0.0004482214 -1.164295549
| 14> H 2.9898676669 0.8820459765 0.3061501174
| 15> H 2.9894822866 -0.8826566188 0.3052438967
| 16> H 0.9585274591 -7.6094e-06 1.4270926604
| 17> H 0.7953750311 2.1434259943 0.1989544294
| 18> H 0.3720749389 1.2741269878 -1.2779671562
| 19> H -1.2391521768 1.2813404388 1.3134275709
| 20> H -1.6613708031 2.1445303972 -0.1676219937
| 21> H -2.9154039523 0.0001199954 0.0231131365
| 22> H -1.851544846 0.0001433301 -1.3862539371
| 23> H -1.2395003972 -1.2815043103 1.3132900298
| 24> H -1.6615545332 -2.1443613649 -0.1680071799
| 25> H 0.7951149695 -2.1434730004 0.1993421217
| 26> H 0.3721927867 -1.2744063616 -1.2778402839
| 27> *
| 28>
| 29>                          ****END OF INPUT****

CARTESIAN COORDINATES (ANGSTROEM)
---------------------------------
  C      2.483402   -0.000015   -0.079818
  C      1.013965   -0.000036    0.332124
  C      0.301150    1.249115   -0.187709
  C     -1.168239    1.251735    0.223368
  C     -1.870181    0.000096   -0.293792
  C     -1.168405   -1.251689    0.223248
  C      0.301058   -1.249188   -0.187600
  H      2.573972    0.000448   -1.164296
  H      2.989868    0.882046    0.306150
  H      2.989482   -0.882657    0.305244
  H      0.958527   -0.000008    1.427093
  H      0.795375    2.143426    0.198954
  H      0.372075    1.274127   -1.277967
  H     -1.239152    1.281340    1.313428
  H     -1.661371    2.144530   -0.167622
  H     -2.915404    0.000120    0.023113
  H     -1.851545    0.000143   -1.386254
  H     -1.239500   -1.281504    1.313290
  H     -1.661555   -2.144361   -0.168007
  H      0.795115   -2.143473    0.199342
  H      0.372193   -1.274406   -1.277840

 Total Charge           Charge          ....    0
 Multiplicity           Mult            ....    1
 Number of Electrons    NEL             ....   56
 Basis Dimension        Dim             ....  203

ORBITAL ENERGIES
----------------

  NO   OCC          E(Eh)            E(eV)
   0   2.0000     -10.026257      -272.8283
   1   2.0000     -10.018541      -272.6184
   2   2.0000     -10.018498      -272.6172
   3   2.0000     -10.018311      -272.6121
   4   2.0000     -10.017327      -272.5853
   5   2.0000     -10.017318      -272.5851
   6   2.0000     -10.011312      -272.4217
   7   2.0000      -0.800166       -21.7736
   8   2.0000      -0.727374       -19.7928
   9   2.0000      -0.703523       -19.1438
  10   2.0000      -0.637510       -17.3475
  11   2.0000      -0.570359       -15.5203
  12   2.0000      -0.546479       -14.8705
  13   2.0000      -0.517185       -14.0733
  14   2.0000      -0.439786       -11.9672
  15   2.0000      -0.414352       -11.2751
  16   2.0000      -0.406811       -11.0699
  17   2.0000      -0.399277       -10.8649
  18   2.0000      -0.377706       -10.2779
  19   2.0000      -0.351148        -9.5552
  20   2.0000      -0.341955        -9.3051
  21   2.0000      -0.331313        -9.0155
  22   2.0000      -0.314337        -8.5535
  23   2.0000      -0.306940        -8.3523
  24   2.0000      -0.297875        -8.1056
  25   2.0000      -0.284675        -7.7464
  26   2.0000      -0.261523        -7.1164
  27   2.0000      -0.258635        -7.0378
  28   0.0000       0.088455         2.4070
  29   0.0000       0.106378         2.8947
  30   0.0000       0.116139         3.1603
  31   0.0000       0.121484         3.3057
  32   0.0000       0.130773         3.5585

MULLIKEN ATOMIC CHARGES
-----------------------
   0 C :   -0.487352
   1 C :   -0.061609
   2 C :   -0.315357
   3 C :   -0.284744
   4 C :   -0.277969
   5 C :   -0.284762
   6 C :   -0.315351
   7 H :    0.147587
   8 H :    0.145510
   9 H :    0.145487
  10 H :    0.152999
  11 H :    0.143070
  12 H :    0.147829
  13 H :    0.141361
  14 H :    0.144166
  15 H :    0.144306
  16 H :    0.138424
  17 H :    0.141367
  18 H :    0.144161
  19 H :    0.143059
  20 H :    0.147818
Sum of atomic charges:   -0.0000000

LOEWDIN ATOMIC CHARGES
----------------------
   0 C :   -0.415240
   1 C :   -0.238401
   2 C :   -0.299258
   3 C :   -0.304227
   4 C :   -0.306163
   5 C :   -0.304227
   6 C :   -0.299260
   7 H :    0.153321
   8 H :    0.152622
   9 H :    0.152615
  10 H :    0.156971
  11 H :    0.156625
  12 H :    0.156903
  13 H :    0.154282
  14 H :    0.153876
  15 H :    0.154162
  16 H :    0.153708
  17 H :    0.154281
  18 H :    0.153880
  19 H :    0.156624
  20 H :    0.156905

  Mayer bond orders larger than 0.100000
B(  0-C ,  1-C ) :   0.8944 B(  0-C ,  7-H ) :   0.9945 B(  0-C ,  8-H ) :   0.9771
B(  0-C ,  9-H ) :   0.9771 B(  1-C ,  2-C ) :   0.9207 B(  1-C ,  6-C ) :   0.9207
B(  1-C , 10-H ) :   0.9584 B(  2-C ,  3-C ) :   0.9058 B(  2-C , 11-H ) :   0.9414
B(  2-C , 12-H ) :   1.0032 B(  3-C ,  4-C ) :   0.9272 B(  3-C , 13-H ) :   0.9917
B(  3-C , 14-H ) :   0.9444 B(  4-C ,  5-C ) :   0.9273 B(  4-C , 15-H ) :   0.9463
B(  4-C , 16-H ) :   0.9910 B(  5-C ,  6-C ) :   0.9059 B(  5-C , 17-H ) :   0.9917
B(  5-C , 18-H ) :   0.9444 B(  6-C , 19-H ) :   0.9414 B(  6-C , 20-H ) :   1.0032

Dispersion correction           -0.006057460
FINAL SINGLE POINT ENERGY      -275.094556736391

DIPOLE MOMENT
-------------

Method             : SCF
Type of density    : Electron Density
Multiplicity       :   1
Irrep              :   0
Energy             :  -275.0974479565003890 Eh
Relativity type    :
Basis              : AO
                                X                 Y                 Z
Electronic contribution:     -1.228775449       0.000187066       0.360621525
Nuclear contribution   :      1.199048036      -0.000213830      -0.333397004
                        -----------------------------------------
Total Dipole Moment    :     -0.029727413      -0.000026764       0.027224520
                        -----------------------------------------
Magnitude (a.u.)       :      0.040309978
Magnitude (Debye)      :      0.102459822

Rotational constants in cm-1:             0.141970             0.073873             0.053846
Rotational constants in MHz :          4256.155487          2214.661860          1614.266039

                             ****ORCA TERMINATED NORMALLY****
TOTAL RUN TIME: 0 days 0 hours 0 minutes 17 seconds 301 msec
