                         Program Version 6.0.1  -  RELEASE   -
|  1> ! pbe def2-sv(p) def2/J RI DEFGRID1 loosescf d4 GCP(DFT/SV(P)) printgap
|  2> %output
|  3>     printlevel normal
|  4> end
|  5> * xyz 0 1
|  6> C -2.3701588625 -0.7771736466 -0.0729257092
|  7> C -0.9963468263 -0.2698313808 0.3857751743
|  8> H -1.0882075548 0.0600454478 1.4338572236
|  9> C -0.5265619309 0.9147197302 -0.4735506544
| 10> H -0.5219082039 0.6066131467 -1.5255041141
| 11> C 0.9029675609 1.3548235572 -0.0801328635
| 12> H 0.8453602145 2.11495315 0.7091799902
| 13> C 1.7368987547 0.1681446219 0.4723416317
| 14> H 2.7758926985 0.3185969966 0.1623575133
| 15> C 1.2014034078 -1.1373087008 -0.1216395726
| 16> H 1.7884255429 -1.9940809305 0.2470318454
| 17> O -0.0988689313 -1.3884173405 0.3385294867
| 18> O 1.2757999286 -1.0481898458 -1.5144390668
| 19> O 1.7440203772 0.1001486248 1.872261516
| 20> O 1.5597295413 1.973926941 -1.1484829297
| 21> O -1.4493786262 1.9672710345 -0.4132494759
| 22> O -2.8904054416 -1.7335286385 0.8076175325
| 23> H -2.2733841541 -1.1875717504 -1.0881983015
| 24> H -3.0750096384 0.0554737486 -0.092430141
| 25> H 0.9251971356 -1.8588621907 -1.9027362137
| 26> H 0.9671119541 -0.3882690593 2.1713842188
| 27> H 1.6595464598 1.3270741257 -1.8587849994
| 28> H -1.3895529975 2.4035540954 0.4452038925
| 29> H -2.2327992641 -2.4325510605 0.9062863879
| 30> *
| 31>
| 32>                          ****END OF INPUT****

CARTESIAN COORDINATES (ANGSTROEM)
---------------------------------
  C     -2.370159   -0.777174   -0.072926
  C     -0.996347   -0.269831    0.385775
  H     -1.088208    0.060045    1.433857
  C     -0.526562    0.914720   -0.473551
  H     -0.521908    0.606613   -1.525504
  C      0.902968    1.354824   -0.080133
  H      0.845360    2.114953    0.709180
  C      1.736899    0.168145    0.472342
  H      2.775893    0.318597    0.162358
  C      1.201403   -1.137309   -0.121640
  H      1.788426   -1.994081    0.247032
  O     -0.098869   -1.388417    0.338529
  O      1.275800   -1.048190   -1.514439
  O      1.744020    0.100149    1.872262
  O      1.559730    1.973927   -1.148483
  O     -1.449379    1.967271   -0.413249
  O     -2.890405   -1.733529    0.807618
  H     -2.273384   -1.187572   -1.088198
  H     -3.075010    0.055474   -0.092430
  H      0.925197   -1.858862   -1.902736
  H      0.967112   -0.388269    2.171384
  H      1.659546    1.327074   -1.858785
  H     -1.389553    2.403554    0.445204
  H     -2.232799   -2.432551    0.906286

 Total Charge           Charge          ....    0
 Multiplicity           Mult            ....    1
 Number of Electrons    NEL             ....   96
 Basis Dimension        Dim             ....  192

ORBITAL ENERGIES
----------------

  NO   OCC          E(Eh)            E(eV)
   0   2.0000     -18.794556      -511.4259
   1   2.0000     -18.788385      -511.2579
   2   2.0000     -18.762303      -510.5482
   3   2.0000     -18.758598      -510.4474
   4   2.0000     -18.748192      -510.1642
   5   2.0000     -18.745366      -510.0873
   6   2.0000     -10.003916      -272.2204
   7   2.0000      -9.953574      -270.8505
   8   2.0000      -9.948299      -270.7070
   9   2.0000      -9.947908      -270.6963
  10   2.0000      -9.943877      -270.5867
  11   2.0000      -9.933848      -270.3137
  12   2.0000      -1.004134       -27.3239
  13   2.0000      -0.948113       -25.7995
  14   2.0000      -0.940930       -25.6040
  15   2.0000      -0.938725       -25.5440
  16   2.0000      -0.923941       -25.1417
  17   2.0000      -0.920447       -25.0466
  18   2.0000      -0.710311       -19.3285
  19   2.0000      -0.696998       -18.9663
  20   2.0000      -0.625376       -17.0173
  21   2.0000      -0.600430       -16.3385
  22   2.0000      -0.574582       -15.6352
  23   2.0000      -0.543332       -14.7848
  24   2.0000      -0.515398       -14.0247
  25   2.0000      -0.503692       -13.7062
  26   2.0000      -0.476208       -12.9583
  27   2.0000      -0.464497       -12.6396
  28   2.0000      -0.450690       -12.2639
  29   2.0000      -0.435706       -11.8562
  30   2.0000      -0.421330       -11.4650
  31   2.0000      -0.404088       -10.9958
  32   2.0000      -0.393923       -10.7192
  33   2.0000      -0.379946       -10.3389
  34   2.0000      -0.370049       -10.0696
  35   2.0000      -0.363369        -9.8878
  36   2.0000      -0.348155        -9.4738
  37   2.0000      -0.328089        -8.9278
  38   2.0000      -0.299334        -8.1453
  39   2.0000      -0.295892        -8.0516
  40   2.0000      -0.287487        -7.8229
  41   2.0000      -0.284756        -7.7486
  42   2.0000      -0.268628        -7.3097
  43   2.0000      -0.256257        -6.9731
  44   2.0000      -0.248281        -6.7561
  45   2.0000      -0.229579        -6.2472
  46   2.0000      -0.219670        -5.9775
  47   2.0000      -0.200849        -5.4654
  48   0.0000       0.004732         0.1288
  49   0.0000       0.015676         0.4266
  50   0.0000       0.023790         0.6474
  51   0.0000       0.046983         1.2785
  52   0.0000       0.052871         1.4387

MULLIKEN ATOMIC CHARGES
-----------------------
   0 C :    0.100692
   1 C :   -0.042938
   2 H :    0.043635
   3 C :    0.082026
   4 H :    0.052917
   5 C :    0.105474
   6 H :    0.053703
   7 C :    0.029686
   8 H :    0.086703
   9 C :    0.131196
  10 H :    0.078045
  11 O :   -0.330120
  12 O :   -0.395091
  13 O :   -0.411097
  14 O :   -0.418423
  15 O :   -0.403444
  16 O :   -0.429014
  17 H :    0.056817
  18 H :    0.094319
  19 H :    0.309822
  20 H :    0.306682
  21 H :    0.302698
  22 H :    0.298675
  23 H :    0.297038
Sum of atomic charges:    0.0000000

LOEWDIN ATOMIC CHARGES
----------------------
   0 C :   -0.126487
   1 C :   -0.088511
   2 H :    0.097135
   3 C :   -0.082461
   4 H :    0.116545
   5 C :   -0.074618
   6 H :    0.115615
   7 C :   -0.086105
   8 H :    0.124837
   9 C :   -0.014020
  10 H :    0.101822
  11 O :   -0.158002
  12 O :   -0.310369
  13 O :   -0.306114
  14 O :   -0.307987
  15 O :   -0.300411
  16 O :   -0.333700
  17 H :    0.095538
  18 H :    0.120653
  19 H :    0.290673
  20 H :    0.281806
  21 H :    0.280297
  22 H :    0.283674
  23 H :    0.280190

  Mayer bond orders larger than 0.100000
B(  0-C ,  1-C ) :   1.0569 B(  0-C , 16-O ) :   1.0781 B(  0-C , 17-H ) :   0.9045
B(  0-C , 18-H ) :   0.9092 B(  1-C ,  2-H ) :   0.8653 B(  1-C ,  3-C ) :   0.9979
B(  1-C , 11-O ) :   0.9279 B(  3-C ,  4-H ) :   0.8427 B(  3-C ,  5-C ) :   1.0159
B(  3-C , 15-O ) :   1.0286 B(  5-C ,  6-H ) :   0.8620 B(  5-C ,  7-C ) :   0.9540
B(  5-C , 14-O ) :   1.0462 B(  7-C ,  8-H ) :   0.8811 B(  7-C ,  9-C ) :   1.0514
B(  7-C , 13-O ) :   1.0568 B(  9-C , 10-H ) :   0.8975 B(  9-C , 11-O ) :   1.0517
B(  9-C , 12-O ) :   1.1099 B( 12-O , 19-H ) :   0.8366 B( 13-O , 20-H ) :   0.8367
B( 14-O , 21-H ) :   0.8419 B( 15-O , 22-H ) :   0.8475 B( 16-O , 23-H ) :   0.8473

Dispersion correction           -0.024852870
FINAL SINGLE POINT ENERGY      -685.690202853879

DIPOLE MOMENT
-------------

Method             : SCF
Type of density    : Electron Density
Multiplicity       :   1
Irrep              :   0
Energy             :  -685.8220065948447655 Eh
Relativity type    :
Basis              : AO
                                X                 Y                 Z
Electronic contribution:      1.729446347      -0.104664652       0.202554957
Nuclear contribution   :     -1.517117645      -0.916646591      -0.368949306
                        -----------------------------------------
Total Dipole Moment    :      0.212328702      -1.021311243      -0.166394348
                        -----------------------------------------
Magnitude (a.u.)       :      1.056336694
Magnitude (Debye)      :      2.684994496

Rotational constants in cm-1:             0.040978             0.025817             0.021362
Rotational constants in MHz :          1228.499228           773.977075           640.420024

                             ****ORCA TERMINATED NORMALLY****
TOTAL RUN TIME: 0 days 0 hours 0 minutes 8 seconds 700 msec
