                         Program Version 6.0.0  -   RELEASE  -
|  1> ! r2SCAN-3c DEF2-TZVP FREQ
|  2> * xyzfile 0 1 censo.xyz
|  3>
|  4>                          ****END OF INPUT****

CARTESIAN COORDINATES (ANGSTROEM)
---------------------------------
  C      2.110735   -0.000042    0.018623
  N      0.654611    0.000132   -0.045475
  C     -0.138972    1.119220   -0.016099
  C     -1.458200    0.710384    0.015763
  C     -1.457885   -0.710944    0.015331
  C     -0.138514   -1.119279   -0.016702
  H      2.459141   -0.021483    1.056473
  H      2.497689   -0.876876   -0.504869
  H      2.494798    0.899299   -0.467152
  H      0.300663    2.106466   -0.025566
  H     -2.321031    1.361427    0.026072
  H     -2.320466   -1.362336    0.025425
  H      0.301490   -2.106375   -0.026468

 Total Charge           Charge          ....    0
 Multiplicity           Mult            ....    1
 Number of Electrons    NEL             ....   44
 Basis Dimension        Dim             ....  228

ORBITAL ENERGIES
----------------

  NO   OCC          E(Eh)            E(eV)
   0   2.0000     -14.209272      -386.6539
   1   2.0000     -10.078654      -274.2541
   2   2.0000     -10.043942      -273.3095
   3   2.0000     -10.043831      -273.3065
   4   2.0000     -10.011721      -272.4328
   5   2.0000     -10.011381      -272.4235
   6   2.0000      -0.945064       -25.7165
   7   2.0000      -0.763055       -20.7638
   8   2.0000      -0.682920       -18.5832
   9   2.0000      -0.656483       -17.8638
  10   2.0000      -0.535446       -14.5702
  11   2.0000      -0.515572       -14.0294
  12   2.0000      -0.494050       -13.4438
  13   2.0000      -0.432532       -11.7698
  14   2.0000      -0.408549       -11.1172
  15   2.0000      -0.383151       -10.4261
  16   2.0000      -0.374044       -10.1783
  17   2.0000      -0.344037        -9.3617
  18   2.0000      -0.342305        -9.3146
  19   2.0000      -0.338959        -9.2235
  20   2.0000      -0.211545        -5.7564
  21   2.0000      -0.189450        -5.1552
  22   0.0000       0.006541         0.1780
  23   0.0000       0.048314         1.3147
  24   0.0000       0.051564         1.4031
  25   0.0000       0.079469         2.1625
  26   0.0000       0.098641         2.6842

MULLIKEN ATOMIC CHARGES
-----------------------
   0 C :   -0.252591
   1 N :    0.013852
   2 C :   -0.123345
   3 C :   -0.184391
   4 C :   -0.184961
   5 C :   -0.122648
   6 H :    0.128023
   7 H :    0.124824
   8 H :    0.124656
   9 H :    0.130585
  10 H :    0.107791
  11 H :    0.107670
  12 H :    0.130535
Sum of atomic charges:    0.0000000

LOEWDIN ATOMIC CHARGES
----------------------
   0 C :   -0.262363
   1 N :    0.218308
   2 C :   -0.224071
   3 C :   -0.199470
   4 C :   -0.199265
   5 C :   -0.224037
   6 H :    0.117921
   7 H :    0.122082
   8 H :    0.122297
   9 H :    0.130374
  10 H :    0.133899
  11 H :    0.133898
  12 H :    0.130428

  Mayer bond orders larger than 0.100000
B(  0-C ,  1-N ) :   0.9155 B(  0-C ,  6-H ) :   0.9615 B(  0-C ,  7-H ) :   0.9700
B(  0-C ,  8-H ) :   0.9704 B(  1-N ,  2-C ) :   1.1699 B(  1-N ,  5-C ) :   1.1694
B(  2-C ,  3-C ) :   1.5410 B(  2-C ,  9-H ) :   0.9571 B(  3-C ,  4-C ) :   1.3277
B(  3-C , 10-H ) :   0.9818 B(  4-C ,  5-C ) :   1.5406 B(  4-C , 11-H ) :   0.9820
B(  5-C , 12-H ) :   0.9576

Dispersion correction           -0.003379007
FINAL SINGLE POINT ENERGY      -249.423312924781

DIPOLE MOMENT
-------------

Method             : SCF
Type of density    : Electron Density
Multiplicity       :   1
Irrep              :   0
Energy             :  -249.4284403286058307 Eh
Relativity type    :
Basis              : AO
                                X                 Y                 Z
Electronic contribution:     -2.373440871      -0.000022951      -0.103774240
Nuclear contribution   :      3.237114616       0.000599650       0.106771817
                        -----------------------------------------
Total Dipole Moment    :      0.863673745       0.000576699       0.002997577
                        -----------------------------------------
Magnitude (a.u.)       :      0.863679139
Magnitude (Debye)      :      2.195297909

VIBRATIONAL FREQUENCIES
-----------------------

Scaling factor for frequencies =  1.000000000  (already applied!)

     0:       0.00 cm**-1
     1:       0.00 cm**-1
     2:       0.00 cm**-1
     3:       0.00 cm**-1
     4:       0.00 cm**-1
     5:       0.00 cm**-1
     6:      71.10 cm**-1
     7:     199.31 cm**-1
     8:     362.52 cm**-1
     9:     621.81 cm**-1
    10:     629.34 cm**-1
    11:     666.71 cm**-1
    12:     667.95 cm**-1
    13:     717.34 cm**-1
    14:     794.56 cm**-1
    15:     849.18 cm**-1
    16:     890.96 cm**-1
    17:     983.57 cm**-1
    18:    1057.80 cm**-1
    19:    1076.06 cm**-1
    20:    1099.26 cm**-1
    21:    1101.33 cm**-1
    22:    1137.68 cm**-1
    23:    1290.78 cm**-1
    24:    1298.73 cm**-1
    25:    1393.74 cm**-1
    26:    1407.51 cm**-1
    27:    1434.26 cm**-1
    28:    1480.10 cm**-1
    29:    1501.36 cm**-1
    30:    1527.52 cm**-1
    31:    1536.39 cm**-1
    32:    3015.44 cm**-1
    33:    3090.73 cm**-1
    34:    3123.91 cm**-1
    35:    3215.87 cm**-1
    36:    3225.69 cm**-1
    37:    3236.71 cm**-1
    38:    3244.49 cm**-1

IR SPECTRUM
-----------

 Mode   freq       eps      Int      T**2         TX        TY        TZ
       cm**-1   L/(mol*cm) km/mol    a.u.
----------------------------------------------------------------------------
  6:     71.10   0.000010    0.05  0.000045  ( 0.000751  0.006669 -0.000242)
  7:    199.31   0.000587    2.97  0.000919  (-0.010623  0.000093  0.028400)
  8:    362.52   0.000130    0.65  0.000112  ( 0.000140 -0.010561 -0.000070)
  9:    621.81   0.001776    8.98  0.000891  (-0.007990 -0.000015  0.028768)
 10:    629.34   0.000000    0.00  0.000000  ( 0.000011 -0.000160  0.000229)
 11:    666.71   0.000003    0.02  0.000002  ( 0.000061  0.001235  0.000321)
 12:    667.95   0.001201    6.07  0.000561  (-0.019756  0.000082 -0.013069)
 13:    717.34   0.024825  125.46  0.010800  ( 0.005018 -0.000015  0.103800)
 14:    794.56   0.000039    0.20  0.000015  ( 0.002354  0.000004  0.003109)
 15:    849.18   0.000023    0.11  0.000008  ( 0.000006 -0.002883  0.000024)
 16:    890.96   0.000000    0.00  0.000000  (-0.000111  0.000364 -0.000002)
 17:    983.57   0.001628    8.23  0.000517  ( 0.022654  0.000011 -0.001849)
 18:   1057.80   0.001684    8.51  0.000497  ( 0.000898  0.022272  0.000012)
 19:   1076.06   0.000488    2.47  0.000141  ( 0.011889  0.000130 -0.000329)
 20:   1099.26   0.002286   11.55  0.000649  ( 0.003121 -0.025282 -0.000032)
 21:   1101.33   0.005389   27.23  0.001527  ( 0.039050  0.001407 -0.000226)
 22:   1137.68   0.000817    4.13  0.000224  ( 0.014857  0.000032 -0.001835)
 23:   1290.78   0.000036    0.18  0.000009  ( 0.001522  0.002522  0.000045)
 24:   1298.73   0.007683   38.82  0.001846  (-0.042938  0.000205 -0.001510)
 25:   1393.74   0.000116    0.59  0.000026  (-0.000332  0.005083  0.000027)
 26:   1407.51   0.001186    5.99  0.000263  ( 0.016189  0.000096  0.000925)
 27:   1434.26   0.001954    9.87  0.000425  ( 0.020068 -0.000275  0.004723)
 28:   1480.10   0.002184   11.03  0.000460  ( 0.011629 -0.000243 -0.018030)
 29:   1501.36   0.001390    7.02  0.000289  ( 0.000905  0.016971 -0.000167)
 30:   1527.52   0.005388   27.23  0.001101  (-0.033179 -0.000015 -0.000064)
 31:   1536.39   0.000178    0.90  0.000036  ( 0.000530 -0.005986  0.000015)
 32:   3015.44   0.011846   59.86  0.001226  (-0.033991  0.000260 -0.008393)
 33:   3090.73   0.003593   18.16  0.000363  ( 0.003539 -0.000249 -0.018714)
 34:   3123.91   0.002116   10.70  0.000211  (-0.000012  0.014540 -0.000127)
 35:   3215.87   0.000397    2.01  0.000039  ( 0.000055  0.006206  0.000002)
 36:   3225.69   0.000605    3.06  0.000059  (-0.007649  0.000042  0.000212)
 37:   3236.71   0.000715    3.61  0.000069  (-0.000057 -0.008304 -0.000001)
 38:   3244.49   0.000115    0.58  0.000011  ( 0.003329 -0.000060 -0.000008)

--------------------------
THERMOCHEMISTRY AT 298.15K
--------------------------

Temperature         ...   298.15 K
Pressure            ...     1.00 atm
Total Mass          ...    81.12 AMU
Quasi RRHO          ...     True
Cut-Off Frequency   ...     1.00 cm^-1

Throughout the following assumptions are being made:
  (1) The electronic state is orbitally nondegenerate
  (2) There are no thermally accessible electronically excited states
  (3) Hindered rotations indicated by low frequency modes are not
      treated as such but are treated as vibrations and this may
      cause some error
  (4) All equations used are the standard statistical mechanics
      equations for an ideal gas
  (5) All vibrations are strictly harmonic

freq.      71.10  E(vib)   ...       0.50
freq.     199.31  E(vib)   ...       0.35
freq.     362.52  E(vib)   ...       0.22
freq.     621.81  E(vib)   ...       0.09
freq.     629.34  E(vib)   ...       0.09
freq.     666.71  E(vib)   ...       0.08
freq.     667.95  E(vib)   ...       0.08
freq.     717.34  E(vib)   ...       0.07
freq.     794.56  E(vib)   ...       0.05
freq.     849.18  E(vib)   ...       0.04
freq.     890.96  E(vib)   ...       0.04
freq.     983.57  E(vib)   ...       0.02
freq.    1057.80  E(vib)   ...       0.02
freq.    1076.06  E(vib)   ...       0.02
freq.    1099.26  E(vib)   ...       0.02
freq.    1101.33  E(vib)   ...       0.02
freq.    1137.68  E(vib)   ...       0.01
freq.    1290.78  E(vib)   ...       0.01
freq.    1298.73  E(vib)   ...       0.01
freq.    1393.74  E(vib)   ...       0.00
freq.    1407.51  E(vib)   ...       0.00
freq.    1434.26  E(vib)   ...       0.00
freq.    1480.10  E(vib)   ...       0.00
freq.    1501.36  E(vib)   ...       0.00
freq.    1527.52  E(vib)   ...       0.00
freq.    1536.39  E(vib)   ...       0.00
freq.    3015.44  E(vib)   ...       0.00
freq.    3090.73  E(vib)   ...       0.00
freq.    3123.91  E(vib)   ...       0.00
freq.    3215.87  E(vib)   ...       0.00
freq.    3225.69  E(vib)   ...       0.00
freq.    3236.71  E(vib)   ...       0.00
freq.    3244.49  E(vib)   ...       0.00

------------
INNER ENERGY
------------

The inner energy is: U= E(el) + E(ZPE) + E(vib) + E(rot) + E(trans)
    E(el)   - is the total energy from the electronic structure calculation
              = E(kin-el) + E(nuc-el) + E(el-el) + E(nuc-nuc)
    E(ZPE)  - the the zero temperature vibrational energy from the frequency calculation
    E(vib)  - the the finite temperature correction to E(ZPE) due to population
              of excited vibrational states
    E(rot)  - is the rotational thermal energy
    E(trans)- is the translational thermal energy

Summary of contributions to the inner energy U:
Electronic energy                ...   -249.42331292 Eh
Zero point energy                ...      0.10923755 Eh      68.55 kcal/mol
Thermal vibrational correction   ...      0.00278440 Eh       1.75 kcal/mol
Thermal rotational correction    ...      0.00141627 Eh       0.89 kcal/mol
Thermal translational correction ...      0.00141627 Eh       0.89 kcal/mol
-----------------------------------------------------------------------
Total thermal energy                   -249.30845843 Eh

Summary of corrections to the electronic energy:
(perhaps to be used in another calculation)
Total thermal correction                  0.00561694 Eh       3.52 kcal/mol
Non-thermal (ZPE) correction              0.10923755 Eh      68.55 kcal/mol
-----------------------------------------------------------------------
Total correction                          0.11485449 Eh      72.07 kcal/mol

--------
ENTHALPY
--------

The enthalpy is H = U + kB*T
                kB is Boltzmann's constant
Total thermal energy              ...   -249.30845843 Eh
Thermal Enthalpy correction       ...      0.00094421 Eh       0.59 kcal/mol
-----------------------------------------------------------------------
Total Enthalpy                    ...   -249.30751422 Eh

Note: Only C1 symmetry has been detected, increase convergence thresholds
      if your molecule has a higher symmetry. Symmetry factor of 1.0 is
      used for the rotational entropy correction.

Note: Rotational entropy computed according to Herzberg
Infrared and Raman Spectra, Chapter V,1, Van Nostrand Reinhold, 1945
Point Group:  C1, Symmetry Number:   1
Rotational constants in cm-1:     0.289913     0.118391     0.085467

Vibrational entropy computed according to the QRRHO of S. Grimme
Chem.Eur.J. 2012 18 9955 using a reference frequency of 100.0 cm-1

-------
ENTROPY
-------

The entropy contributions are T*S = T*(S(el)+S(vib)+S(rot)+S(trans))
     S(el)   - electronic entropy
     S(vib)  - vibrational entropy
     S(rot)  - rotational entropy
     S(trans)- translational entropy
The entropies will be listed as multiplied by the temperature to get
units of energy

Electronic entropy                ...      0.00000000 Eh      0.00 kcal/mol
Vibrational entropy               ...      0.00453081 Eh      2.84 kcal/mol
Rotational entropy                ...      0.01226383 Eh      7.70 kcal/mol
Translational entropy             ...      0.01857487 Eh     11.66 kcal/mol
-----------------------------------------------------------------------
Final entropy term                ...      0.03536951 Eh     22.19 kcal/mol

In case the symmetry of your molecule has not been determined correctly
or in case you have a reason to use a different symmetry number we print
out the resulting rotational entropy values for sn=1,12:

 non-linear molecules -----------------------------------
|  sn= 1 | S(rot)=       0.01226383 Eh      7.70 kcal/mol|
|  sn= 2 | S(rot)=       0.01160938 Eh      7.28 kcal/mol|
|  sn= 3 | S(rot)=       0.01122655 Eh      7.04 kcal/mol|
|  sn= 4 | S(rot)=       0.01095492 Eh      6.87 kcal/mol|
|  sn= 5 | S(rot)=       0.01074423 Eh      6.74 kcal/mol|
|  sn= 6 | S(rot)=       0.01057209 Eh      6.63 kcal/mol|
|  sn= 7 | S(rot)=       0.01042654 Eh      6.54 kcal/mol|
|  sn= 8 | S(rot)=       0.01030047 Eh      6.46 kcal/mol|
|  sn= 9 | S(rot)=       0.01018926 Eh      6.39 kcal/mol|
|  sn=10 | S(rot)=       0.01008978 Eh      6.33 kcal/mol|
|  sn=11 | S(rot)=       0.00999979 Eh      6.27 kcal/mol|
|  sn=12 | S(rot)=       0.00991763 Eh      6.22 kcal/mol|
 linear molecules ---------------------------------------
|  Dinfh | S(rot)=       0.00764814 Eh      4.80 kcal/mol|
|  Cinfv | S(rot)=       0.00830259 Eh      5.21 kcal/mol|
 --------------------------------------------------------

-------------------
GIBBS FREE ENERGY
-------------------

The Gibbs free energy is G = H - T*S

Total enthalpy                    ...   -249.30751422 Eh
Total entropy correction          ...     -0.03536951 Eh    -22.19 kcal/mol
-----------------------------------------------------------------------

                             ****ORCA TERMINATED NORMALLY****
TOTAL RUN TIME: 0 days 0 hours 6 minutes 10 seconds 846 msec
