                         Program Version 6.0.0  -   RELEASE  -
|  1> ! r2SCAN-3c DEF2-TZVP FREQ
|  2> * xyzfile 0 1 vacuum_censo.xyz
|  3>
|  4>                          ****END OF INPUT****

CARTESIAN COORDINATES (ANGSTROEM)
---------------------------------
  C     -2.106649   -0.000057   -0.019867
  N     -0.657215   -0.000081    0.045836
  C      0.137945    1.118976    0.017101
  C      1.453421    0.709385   -0.015980
  C      1.453686   -0.708854   -0.016387
  C      0.138348   -1.118861    0.016402
  H     -2.497945    0.878517    0.499673
  H     -2.461766    0.014291   -1.057356
  H     -2.495705   -0.894053    0.474150
  H     -0.298915    2.106590    0.027932
  H      2.315808    1.358680   -0.025351
  H      2.316287   -1.357849   -0.026039
  H     -0.298222   -2.106597    0.026712

 Total Charge           Charge          ....    0
 Multiplicity           Mult            ....    1
 Number of Electrons    NEL             ....   44
 Basis Dimension        Dim             ....  228

ORBITAL ENERGIES
----------------

  NO   OCC          E(Eh)            E(eV)
   0   2.0000     -14.208962      -386.6455
   1   2.0000     -10.078168      -274.2409
   2   2.0000     -10.043579      -273.2997
   3   2.0000     -10.043506      -273.2977
   4   2.0000     -10.010901      -272.4105
   5   2.0000     -10.010554      -272.4010
   6   2.0000      -0.945735       -25.7348
   7   2.0000      -0.764470       -20.8023
   8   2.0000      -0.683322       -18.5941
   9   2.0000      -0.656274       -17.8581
  10   2.0000      -0.535706       -14.5773
  11   2.0000      -0.516343       -14.0504
  12   2.0000      -0.494768       -13.4633
  13   2.0000      -0.432629       -11.7724
  14   2.0000      -0.408117       -11.1054
  15   2.0000      -0.384131       -10.4527
  16   2.0000      -0.373551       -10.1648
  17   2.0000      -0.343861        -9.3569
  18   2.0000      -0.342061        -9.3080
  19   2.0000      -0.339431        -9.2364
  20   2.0000      -0.211772        -5.7626
  21   2.0000      -0.189851        -5.1661
  22   0.0000       0.006306         0.1716
  23   0.0000       0.049105         1.3362
  24   0.0000       0.051815         1.4100
  25   0.0000       0.080188         2.1820
  26   0.0000       0.098654         2.6845

MULLIKEN ATOMIC CHARGES
-----------------------
   0 C :   -0.252549
   1 N :    0.013316
   2 C :   -0.122397
   3 C :   -0.183629
   4 C :   -0.183258
   5 C :   -0.122854
   6 H :    0.124368
   7 H :    0.127117
   8 H :    0.124263
   9 H :    0.130423
  10 H :    0.107332
  11 H :    0.107415
  12 H :    0.130454
Sum of atomic charges:    0.0000000

LOEWDIN ATOMIC CHARGES
----------------------
   0 C :   -0.266134
   1 N :    0.218646
   2 C :   -0.222610
   3 C :   -0.199530
   4 C :   -0.199667
   5 C :   -0.222636
   6 H :    0.122444
   7 H :    0.118022
   8 H :    0.122591
   9 H :    0.130479
  10 H :    0.133975
  11 H :    0.133978
  12 H :    0.130442

  Mayer bond orders larger than 0.100000
B(  0-C ,  1-N ) :   0.9176 B(  0-C ,  6-H ) :   0.9701 B(  0-C ,  7-H ) :   0.9609
B(  0-C ,  8-H ) :   0.9704 B(  1-N ,  2-C ) :   1.1675 B(  1-N ,  5-C ) :   1.1678
B(  2-C ,  3-C ) :   1.5434 B(  2-C ,  9-H ) :   0.9577 B(  3-C ,  4-C ) :   1.3266
B(  3-C , 10-H ) :   0.9822 B(  4-C ,  5-C ) :   1.5437 B(  4-C , 11-H ) :   0.9821
B(  5-C , 12-H ) :   0.9573

Dispersion correction           -0.003381147
FINAL SINGLE POINT ENERGY      -249.423410781686

DIPOLE MOMENT
-------------

Method             : SCF
Type of density    : Electron Density
Multiplicity       :   1
Irrep              :   0
Energy             :  -249.4285508265432156 Eh
Relativity type    :
Basis              : AO
                                X                 Y                 Z
Electronic contribution:      2.385043158       0.000353278       0.101503528
Nuclear contribution   :     -3.235252585      -0.000842674      -0.102297952
                        -----------------------------------------
Total Dipole Moment    :     -0.850209426      -0.000489396      -0.000794424
                        -----------------------------------------
Magnitude (a.u.)       :      0.850209938
Magnitude (Debye)      :      2.161061921

VIBRATIONAL FREQUENCIES
-----------------------

Scaling factor for frequencies =  1.000000000  (already applied!)

     0:       0.00 cm**-1
     1:       0.00 cm**-1
     2:       0.00 cm**-1
     3:       0.00 cm**-1
     4:       0.00 cm**-1
     5:       0.00 cm**-1
     6:     105.17 cm**-1
     7:     193.51 cm**-1
     8:     361.11 cm**-1
     9:     621.02 cm**-1
    10:     626.89 cm**-1
    11:     662.89 cm**-1
    12:     673.17 cm**-1
    13:     711.80 cm**-1
    14:     792.16 cm**-1
    15:     845.81 cm**-1
    16:     891.40 cm**-1
    17:     982.60 cm**-1
    18:    1059.40 cm**-1
    19:    1080.99 cm**-1
    20:    1100.76 cm**-1
    21:    1103.24 cm**-1
    22:    1142.23 cm**-1
    23:    1289.94 cm**-1
    24:    1310.26 cm**-1
    25:    1391.29 cm**-1
    26:    1417.93 cm**-1
    27:    1441.08 cm**-1
    28:    1482.48 cm**-1
    29:    1503.52 cm**-1
    30:    1530.88 cm**-1
    31:    1544.85 cm**-1
    32:    3003.04 cm**-1
    33:    3077.70 cm**-1
    34:    3111.75 cm**-1
    35:    3227.13 cm**-1
    36:    3235.56 cm**-1
    37:    3245.54 cm**-1
    38:    3254.80 cm**-1

IR SPECTRUM
-----------

 Mode   freq       eps      Int      T**2         TX        TY        TZ
       cm**-1   L/(mol*cm) km/mol    a.u.
----------------------------------------------------------------------------
  6:    105.17   0.000013    0.06  0.000037  (-0.000486 -0.006093  0.000277)
  7:    193.51   0.000597    3.01  0.000962  (-0.011029  0.000086  0.028989)
  8:    361.11   0.000131    0.66  0.000113  (-0.000099  0.010629  0.000050)
  9:    621.02   0.001961    9.91  0.000985  ( 0.007624  0.000014 -0.030453)
 10:    626.89   0.000000    0.00  0.000000  (-0.000009 -0.000129  0.000236)
 11:    662.89   0.000005    0.02  0.000002  ( 0.000015  0.001438  0.000227)
 12:    673.17   0.001230    6.22  0.000570  ( 0.018796 -0.000052  0.014733)
 13:    711.80   0.024395  123.28  0.010695  (-0.004795  0.000023 -0.103306)
 14:    792.16   0.000083    0.42  0.000033  (-0.002723 -0.000003 -0.005032)
 15:    845.81   0.000025    0.13  0.000009  (-0.000007 -0.003045  0.000014)
 16:    891.40   0.000000    0.00  0.000000  ( 0.000079 -0.000138  0.000004)
 17:    982.60   0.001823    9.21  0.000579  ( 0.023985  0.000011 -0.001889)
 18:   1059.40   0.001646    8.32  0.000485  (-0.000590 -0.022012 -0.000010)
 19:   1080.99   0.000217    1.10  0.000063  ( 0.007908  0.000134 -0.000342)
 20:   1100.76   0.002269   11.47  0.000643  ( 0.001481 -0.025320 -0.000019)
 21:   1103.24   0.005424   27.41  0.001534  ( 0.039164  0.000552 -0.000149)
 22:   1142.23   0.000917    4.64  0.000251  (-0.015730 -0.000022  0.001779)
 23:   1289.94   0.000020    0.10  0.000005  ( 0.000480  0.002171  0.000012)
 24:   1310.26   0.007574   38.28  0.001804  (-0.042445  0.000098 -0.001559)
 25:   1391.29   0.000101    0.51  0.000023  ( 0.000104 -0.004768 -0.000024)
 26:   1417.93   0.001099    5.55  0.000242  ( 0.015522  0.000026  0.000963)
 27:   1441.08   0.002258   11.41  0.000489  ( 0.021476 -0.000202  0.005269)
 28:   1482.48   0.002235   11.29  0.000470  (-0.012503  0.000172  0.017723)
 29:   1503.52   0.001480    7.48  0.000307  ( 0.000666  0.017514 -0.000110)
 30:   1530.88   0.005679   28.70  0.001158  ( 0.034025 -0.000061  0.000127)
 31:   1544.85   0.000107    0.54  0.000022  ( 0.000115 -0.004649  0.000006)
 32:   3003.04   0.012487   63.10  0.001298  (-0.034714  0.000192 -0.009620)
 33:   3077.70   0.003768   19.04  0.000382  (-0.005324  0.000218  0.018806)
 34:   3111.75   0.002249   11.36  0.000226  (-0.000053 -0.015016  0.000120)
 35:   3227.13   0.000284    1.43  0.000027  ( 0.000044  0.005237  0.000001)
 36:   3235.56   0.000533    2.69  0.000051  ( 0.007164 -0.000035 -0.000211)
 37:   3245.54   0.000832    4.20  0.000080  (-0.000045 -0.008944 -0.000002)
 38:   3254.80   0.000202    1.02  0.000019  (-0.004401  0.000037  0.000045)

--------------------------
THERMOCHEMISTRY AT 298.15K
--------------------------

Temperature         ...   298.15 K
Pressure            ...     1.00 atm
Total Mass          ...    81.12 AMU
Quasi RRHO          ...     True
Cut-Off Frequency   ...     1.00 cm^-1

Throughout the following assumptions are being made:
  (1) The electronic state is orbitally nondegenerate
  (2) There are no thermally accessible electronically excited states
  (3) Hindered rotations indicated by low frequency modes are not
      treated as such but are treated as vibrations and this may
      cause some error
  (4) All equations used are the standard statistical mechanics
      equations for an ideal gas
  (5) All vibrations are strictly harmonic

freq.     105.17  E(vib)   ...       0.45
freq.     193.51  E(vib)   ...       0.36
freq.     361.11  E(vib)   ...       0.22
freq.     621.02  E(vib)   ...       0.09
freq.     626.89  E(vib)   ...       0.09
freq.     662.89  E(vib)   ...       0.08
freq.     673.17  E(vib)   ...       0.08
freq.     711.80  E(vib)   ...       0.07
freq.     792.16  E(vib)   ...       0.05
freq.     845.81  E(vib)   ...       0.04
freq.     891.40  E(vib)   ...       0.04
freq.     982.60  E(vib)   ...       0.02
freq.    1059.40  E(vib)   ...       0.02
freq.    1080.99  E(vib)   ...       0.02
freq.    1100.76  E(vib)   ...       0.02
freq.    1103.24  E(vib)   ...       0.02
freq.    1142.23  E(vib)   ...       0.01
freq.    1289.94  E(vib)   ...       0.01
freq.    1310.26  E(vib)   ...       0.01
freq.    1391.29  E(vib)   ...       0.00
freq.    1417.93  E(vib)   ...       0.00
freq.    1441.08  E(vib)   ...       0.00
freq.    1482.48  E(vib)   ...       0.00
freq.    1503.52  E(vib)   ...       0.00
freq.    1530.88  E(vib)   ...       0.00
freq.    1544.85  E(vib)   ...       0.00
freq.    3003.04  E(vib)   ...       0.00
freq.    3077.70  E(vib)   ...       0.00
freq.    3111.75  E(vib)   ...       0.00
freq.    3227.13  E(vib)   ...       0.00
freq.    3235.56  E(vib)   ...       0.00
freq.    3245.54  E(vib)   ...       0.00
freq.    3254.80  E(vib)   ...       0.00

------------
INNER ENERGY
------------

The inner energy is: U= E(el) + E(ZPE) + E(vib) + E(rot) + E(trans)
    E(el)   - is the total energy from the electronic structure calculation
              = E(kin-el) + E(nuc-el) + E(el-el) + E(nuc-nuc)
    E(ZPE)  - the the zero temperature vibrational energy from the frequency calculation
    E(vib)  - the the finite temperature correction to E(ZPE) due to population
              of excited vibrational states
    E(rot)  - is the rotational thermal energy
    E(trans)- is the translational thermal energy

Summary of contributions to the inner energy U:
Electronic energy                ...   -249.42341078 Eh
Zero point energy                ...      0.10940194 Eh      68.65 kcal/mol
Thermal vibrational correction   ...      0.00273055 Eh       1.71 kcal/mol
Thermal rotational correction    ...      0.00141627 Eh       0.89 kcal/mol
Thermal translational correction ...      0.00141627 Eh       0.89 kcal/mol
-----------------------------------------------------------------------
Total thermal energy                   -249.30844574 Eh

Summary of corrections to the electronic energy:
(perhaps to be used in another calculation)
Total thermal correction                  0.00556310 Eh       3.49 kcal/mol
Non-thermal (ZPE) correction              0.10940194 Eh      68.65 kcal/mol
-----------------------------------------------------------------------
Total correction                          0.11496504 Eh      72.14 kcal/mol

--------
ENTHALPY
--------

The enthalpy is H = U + kB*T
                kB is Boltzmann's constant
Total thermal energy              ...   -249.30844574 Eh
Thermal Enthalpy correction       ...      0.00094421 Eh       0.59 kcal/mol
-----------------------------------------------------------------------
Total Enthalpy                    ...   -249.30750153 Eh

Note: Only C1 symmetry has been detected, increase convergence thresholds
      if your molecule has a higher symmetry. Symmetry factor of 1.0 is
      used for the rotational entropy correction.

Note: Rotational entropy computed according to Herzberg
Infrared and Raman Spectra, Chapter V,1, Van Nostrand Reinhold, 1945
Point Group:  C1, Symmetry Number:   1
Rotational constants in cm-1:     0.290364     0.118807     0.085728

Vibrational entropy computed according to the QRRHO of S. Grimme
Chem.Eur.J. 2012 18 9955 using a reference frequency of 100.0 cm-1

-------
ENTROPY
-------

The entropy contributions are T*S = T*(S(el)+S(vib)+S(rot)+S(trans))
     S(el)   - electronic entropy
     S(vib)  - vibrational entropy
     S(rot)  - rotational entropy
     S(trans)- translational entropy
The entropies will be listed as multiplied by the temperature to get
units of energy

Electronic entropy                ...      0.00000000 Eh      0.00 kcal/mol
Vibrational entropy               ...      0.00443224 Eh      2.78 kcal/mol
Rotational entropy                ...      0.01226001 Eh      7.69 kcal/mol
Translational entropy             ...      0.01857487 Eh     11.66 kcal/mol
-----------------------------------------------------------------------
Final entropy term                ...      0.03526712 Eh     22.13 kcal/mol

In case the symmetry of your molecule has not been determined correctly
or in case you have a reason to use a different symmetry number we print
out the resulting rotational entropy values for sn=1,12:

 non-linear molecules -----------------------------------
|  sn= 1 | S(rot)=       0.01226001 Eh      7.69 kcal/mol|
|  sn= 2 | S(rot)=       0.01160555 Eh      7.28 kcal/mol|
|  sn= 3 | S(rot)=       0.01122272 Eh      7.04 kcal/mol|
|  sn= 4 | S(rot)=       0.01095109 Eh      6.87 kcal/mol|
|  sn= 5 | S(rot)=       0.01074041 Eh      6.74 kcal/mol|
|  sn= 6 | S(rot)=       0.01056826 Eh      6.63 kcal/mol|
|  sn= 7 | S(rot)=       0.01042271 Eh      6.54 kcal/mol|
|  sn= 8 | S(rot)=       0.01029664 Eh      6.46 kcal/mol|
|  sn= 9 | S(rot)=       0.01018543 Eh      6.39 kcal/mol|
|  sn=10 | S(rot)=       0.01008595 Eh      6.33 kcal/mol|
|  sn=11 | S(rot)=       0.00999596 Eh      6.27 kcal/mol|
|  sn=12 | S(rot)=       0.00991380 Eh      6.22 kcal/mol|
 linear molecules ---------------------------------------
|  Dinfh | S(rot)=       0.00764526 Eh      4.80 kcal/mol|
|  Cinfv | S(rot)=       0.00829972 Eh      5.21 kcal/mol|
 --------------------------------------------------------

-------------------
GIBBS FREE ENERGY
-------------------

The Gibbs free energy is G = H - T*S

Total enthalpy                    ...   -249.30750153 Eh
Total entropy correction          ...     -0.03526712 Eh    -22.13 kcal/mol
-----------------------------------------------------------------------

                             ****ORCA TERMINATED NORMALLY****
TOTAL RUN TIME: 0 days 0 hours 6 minutes 16 seconds 840 msec
