                         Program Version 6.0.1  -  RELEASE   -
|  1> ! pbe def2-sv(p) def2/J RI DEFGRID1 loosescf d4 GCP(DFT/SV(P)) printgap
|  2> %output
|  3>     printlevel normal
|  4> end
|  5> * xyz 0 1
|  6> C -2.3530091181 0.8577215038 -0.166034306
|  7> C -1.8978786337 -0.4863839266 0.3867458338
|  8> C -0.6626541112 -1.0145403192 -0.3188241324
|  9> Br 0.9022884481 0.1102627589 0.0218576923
| 10> H -3.2446536819 1.1975753769 0.3544241809
| 11> H -1.575132137 1.6072199223 -0.0360850358
| 12> H -2.5825531924 0.7783520539 -1.2270540411
| 13> H -2.6926743008 -1.2267994042 0.2569969117
| 14> H -1.6966250308 -0.3960586389 1.4567360193
| 15> H -0.792820222 -1.0267077596 -1.4004801324
| 16> H -0.3929249439 -2.0100051559 0.0318282539
| 17> *
| 18>
| 19>                          ****END OF INPUT****

CARTESIAN COORDINATES (ANGSTROEM)
---------------------------------
  C     -2.353009    0.857722   -0.166034
  C     -1.897879   -0.486384    0.386746
  C     -0.662654   -1.014540   -0.318824
  Br     0.902288    0.110263    0.021858
  H     -3.244654    1.197575    0.354424
  H     -1.575132    1.607220   -0.036085
  H     -2.582553    0.778352   -1.227054
  H     -2.692674   -1.226799    0.256997
  H     -1.696625   -0.396059    1.456736
  H     -0.792820   -1.026708   -1.400480
  H     -0.392925   -2.010005    0.031828

 Total Charge           Charge          ....    0
 Multiplicity           Mult            ....    1
 Number of Electrons    NEL             ....   60
 Basis Dimension        Dim             ....   88

ORBITAL ENERGIES
----------------

  NO   OCC          E(Eh)            E(eV)
   0   2.0000    -480.920009    -13086.4987
   1   2.0000     -61.762306     -1680.6378
   2   2.0000     -55.692899     -1515.4808
   3   2.0000     -55.689850     -1515.3979
   4   2.0000     -55.689745     -1515.3950
   5   2.0000      -9.939100      -270.4567
   6   2.0000      -9.900978      -269.4193
   7   2.0000      -9.878681      -268.8126
   8   2.0000      -8.387435      -228.2337
   9   2.0000      -6.269284      -170.5959
  10   2.0000      -6.255157      -170.2115
  11   2.0000      -6.254894      -170.2043
  12   2.0000      -2.470447       -67.2243
  13   2.0000      -2.467004       -67.1306
  14   2.0000      -2.466785       -67.1246
  15   2.0000      -2.456201       -66.8366
  16   2.0000      -2.456187       -66.8363
  17   2.0000      -0.749161       -20.3857
  18   2.0000      -0.682503       -18.5719
  19   2.0000      -0.604326       -16.4445
  20   2.0000      -0.526151       -14.3173
  21   2.0000      -0.424514       -11.5516
  22   2.0000      -0.417629       -11.3643
  23   2.0000      -0.378526       -10.3002
  24   2.0000      -0.346098        -9.4178
  25   2.0000      -0.319566        -8.6958
  26   2.0000      -0.314651        -8.5621
  27   2.0000      -0.301110        -8.1936
  28   2.0000      -0.234561        -6.3827
  29   2.0000      -0.232061        -6.3147
  30   0.0000      -0.022178        -0.6035
  31   0.0000       0.037531         1.0213
  32   0.0000       0.073468         1.9992
  33   0.0000       0.078752         2.1429
  34   0.0000       0.099181         2.6988

MULLIKEN ATOMIC CHARGES
-----------------------
   0 C :   -0.289542
   1 C :   -0.175557
   2 C :   -0.229351
   3 Br:   -0.126868
   4 H :    0.108860
   5 H :    0.120563
   6 H :    0.100097
   7 H :    0.101885
   8 H :    0.107851
   9 H :    0.139197
  10 H :    0.142866
Sum of atomic charges:   -0.0000000

LOEWDIN ATOMIC CHARGES
----------------------
   0 C :   -0.347010
   1 C :   -0.251920
   2 C :   -0.277704
   3 Br:    0.009863
   4 H :    0.122092
   5 H :    0.120750
   6 H :    0.118076
   7 H :    0.126223
   8 H :    0.123623
   9 H :    0.127449
  10 H :    0.128558

  Mayer bond orders larger than 0.100000
B(  0-C ,  1-C ) :   1.1482 B(  0-C ,  4-H ) :   0.9529 B(  0-C ,  5-H ) :   0.9468
B(  0-C ,  6-H ) :   0.9548 B(  1-C ,  2-C ) :   1.1030 B(  1-C ,  7-H ) :   0.9104
B(  1-C ,  8-H ) :   0.9251 B(  2-C ,  3-Br) :   1.0369 B(  2-C ,  9-H ) :   0.9248
B(  2-C , 10-H ) :   0.9280

Dispersion correction           -0.007558388
FINAL SINGLE POINT ENERGY     -2691.674486752924

DIPOLE MOMENT
-------------

Method             : SCF
Type of density    : Electron Density
Multiplicity       :   1
Irrep              :   0
Energy             : -2691.7174911619836166 Eh
Relativity type    :
Basis              : AO
                                X                 Y                 Z
Electronic contribution:     19.917658394       1.672140463       0.655870838
Nuclear contribution   :    -20.552935791      -2.033677567      -0.731739926
                        -----------------------------------------
Total Dipole Moment    :     -0.635277397      -0.361537104      -0.075869088
                        -----------------------------------------
Magnitude (a.u.)       :      0.734875885
Magnitude (Debye)      :      1.867906056

Rotational constants in cm-1:             0.368889             0.076578             0.068138
Rotational constants in MHz :         11059.021079          2295.744551          2042.730994

                             ****ORCA TERMINATED NORMALLY****
TOTAL RUN TIME: 0 days 0 hours 0 minutes 12 seconds 59 msec
