                         Program Version 6.0.1  -  RELEASE   -
|  1> ! pbe def2-sv(p) def2/J RI DEFGRID1 loosescf d4 GCP(DFT/SV(P)) printgap
|  2> %output
|  3>     printlevel normal
|  4> end
|  5> * xyz 0 1
|  6> C 1.685979326 0.3810483691 0.6392839908
|  7> C 0.8874266708 0.4238568351 -0.658947763
|  8> C -0.5653323646 -0.0497468322 -0.4895095368
|  9> H -1.0553141836 0.0121825614 -1.4784232389
| 10> C -1.3541196264 0.8037676751 0.4970324143
| 11> O -0.6247596112 -1.385089844 -0.0262391938
| 12> H 1.3568197574 1.15851251 1.322966706
| 13> H 2.7439221507 0.5307265937 0.4362970493
| 14> H 1.5572387026 -0.5838248908 1.1248015378
| 15> H 1.3718705549 -0.2208926479 -1.3994926298
| 16> H 0.8792847645 1.4379870442 -1.0619744002
| 17> H -1.3075483828 1.8506155593 0.21105006
| 18> H -2.3914472607 0.4810476579 0.5064727656
| 19> H -0.95099689 0.679358579 1.4971254933
| 20> H -0.0794742577 -1.9363016177 -0.5976211962
| 21> *
| 22>
| 23>                          ****END OF INPUT****

CARTESIAN COORDINATES (ANGSTROEM)
---------------------------------
  C      1.685979    0.381048    0.639284
  C      0.887427    0.423857   -0.658948
  C     -0.565332   -0.049747   -0.489510
  H     -1.055314    0.012183   -1.478423
  C     -1.354120    0.803768    0.497032
  O     -0.624760   -1.385090   -0.026239
  H      1.356820    1.158513    1.322967
  H      2.743922    0.530727    0.436297
  H      1.557239   -0.583825    1.124802
  H      1.371871   -0.220893   -1.399493
  H      0.879285    1.437987   -1.061974
  H     -1.307548    1.850616    0.211050
  H     -2.391447    0.481048    0.506473
  H     -0.950997    0.679359    1.497125
  H     -0.079474   -1.936302   -0.597621

 Total Charge           Charge          ....    0
 Multiplicity           Mult            ....    1
 Number of Electrons    NEL             ....   42
 Basis Dimension        Dim             ....   90

ORBITAL ENERGIES
----------------

  NO   OCC          E(Eh)            E(eV)
   0   2.0000     -18.738601      -509.9032
   1   2.0000      -9.934691      -270.3367
   2   2.0000      -9.884879      -268.9812
   3   2.0000      -9.871136      -268.6073
   4   2.0000      -9.869658      -268.5670
   5   2.0000      -0.918244       -24.9867
   6   2.0000      -0.705258       -19.1911
   7   2.0000      -0.647160       -17.6101
   8   2.0000      -0.570904       -15.5351
   9   2.0000      -0.512347       -13.9417
  10   2.0000      -0.445665       -12.1272
  11   2.0000      -0.417973       -11.3736
  12   2.0000      -0.404533       -11.0079
  13   2.0000      -0.351009        -9.5514
  14   2.0000      -0.341706        -9.2983
  15   2.0000      -0.333715        -9.0809
  16   2.0000      -0.322352        -8.7716
  17   2.0000      -0.301423        -8.2021
  18   2.0000      -0.292875        -7.9695
  19   2.0000      -0.264626        -7.2008
  20   2.0000      -0.211604        -5.7580
  21   0.0000       0.022299         0.6068
  22   0.0000       0.060087         1.6350
  23   0.0000       0.075289         2.0487
  24   0.0000       0.084055         2.2873
  25   0.0000       0.095688         2.6038

MULLIKEN ATOMIC CHARGES
-----------------------
   0 C :   -0.281593
   1 C :   -0.197864
   2 C :    0.023228
   3 H :    0.057809
   4 C :   -0.255912
   5 O :   -0.421767
   6 H :    0.105881
   7 H :    0.101412
   8 H :    0.101744
   9 H :    0.074829
  10 H :    0.083989
  11 H :    0.096848
  12 H :    0.108815
  13 H :    0.109692
  14 H :    0.292888
Sum of atomic charges:    0.0000000

LOEWDIN ATOMIC CHARGES
----------------------
   0 C :   -0.346736
   1 C :   -0.249729
   2 C :   -0.058107
   3 H :    0.092972
   4 C :   -0.341553
   5 O :   -0.330907
   6 H :    0.118790
   7 H :    0.119117
   8 H :    0.117827
   9 H :    0.108266
  10 H :    0.118524
  11 H :    0.121766
  12 H :    0.124984
  13 H :    0.123883
  14 H :    0.280903

  Mayer bond orders larger than 0.100000
B(  0-C ,  1-C ) :   1.1398 B(  0-C ,  6-H ) :   0.9524 B(  0-C ,  7-H ) :   0.9517
B(  0-C ,  8-H ) :   0.9456 B(  1-C ,  2-C ) :   1.0720 B(  1-C ,  9-H ) :   0.9238
B(  1-C , 10-H ) :   0.9157 B(  2-C ,  3-H ) :   0.9088 B(  2-C ,  4-C ) :   1.1157
B(  2-C ,  5-O ) :   1.0539 B(  4-C , 11-H ) :   0.9488 B(  4-C , 12-H ) :   0.9453
B(  4-C , 13-H ) :   0.9397 B(  5-O , 14-H ) :   0.8523

Dispersion correction           -0.009858630
FINAL SINGLE POINT ENERGY      -233.092042581366

DIPOLE MOMENT
-------------

Method             : SCF
Type of density    : Electron Density
Multiplicity       :   1
Irrep              :   0
Energy             :  -233.1516692373757564 Eh
Relativity type    :
Basis              : AO
                                X                 Y                 Z
Electronic contribution:     -1.661585290      -3.068907586      -0.978819160
Nuclear contribution   :      1.983721352       3.178031359       0.526110115
                        -----------------------------------------
Total Dipole Moment    :      0.322136062       0.109123773      -0.452709045
                        -----------------------------------------
Magnitude (a.u.)       :      0.566237688
Magnitude (Debye)      :      1.439261824

Rotational constants in cm-1:             0.214656             0.131284             0.107771
Rotational constants in MHz :          6435.228397          3935.806153          3230.885253

                             ****ORCA TERMINATED NORMALLY****
TOTAL RUN TIME: 0 days 0 hours 0 minutes 3 seconds 877 msec
