                         Program Version 6.0.1  -  RELEASE   -
|  1> ! r2scan-3c def2/J RI DEFGRID2 scfconv6 printgap
|  2> %output
|  3>     printlevel normal
|  4> end
|  5> * xyz 0 1
|  6> C -3.3194691544 0.458138694 0.2538393161
|  7> O -2.1419342978 0.3521764255 -0.535189443
|  8> C -1.0534131592 -0.1976449403 0.0269974543
|  9> O -1.0312798741 -0.6237462924 1.1510046405
| 10> C 0.0940293643 -0.1666070638 -0.9618524761
| 11> C 1.0785384064 -1.3234273395 -0.7658415461
| 12> C 1.8918730852 -1.1833083258 0.5182280908
| 13> C 2.6121475723 0.1597570165 0.557965061
| 14> C 1.5984729346 1.2945639076 0.455612149
| 15> C 0.8181108665 1.1857099146 -0.8499707912
| 16> H -4.1197644899 -0.0833255608 -0.2506225287
| 17> H -3.5832277995 1.5125309552 0.3407635546
| 18> H -3.1420343996 0.0316122009 1.2429944982
| 19> H -0.3569283398 -0.2324239353 -1.9577093022
| 20> H 0.5308587504 -2.2679199766 -0.7523535549
| 21> H 1.7562017181 -1.3389351737 -1.6235136457
| 22> H 1.2224503802 -1.2593487125 1.3744490998
| 23> H 2.6151147436 -1.9994226586 0.5772694385
| 24> H 3.178858444 0.2492513187 1.4865104096
| 25> H 3.3178227803 0.2255369136 -0.2745476832
| 26> H 0.910760596 1.2372620163 1.3011624624
| 27> H 2.1065273549 2.2606067904 0.4970112074
| 28> H 0.0902080368 1.9960750543 -0.9293555253
| 29> H 1.5105772137 1.2721058577 -1.6908395725
| 30> *
| 31>
| 32>                          ****END OF INPUT****

CARTESIAN COORDINATES (ANGSTROEM)
---------------------------------
  C     -3.319469    0.458139    0.253839
  O     -2.141934    0.352176   -0.535189
  C     -1.053413   -0.197645    0.026997
  O     -1.031280   -0.623746    1.151005
  C      0.094029   -0.166607   -0.961852
  C      1.078538   -1.323427   -0.765842
  C      1.891873   -1.183308    0.518228
  C      2.612148    0.159757    0.557965
  C      1.598473    1.294564    0.455612
  C      0.818111    1.185710   -0.849971
  H     -4.119764   -0.083326   -0.250623
  H     -3.583228    1.512531    0.340764
  H     -3.142034    0.031612    1.242994
  H     -0.356928   -0.232424   -1.957709
  H      0.530859   -2.267920   -0.752354
  H      1.756202   -1.338935   -1.623514
  H      1.222450   -1.259349    1.374449
  H      2.615115   -1.999423    0.577269
  H      3.178858    0.249251    1.486510
  H      3.317823    0.225537   -0.274548
  H      0.910761    1.237262    1.301162
  H      2.106527    2.260607    0.497011
  H      0.090208    1.996075   -0.929356
  H      1.510577    1.272106   -1.690840

 Total Charge           Charge          ....    0
 Multiplicity           Mult            ....    1
 Number of Electrons    NEL             ....   78
 Basis Dimension        Dim             ....  270

ORBITAL ENERGIES
----------------

  NO   OCC          E(Eh)            E(eV)
   0   2.0000     -18.996739      -516.9275
   1   2.0000     -18.934081      -515.2225
   2   2.0000     -10.152632      -276.2672
   3   2.0000     -10.081823      -274.3404
   4   2.0000     -10.046175      -273.3703
   5   2.0000     -10.033379      -273.0221
   6   2.0000     -10.027156      -272.8528
   7   2.0000     -10.021150      -272.6894
   8   2.0000     -10.018448      -272.6158
   9   2.0000     -10.013149      -272.4716
  10   2.0000      -1.072243       -29.1772
  11   2.0000      -0.984202       -26.7815
  12   2.0000      -0.806279       -21.9400
  13   2.0000      -0.733157       -19.9502
  14   2.0000      -0.709191       -19.2981
  15   2.0000      -0.687543       -18.7090
  16   2.0000      -0.592597       -16.1254
  17   2.0000      -0.574840       -15.6422
  18   2.0000      -0.540852       -14.7173
  19   2.0000      -0.517056       -14.0698
  20   2.0000      -0.461490       -12.5578
  21   2.0000      -0.453792       -12.3483
  22   2.0000      -0.449976       -12.2445
  23   2.0000      -0.433568       -11.7980
  24   2.0000      -0.412466       -11.2238
  25   2.0000      -0.408827       -11.1248
  26   2.0000      -0.394535       -10.7358
  27   2.0000      -0.370116       -10.0714
  28   2.0000      -0.347932        -9.4677
  29   2.0000      -0.346390        -9.4258
  30   2.0000      -0.339802        -9.2465
  31   2.0000      -0.338987        -9.2243
  32   2.0000      -0.313802        -8.5390
  33   2.0000      -0.310501        -8.4492
  34   2.0000      -0.294964        -8.0264
  35   2.0000      -0.275450        -7.4954
  36   2.0000      -0.268145        -7.2966
  37   2.0000      -0.265692        -7.2298
  38   2.0000      -0.235210        -6.4004
  39   0.0000      -0.016206        -0.4410
  40   0.0000       0.065577         1.7845
  41   0.0000       0.085336         2.3221
  42   0.0000       0.102836         2.7983
  43   0.0000       0.112516         3.0617

MULLIKEN ATOMIC CHARGES
-----------------------
   0 C :   -0.319409
   1 O :   -0.190024
   2 C :    0.287222
   3 O :   -0.425729
   4 C :    0.068067
   5 C :   -0.354461
   6 C :   -0.304083
   7 C :   -0.321151
   8 C :   -0.262718
   9 C :   -0.389910
  10 H :    0.146465
  11 H :    0.145991
  12 H :    0.189525
  13 H :    0.165553
  14 H :    0.145605
  15 H :    0.159730
  16 H :    0.195778
  17 H :    0.143639
  18 H :    0.149282
  19 H :    0.143214
  20 H :    0.165432
  21 H :    0.149186
  22 H :    0.154094
  23 H :    0.158700
Sum of atomic charges:   -0.0000000

LOEWDIN ATOMIC CHARGES
----------------------
   0 C :   -0.050778
   1 O :   -0.609176
   2 C :    0.365723
   3 O :   -0.442574
   4 C :   -0.155889
   5 C :   -0.276205
   6 C :   -0.298910
   7 C :   -0.300273
   8 C :   -0.297101
   9 C :   -0.268740
  10 H :    0.172138
  11 H :    0.171475
  12 H :    0.194399
  13 H :    0.185555
  14 H :    0.165054
  15 H :    0.159588
  16 H :    0.178858
  17 H :    0.152853
  18 H :    0.155593
  19 H :    0.151904
  20 H :    0.165977
  21 H :    0.154864
  22 H :    0.164724
  23 H :    0.160939

  Mayer bond orders larger than 0.100000
B(  0-C ,  1-O ) :   0.8441 B(  0-C , 10-H ) :   0.9649 B(  0-C , 11-H ) :   0.9631
B(  0-C , 12-H ) :   0.9704 B(  1-O ,  2-C ) :   1.0557 B(  2-C ,  3-O ) :   1.8520
B(  2-C ,  4-C ) :   0.9278 B(  4-C ,  5-C ) :   0.9171 B(  4-C ,  9-C ) :   0.9060
B(  4-C , 13-H ) :   0.9205 B(  5-C ,  6-C ) :   0.8937 B(  5-C , 14-H ) :   0.9496
B(  5-C , 15-H ) :   0.9901 B(  6-C ,  7-C ) :   0.9045 B(  6-C , 16-H ) :   0.9843
B(  6-C , 17-H ) :   0.9400 B(  7-C ,  8-C ) :   0.9061 B(  7-C , 18-H ) :   0.9454
B(  7-C , 19-H ) :   1.0088 B(  8-C ,  9-C ) :   0.9177 B(  8-C , 20-H ) :   0.9763
B(  8-C , 21-H ) :   0.9393 B(  9-C , 22-H ) :   0.9421 B(  9-C , 23-H ) :   0.9839

Dispersion correction           -0.007854883
FINAL SINGLE POINT ENERGY      -463.633268276037

DIPOLE MOMENT
-------------

Method             : SCF
Type of density    : Electron Density
Multiplicity       :   1
Irrep              :   0
Energy             :  -463.6389347473246971 Eh
Relativity type    :
Basis              : AO
                                X                 Y                 Z
Electronic contribution:     -5.823326909      -1.170765667       0.113401907
Nuclear contribution   :      5.617066734       1.500423247      -0.608916554
                        -----------------------------------------
Total Dipole Moment    :     -0.206260175       0.329657579      -0.495514647
                        -----------------------------------------
Magnitude (a.u.)       :      0.629882644
Magnitude (Debye)      :      1.601034444

Rotational constants in cm-1:             0.086835             0.029264             0.027576
Rotational constants in MHz :          2603.239341           877.316701           826.701757

                             ****ORCA TERMINATED NORMALLY****
TOTAL RUN TIME: 0 days 0 hours 0 minutes 25 seconds 433 msec
