                         Program Version 6.0.1  -  RELEASE   -
|  1> ! pbe def2-sv(p) def2/J RI DEFGRID1 loosescf d4 GCP(DFT/SV(P)) printgap
|  2> %output
|  3>     printlevel normal
|  4> end
|  5> * xyz 0 1
|  6> C -2.5484609495 -0.8955710175 0.3210093321
|  7> C -1.1265865218 -0.4201594536 0.6525078283
|  8> H -1.011477865 -0.3092521328 1.7410548481
|  9> C -0.8411476977 0.9338100808 -0.0082987732
| 10> H -1.074404177 0.8508640053 -1.0846072647
| 11> C 0.6381571606 1.2932294954 0.1637360787
| 12> H 0.8313808664 1.5015928857 1.2233928607
| 13> C 1.5600896015 0.1539526468 -0.289317021
| 14> H 1.4906351705 0.0305980165 -1.3839297161
| 15> C 1.1229323278 -1.1709747957 0.3513637886
| 16> H 1.3419134139 -1.118369987 1.4377359735
| 17> O -0.2527918651 -1.4164407623 0.1600684719
| 18> O 1.8087674199 -2.1969561396 -0.2611664384
| 19> O 2.8807906958 0.414464162 0.096692247
| 20> O 0.9545752011 2.4962490756 -0.5052116523
| 21> O -1.6577640616 1.903462955 0.5955852502
| 22> O -2.6885606973 -1.1689680193 -1.0443349691
| 23> H -3.2549088982 -0.1018374022 0.5662828616
| 24> H -2.7714141019 -1.7877456301 0.9220790239
| 25> H 1.4794955918 -3.0384484991 0.0772619272
| 26> H 3.0756192178 1.3367683879 -0.118860645
| 27> H 0.8019485711 2.3786829444 -1.4519177521
| 28> H -1.2911095331 2.7721147686 0.3825528149
| 29> H -1.9654329415 -1.7601721227 -1.2909212955
| 30> *
| 31>
| 32>                          ****END OF INPUT****

CARTESIAN COORDINATES (ANGSTROEM)
---------------------------------
  C     -2.548461   -0.895571    0.321009
  C     -1.126587   -0.420159    0.652508
  H     -1.011478   -0.309252    1.741055
  C     -0.841148    0.933810   -0.008299
  H     -1.074404    0.850864   -1.084607
  C      0.638157    1.293229    0.163736
  H      0.831381    1.501593    1.223393
  C      1.560090    0.153953   -0.289317
  H      1.490635    0.030598   -1.383930
  C      1.122932   -1.170975    0.351364
  H      1.341913   -1.118370    1.437736
  O     -0.252792   -1.416441    0.160068
  O      1.808767   -2.196956   -0.261166
  O      2.880791    0.414464    0.096692
  O      0.954575    2.496249   -0.505212
  O     -1.657764    1.903463    0.595585
  O     -2.688561   -1.168968   -1.044335
  H     -3.254909   -0.101837    0.566283
  H     -2.771414   -1.787746    0.922079
  H      1.479496   -3.038448    0.077262
  H      3.075619    1.336768   -0.118861
  H      0.801949    2.378683   -1.451918
  H     -1.291110    2.772115    0.382553
  H     -1.965433   -1.760172   -1.290921

 Total Charge           Charge          ....    0
 Multiplicity           Mult            ....    1
 Number of Electrons    NEL             ....   96
 Basis Dimension        Dim             ....  192

ORBITAL ENERGIES
----------------

  NO   OCC          E(Eh)            E(eV)
   0   2.0000     -18.784406      -511.1497
   1   2.0000     -18.778555      -510.9905
   2   2.0000     -18.764171      -510.5991
   3   2.0000     -18.756664      -510.3948
   4   2.0000     -18.752996      -510.2950
   5   2.0000     -18.746289      -510.1125
   6   2.0000      -9.995050      -271.9791
   7   2.0000      -9.951451      -270.7927
   8   2.0000      -9.949711      -270.7454
   9   2.0000      -9.947515      -270.6856
  10   2.0000      -9.946068      -270.6463
  11   2.0000      -9.930504      -270.2227
  12   2.0000      -0.993673       -27.0392
  13   2.0000      -0.962861       -26.2008
  14   2.0000      -0.940630       -25.5958
  15   2.0000      -0.928824       -25.2746
  16   2.0000      -0.925433       -25.1823
  17   2.0000      -0.915259       -24.9055
  18   2.0000      -0.709025       -19.2936
  19   2.0000      -0.697182       -18.9713
  20   2.0000      -0.624827       -17.0024
  21   2.0000      -0.589000       -16.0275
  22   2.0000      -0.569158       -15.4876
  23   2.0000      -0.536274       -14.5927
  24   2.0000      -0.508437       -13.8353
  25   2.0000      -0.492048       -13.3893
  26   2.0000      -0.483506       -13.1569
  27   2.0000      -0.456966       -12.4347
  28   2.0000      -0.451289       -12.2802
  29   2.0000      -0.441636       -12.0175
  30   2.0000      -0.431386       -11.7386
  31   2.0000      -0.419566       -11.4170
  32   2.0000      -0.384122       -10.4525
  33   2.0000      -0.373538       -10.1645
  34   2.0000      -0.366533        -9.9739
  35   2.0000      -0.365587        -9.9481
  36   2.0000      -0.325972        -8.8701
  37   2.0000      -0.321194        -8.7401
  38   2.0000      -0.308892        -8.4054
  39   2.0000      -0.295529        -8.0418
  40   2.0000      -0.292447        -7.9579
  41   2.0000      -0.276835        -7.5331
  42   2.0000      -0.260289        -7.0828
  43   2.0000      -0.252395        -6.8680
  44   2.0000      -0.238630        -6.4934
  45   2.0000      -0.229590        -6.2475
  46   2.0000      -0.216338        -5.8869
  47   2.0000      -0.212260        -5.7759
  48   0.0000       0.003027         0.0824
  49   0.0000       0.030441         0.8283
  50   0.0000       0.034918         0.9502
  51   0.0000       0.042031         1.1437
  52   0.0000       0.054090         1.4719

MULLIKEN ATOMIC CHARGES
-----------------------
   0 C :    0.102489
   1 C :   -0.028803
   2 H :    0.058714
   3 C :    0.074205
   4 H :    0.038601
   5 C :    0.016982
   6 H :    0.069975
   7 C :    0.055351
   8 H :    0.046603
   9 C :    0.201054
  10 H :    0.044946
  11 O :   -0.328331
  12 O :   -0.364617
  13 O :   -0.402743
  14 O :   -0.420778
  15 O :   -0.412537
  16 O :   -0.437517
  17 H :    0.099677
  18 H :    0.076500
  19 H :    0.304263
  20 H :    0.301951
  21 H :    0.301834
  22 H :    0.303892
  23 H :    0.298288
Sum of atomic charges:   -0.0000000

LOEWDIN ATOMIC CHARGES
----------------------
   0 C :   -0.121842
   1 C :   -0.071412
   2 H :    0.108172
   3 C :   -0.079737
   4 H :    0.097505
   5 C :   -0.094080
   6 H :    0.119317
   7 C :   -0.086161
   8 H :    0.101570
   9 C :    0.010467
  10 H :    0.086262
  11 O :   -0.157293
  12 O :   -0.285342
  13 O :   -0.311809
  14 O :   -0.313046
  15 O :   -0.317225
  16 O :   -0.329992
  17 H :    0.124861
  18 H :    0.098695
  19 H :    0.289352
  20 H :    0.283330
  21 H :    0.286311
  22 H :    0.284561
  23 H :    0.277534

  Mayer bond orders larger than 0.100000
B(  0-C ,  1-C ) :   1.0488 B(  0-C , 16-O ) :   1.0635 B(  0-C , 17-H ) :   0.9141
B(  0-C , 18-H ) :   0.9149 B(  1-C ,  2-H ) :   0.8734 B(  1-C ,  3-C ) :   1.0009
B(  1-C , 11-O ) :   0.9846 B(  3-C ,  4-H ) :   0.8562 B(  3-C ,  5-C ) :   1.0135
B(  3-C , 15-O ) :   1.0690 B(  5-C ,  6-H ) :   0.8622 B(  5-C ,  7-C ) :   1.0129
B(  5-C , 14-O ) :   1.0100 B(  7-C ,  8-H ) :   0.8587 B(  7-C ,  9-C ) :   0.9885
B(  7-C , 13-O ) :   1.0885 B(  9-C , 10-H ) :   0.8878 B(  9-C , 11-O ) :   0.9949
B(  9-C , 12-O ) :   1.2017 B( 12-O , 19-H ) :   0.8427 B( 13-O , 20-H ) :   0.8356
B( 14-O , 21-H ) :   0.8462 B( 15-O , 22-H ) :   0.8331 B( 16-O , 23-H ) :   0.8366

Dispersion correction           -0.023968833
FINAL SINGLE POINT ENERGY      -685.700547561866

DIPOLE MOMENT
-------------

Method             : SCF
Type of density    : Electron Density
Multiplicity       :   1
Irrep              :   0
Energy             :  -685.8313735373965301 Eh
Relativity type    :
Basis              : AO
                                X                 Y                 Z
Electronic contribution:      2.412918834      -0.550626585      -0.960185081
Nuclear contribution   :     -2.187111899       0.708597602       0.942851792
                        -----------------------------------------
Total Dipole Moment    :      0.225806935       0.157971017      -0.017333290
                        -----------------------------------------
Magnitude (a.u.)       :      0.276123264
Magnitude (Debye)      :      0.701849560

Rotational constants in cm-1:             0.038752             0.027585             0.017915
Rotational constants in MHz :          1161.757640           826.979396           537.074583

                             ****ORCA TERMINATED NORMALLY****
TOTAL RUN TIME: 0 days 0 hours 0 minutes 7 seconds 742 msec
