                         Program Version 6.0.1  -  RELEASE   -
|  1> ! r2scan-3c def2/J RI DEFGRID2 scfconv6 printgap
|  2> %output
|  3>     printlevel normal
|  4> end
|  5> * xyz 0 1
|  6> C -0.7314523558 5.4283e-06 3.109e-06
|  7> F 0.6326785644 2.3645e-06 7.256e-07
|  8> H -1.0696584044 -0.0576005975 -1.0352204371
|  9> H -1.0696448858 -0.8677714236 0.5674366442
| 10> H -1.0697513705 0.9252627631 0.4677330661
| 11> *
| 12>
| 13>                          ****END OF INPUT****

CARTESIAN COORDINATES (ANGSTROEM)
---------------------------------
  C     -0.731452    0.000005    0.000003
  F      0.632679    0.000002    0.000001
  H     -1.069658   -0.057601   -1.035220
  H     -1.069645   -0.867771    0.567437
  H     -1.069751    0.925263    0.467733

 Total Charge           Charge          ....    0
 Multiplicity           Mult            ....    1
 Number of Electrons    NEL             ....   18
 Basis Dimension        Dim             ....   58

ORBITAL ENERGIES
----------------

  NO   OCC          E(Eh)            E(eV)
   0   2.0000     -24.464365      -665.7092
   1   2.0000     -10.100377      -274.8452
   2   2.0000      -1.154723       -31.4216
   3   2.0000      -0.664107       -18.0713
   4   2.0000      -0.454868       -12.3776
   5   2.0000      -0.447592       -12.1796
   6   2.0000      -0.447586       -12.1794
   7   2.0000      -0.304761        -8.2930
   8   2.0000      -0.304753        -8.2927
   9   0.0000       0.067227         1.8293
  10   0.0000       0.112362         3.0575
  11   0.0000       0.188252         5.1226
  12   0.0000       0.188271         5.1231
  13   0.0000       0.198801         5.4096

MULLIKEN ATOMIC CHARGES
-----------------------
   0 C :   -0.094718
   1 F :   -0.294607
   2 H :    0.129775
   3 H :    0.129777
   4 H :    0.129773
Sum of atomic charges:    0.0000000

LOEWDIN ATOMIC CHARGES
----------------------
   0 C :   -0.039247
   1 F :   -0.397130
   2 H :    0.145462
   3 H :    0.145462
   4 H :    0.145454

  Mayer bond orders larger than 0.100000
B(  0-C ,  1-F ) :   0.8350 B(  0-C ,  2-H ) :   0.9733 B(  0-C ,  3-H ) :   0.9733
B(  0-C ,  4-H ) :   0.9733

Dispersion correction           -0.000340203
FINAL SINGLE POINT ENERGY      -139.722670600350

DIPOLE MOMENT
-------------

Method             : SCF
Type of density    : Electron Density
Multiplicity       :   1
Irrep              :   0
Energy             :  -139.7265439029808363 Eh
Relativity type    :
Basis              : AO
                                X                 Y                 Z
Electronic contribution:      2.909317128       0.000102862       0.000051492
Nuclear contribution   :     -3.596825620      -0.000104693      -0.000048263
                        -----------------------------------------
Total Dipole Moment    :     -0.687508492      -0.000001831       0.000003229
                        -----------------------------------------
Magnitude (a.u.)       :      0.687508492
Magnitude (Debye)      :      1.747507710

Rotational constants in cm-1:             5.185858             0.881852             0.881851
Rotational constants in MHz :        155468.115704         26437.242959         26437.220189

                             ****ORCA TERMINATED NORMALLY****
TOTAL RUN TIME: 0 days 0 hours 0 minutes 2 seconds 921 msec
