                         Program Version 6.0.1  -  RELEASE   -
|  1> ! r2scan-3c def2/J RI DEFGRID2 scfconv6 printgap
|  2> %output
|  3>     printlevel normal
|  4> end
|  5> * xyz 0 1
|  6> C -2.0937858102 -1.1950177382 -0.2199436973
|  7> C -1.2636669332 -0.3421342361 0.7599155033
|  8> H -1.8645596921 -0.1726632044 1.6588750163
|  9> C -0.9236739909 1.0348467253 0.1631707024
| 10> H -1.2052896205 1.0532631778 -0.9020610087
| 11> C 0.5854129076 1.2894666866 0.242085773
| 12> H 0.8925472578 1.3624605501 1.2976462662
| 13> C 1.3020500582 0.1000288969 -0.3994253878
| 14> H 0.914804158 -0.0413439397 -1.4192753902
| 15> C 0.9952754963 -1.1569508433 0.4344812903
| 16> H 1.8322265715 -1.3337919881 1.1297840478
| 17> O -0.118989311 -1.0328896028 1.2603146667
| 18> O 0.8800785828 -2.2456401893 -0.4550928098
| 19> O 2.6803087252 0.3850865189 -0.4350725971
| 20> O 0.8647822089 2.4893534765 -0.4308923517
| 21> O -1.6421798589 2.0123880588 0.8685546183
| 22> O -1.5438837502 -1.2951146864 -1.5043456698
| 23> H -3.0671351526 -0.7161449251 -0.3434128395
| 24> H -2.2414054677 -2.1891132618 0.2259949849
| 25> H 0.6690418682 -3.0397435275 0.0523713425
| 26> H 3.1364538464 -0.331203871 -0.8894360878
| 27> H 1.8191249708 2.521338727 -0.5719296276
| 28> H -1.3186063427 2.8723444312 0.5713499525
| 29> H -0.6835353096 -1.7421794587 -1.4350331166
| 30> *
| 31>
| 32>                          ****END OF INPUT****

CARTESIAN COORDINATES (ANGSTROEM)
---------------------------------
  C     -2.093786   -1.195018   -0.219944
  C     -1.263667   -0.342134    0.759916
  H     -1.864560   -0.172663    1.658875
  C     -0.923674    1.034847    0.163171
  H     -1.205290    1.053263   -0.902061
  C      0.585413    1.289467    0.242086
  H      0.892547    1.362461    1.297646
  C      1.302050    0.100029   -0.399425
  H      0.914804   -0.041344   -1.419275
  C      0.995275   -1.156951    0.434481
  H      1.832227   -1.333792    1.129784
  O     -0.118989   -1.032890    1.260315
  O      0.880079   -2.245640   -0.455093
  O      2.680309    0.385087   -0.435073
  O      0.864782    2.489353   -0.430892
  O     -1.642180    2.012388    0.868555
  O     -1.543884   -1.295115   -1.504346
  H     -3.067135   -0.716145   -0.343413
  H     -2.241405   -2.189113    0.225995
  H      0.669042   -3.039744    0.052371
  H      3.136454   -0.331204   -0.889436
  H      1.819125    2.521339   -0.571930
  H     -1.318606    2.872344    0.571350
  H     -0.683535   -1.742179   -1.435033

 Total Charge           Charge          ....    0
 Multiplicity           Mult            ....    1
 Number of Electrons    NEL             ....   96
 Basis Dimension        Dim             ....  318

ORBITAL ENERGIES
----------------

  NO   OCC          E(Eh)            E(eV)
   0   2.0000     -18.991147      -516.7754
   1   2.0000     -18.978612      -516.4343
   2   2.0000     -18.978007      -516.4178
   3   2.0000     -18.961031      -515.9559
   4   2.0000     -18.951874      -515.7067
   5   2.0000     -18.942226      -515.4442
   6   2.0000     -10.151336      -276.2319
   7   2.0000     -10.101574      -274.8778
   8   2.0000     -10.091825      -274.6125
   9   2.0000     -10.091699      -274.6091
  10   2.0000     -10.087108      -274.4842
  11   2.0000     -10.078312      -274.2448
  12   2.0000      -1.063302       -28.9339
  13   2.0000      -1.023383       -27.8477
  14   2.0000      -1.007381       -27.4122
  15   2.0000      -0.995622       -27.0922
  16   2.0000      -0.985749       -26.8236
  17   2.0000      -0.983469       -26.7616
  18   2.0000      -0.755872       -20.5683
  19   2.0000      -0.745389       -20.2831
  20   2.0000      -0.662987       -18.0408
  21   2.0000      -0.622644       -16.9430
  22   2.0000      -0.607774       -16.5384
  23   2.0000      -0.556845       -15.1525
  24   2.0000      -0.535597       -14.5743
  25   2.0000      -0.505270       -13.7491
  26   2.0000      -0.491182       -13.3657
  27   2.0000      -0.488174       -13.2839
  28   2.0000      -0.477881       -13.0038
  29   2.0000      -0.458112       -12.4658
  30   2.0000      -0.443346       -12.0641
  31   2.0000      -0.422771       -11.5042
  32   2.0000      -0.415735       -11.3127
  33   2.0000      -0.407112       -11.0781
  34   2.0000      -0.387466       -10.5435
  35   2.0000      -0.368900       -10.0383
  36   2.0000      -0.362085        -9.8528
  37   2.0000      -0.348442        -9.4816
  38   2.0000      -0.339637        -9.2420
  39   2.0000      -0.319706        -8.6996
  40   2.0000      -0.312304        -8.4982
  41   2.0000      -0.296735        -8.0746
  42   2.0000      -0.285908        -7.7800
  43   2.0000      -0.269731        -7.3397
  44   2.0000      -0.260293        -7.0829
  45   2.0000      -0.248986        -6.7752
  46   2.0000      -0.239006        -6.5037
  47   2.0000      -0.226439        -6.1617
  48   0.0000       0.027159         0.7390
  49   0.0000       0.037157         1.0111
  50   0.0000       0.065199         1.7742
  51   0.0000       0.074128         2.0171
  52   0.0000       0.078940         2.1481

MULLIKEN ATOMIC CHARGES
-----------------------
   0 C :   -0.242040
   1 C :    0.020126
   2 H :    0.165256
   3 C :   -0.056882
   4 H :    0.187695
   5 C :   -0.013683
   6 H :    0.173442
   7 C :    0.017542
   8 H :    0.185738
   9 C :   -0.106888
  10 H :    0.147753
  11 O :   -0.202944
  12 O :   -0.419651
  13 O :   -0.439065
  14 O :   -0.430462
  15 O :   -0.426756
  16 O :   -0.428723
  17 H :    0.144989
  18 H :    0.139953
  19 H :    0.313372
  20 H :    0.307518
  21 H :    0.312368
  22 H :    0.311972
  23 H :    0.339369
Sum of atomic charges:    0.0000000

LOEWDIN ATOMIC CHARGES
----------------------
   0 C :    0.023370
   1 C :    0.117401
   2 H :    0.215235
   3 C :    0.120045
   4 H :    0.197523
   5 C :    0.122782
   6 H :    0.189912
   7 C :    0.124356
   8 H :    0.196863
   9 C :    0.287006
  10 H :    0.206382
  11 O :   -0.670497
  12 O :   -0.542878
  13 O :   -0.576056
  14 O :   -0.568237
  15 O :   -0.571574
  16 O :   -0.617667
  17 H :    0.187387
  18 H :    0.166263
  19 H :    0.277866
  20 H :    0.276254
  21 H :    0.283147
  22 H :    0.279914
  23 H :    0.275204

  Mayer bond orders larger than 0.100000
B(  0-C ,  1-C ) :   0.8986 B(  0-C , 16-O ) :   1.0116 B(  0-C , 17-H ) :   0.9643
B(  0-C , 18-H ) :   0.9918 B(  1-C ,  2-H ) :   0.9343 B(  1-C ,  3-C ) :   0.8532
B(  1-C , 11-O ) :   0.9556 B(  3-C ,  4-H ) :   0.9692 B(  3-C ,  5-C ) :   0.8916
B(  3-C , 15-O ) :   0.8942 B(  5-C ,  6-H ) :   0.9946 B(  5-C ,  7-C ) :   0.8955
B(  5-C , 14-O ) :   0.9305 B(  7-C ,  8-H ) :   0.9516 B(  7-C ,  9-C ) :   0.8713
B(  7-C , 13-O ) :   0.9145 B(  9-C , 10-H ) :   0.9702 B(  9-C , 11-O ) :   1.0345
B(  9-C , 12-O ) :   0.9156 B( 12-O , 19-H ) :   0.8853 B( 13-O , 20-H ) :   0.8903
B( 14-O , 21-H ) :   0.8744 B( 15-O , 22-H ) :   0.8805 B( 16-O , 23-H ) :   0.8232

Dispersion correction           -0.008467003
FINAL SINGLE POINT ENERGY      -687.074889199639

DIPOLE MOMENT
-------------

Method             : SCF
Type of density    : Electron Density
Multiplicity       :   1
Irrep              :   0
Energy             :  -687.0870813520181173 Eh
Relativity type    :
Basis              : AO
                                X                 Y                 Z
Electronic contribution:      1.957997161       0.826501357       0.747098435
Nuclear contribution   :     -1.030716223      -1.643516302      -0.596793764
                        -----------------------------------------
Total Dipole Moment    :      0.927280939      -0.817014946       0.150304671
                        -----------------------------------------
Magnitude (a.u.)       :      1.244971829
Magnitude (Debye)      :      3.164466904

Rotational constants in cm-1:             0.035927             0.032775             0.021511
Rotational constants in MHz :          1077.054800           982.583772           644.872050

                             ****ORCA TERMINATED NORMALLY****
TOTAL RUN TIME: 0 days 0 hours 0 minutes 39 seconds 854 msec
