                         Program Version 6.0.1  -  RELEASE   -
|  1> ! pbe def2-sv(p) def2/J RI DEFGRID1 loosescf d4 GCP(DFT/SV(P)) printgap
|  2> %output
|  3>     printlevel normal
|  4> end
|  5> * xyz 0 1
|  6> C 3.4185738981 -0.6739465332 -0.2385126314
|  7> C 2.1871814233 -0.1902424401 0.5245514681
|  8> H 2.5043344894 0.0901459188 1.5346097445
|  9> C 1.1286791807 -1.2987798271 0.6455913687
| 10> C 0.1332237075 -1.2573596067 -0.5100330463
| 11> C -0.6770283979 0.0505592537 -0.5416481513
| 12> H -0.78174947 0.3542389151 -1.5929342648
| 13> C 0.0993751147 1.1858182788 0.152802751
| 14> H -0.0469443675 1.1508645916 1.2356533142
| 15> C 1.5907898842 1.0467853782 -0.1603595065
| 16> O -0.4015527278 2.4523975469 -0.217359015
| 17> C -2.1128111641 -0.0557892951 0.0114510706
| 18> C -3.0192133033 -0.8055361742 -0.9644734075
| 19> C -2.1994570884 -0.6959973029 1.3947735661
| 20> H 3.9058420867 -1.4868170699 0.2955275912
| 21> H 3.1403971353 -1.0316091275 -1.2276352592
| 22> H 4.135157371 0.1361439627 -0.3560318444
| 23> H 1.6238596422 -2.2718226833 0.6636457363
| 24> H 0.5893453279 -1.1905294828 1.5862346542
| 25> H 0.6844549115 -1.3655129429 -1.4463106566
| 26> H -0.5408844326 -2.1111474248 -0.440577311
| 27> H 1.7130821565 0.9685518318 -1.2446111197
| 28> H 2.1132150339 1.9474396235 0.1674039382
| 29> H -0.2818983335 2.5613887779 -1.1681739773
| 30> H -2.481522057 0.9736581946 0.0936139675
| 31> H -4.0413265767 -0.8206801154 -0.5930512527
| 32> H -2.6899091175 -1.8347571732 -1.0900602665
| 33> H -3.0192555151 -0.3253612989 -1.9407904476
| 34> H -1.8725309021 -1.7325820865 1.3709990748
| 35> H -3.2305673811 -0.6763972 1.741603028
| 36> H -1.5949412456 -0.1547317467 2.1176384701
| 37> *
| 38>
| 39>                          ****END OF INPUT****

CARTESIAN COORDINATES (ANGSTROEM)
---------------------------------
  C      3.418574   -0.673947   -0.238513
  C      2.187181   -0.190242    0.524551
  H      2.504334    0.090146    1.534610
  C      1.128679   -1.298780    0.645591
  C      0.133224   -1.257360   -0.510033
  C     -0.677028    0.050559   -0.541648
  H     -0.781749    0.354239   -1.592934
  C      0.099375    1.185818    0.152803
  H     -0.046944    1.150865    1.235653
  C      1.590790    1.046785   -0.160360
  O     -0.401553    2.452398   -0.217359
  C     -2.112811   -0.055789    0.011451
  C     -3.019213   -0.805536   -0.964473
  C     -2.199457   -0.695997    1.394774
  H      3.905842   -1.486817    0.295528
  H      3.140397   -1.031609   -1.227635
  H      4.135157    0.136144   -0.356032
  H      1.623860   -2.271823    0.663646
  H      0.589345   -1.190529    1.586235
  H      0.684455   -1.365513   -1.446311
  H     -0.540884   -2.111147   -0.440577
  H      1.713082    0.968552   -1.244611
  H      2.113215    1.947440    0.167404
  H     -0.281898    2.561389   -1.168174
  H     -2.481522    0.973658    0.093614
  H     -4.041327   -0.820680   -0.593051
  H     -2.689909   -1.834757   -1.090060
  H     -3.019256   -0.325361   -1.940790
  H     -1.872531   -1.732582    1.370999
  H     -3.230567   -0.676397    1.741603
  H     -1.594941   -0.154732    2.117638

 Total Charge           Charge          ....    0
 Multiplicity           Mult            ....    1
 Number of Electrons    NEL             ....   88
 Basis Dimension        Dim             ....  194

ORBITAL ENERGIES
----------------

  NO   OCC          E(Eh)            E(eV)
   0   2.0000     -18.737368      -509.8697
   1   2.0000      -9.929749      -270.2022
   2   2.0000      -9.893858      -269.2256
   3   2.0000      -9.888534      -269.0807
   4   2.0000      -9.887303      -269.0472
   5   2.0000      -9.882833      -268.9256
   6   2.0000      -9.880459      -268.8610
   7   2.0000      -9.878629      -268.8112
   8   2.0000      -9.873377      -268.6683
   9   2.0000      -9.870295      -268.5844
  10   2.0000      -9.869317      -268.5578
  11   2.0000      -0.918192       -24.9853
  12   2.0000      -0.759530       -20.6679
  13   2.0000      -0.720546       -19.6071
  14   2.0000      -0.666489       -18.1361
  15   2.0000      -0.653548       -17.7839
  16   2.0000      -0.610199       -16.6044
  17   2.0000      -0.602500       -16.3949
  18   2.0000      -0.560646       -15.2559
  19   2.0000      -0.539752       -14.6874
  20   2.0000      -0.490190       -13.3387
  21   2.0000      -0.482388       -13.1264
  22   2.0000      -0.444475       -12.0948
  23   2.0000      -0.439439       -11.9577
  24   2.0000      -0.408931       -11.1276
  25   2.0000      -0.402211       -10.9447
  26   2.0000      -0.386549       -10.5185
  27   2.0000      -0.380445       -10.3524
  28   2.0000      -0.361004        -9.8234
  29   2.0000      -0.356150        -9.6913
  30   2.0000      -0.343268        -9.3408
  31   2.0000      -0.340972        -9.2783
  32   2.0000      -0.333898        -9.0858
  33   2.0000      -0.331440        -9.0189
  34   2.0000      -0.327363        -8.9080
  35   2.0000      -0.309621        -8.4252
  36   2.0000      -0.298729        -8.1288
  37   2.0000      -0.289687        -7.8828
  38   2.0000      -0.283433        -7.7126
  39   2.0000      -0.279154        -7.5962
  40   2.0000      -0.266740        -7.2584
  41   2.0000      -0.261091        -7.1047
  42   2.0000      -0.246489        -6.7073
  43   2.0000      -0.205419        -5.5897
  44   0.0000       0.023278         0.6334
  45   0.0000       0.032053         0.8722
  46   0.0000       0.046781         1.2730
  47   0.0000       0.053256         1.4492
  48   0.0000       0.074281         2.0213

MULLIKEN ATOMIC CHARGES
-----------------------
   0 C :   -0.242683
   1 C :   -0.184972
   2 H :    0.068305
   3 C :   -0.115543
   4 C :   -0.123438
   5 C :   -0.118664
   6 H :    0.032190
   7 C :    0.042800
   8 H :    0.060555
   9 C :   -0.059712
  10 O :   -0.414508
  11 C :   -0.145889
  12 C :   -0.233471
  13 C :   -0.258487
  14 H :    0.098219
  15 H :    0.095953
  16 H :    0.100300
  17 H :    0.076908
  18 H :    0.080085
  19 H :    0.071814
  20 H :    0.089331
  21 H :    0.044690
  22 H :    0.084037
  23 H :    0.289364
  24 H :    0.071929
  25 H :    0.096616
  26 H :    0.093619
  27 H :    0.093917
  28 H :    0.098589
  29 H :    0.099022
  30 H :    0.109123
Sum of atomic charges:   -0.0000000

LOEWDIN ATOMIC CHARGES
----------------------
   0 C :   -0.328854
   1 C :   -0.149650
   2 H :    0.116635
   3 C :   -0.220917
   4 C :   -0.219799
   5 C :   -0.146092
   6 H :    0.107988
   7 C :   -0.050853
   8 H :    0.111829
   9 C :   -0.229554
  10 O :   -0.316929
  11 C :   -0.151346
  12 C :   -0.328809
  13 C :   -0.331351
  14 H :    0.116519
  15 H :    0.114622
  16 H :    0.117998
  17 H :    0.117301
  18 H :    0.115967
  19 H :    0.116056
  20 H :    0.117032
  21 H :    0.109103
  22 H :    0.120146
  23 H :    0.277376
  24 H :    0.118072
  25 H :    0.117368
  26 H :    0.113973
  27 H :    0.114810
  28 H :    0.115524
  29 H :    0.120232
  30 H :    0.115599

  Mayer bond orders larger than 0.100000
B(  0-C ,  1-C ) :   1.1167 B(  0-C , 14-H ) :   0.9466 B(  0-C , 15-H ) :   0.9454
B(  0-C , 16-H ) :   0.9491 B(  1-C ,  2-H ) :   0.8946 B(  1-C ,  3-C ) :   1.0913
B(  1-C ,  9-C ) :   1.0825 B(  3-C ,  4-C ) :   1.1892 B(  3-C , 17-H ) :   0.9145
B(  3-C , 18-H ) :   0.8957 B(  4-C ,  5-C ) :   1.0527 B(  4-C , 19-H ) :   0.8951
B(  4-C , 20-H ) :   0.9040 B(  5-C ,  6-H ) :   0.8683 B(  5-C ,  7-C ) :   1.0300
B(  5-C , 11-C ) :   1.0467 B(  7-C ,  8-H ) :   0.8726 B(  7-C ,  9-C ) :   1.1330
B(  7-C , 10-O ) :   1.0298 B(  9-C , 21-H ) :   0.8794 B(  9-C , 22-H ) :   0.9040
B( 10-O , 23-H ) :   0.8536 B( 11-C , 12-C ) :   1.1106 B( 11-C , 13-C ) :   1.1224
B( 11-C , 24-H ) :   0.8862 B( 12-C , 25-H ) :   0.9495 B( 12-C , 26-H ) :   0.9432
B( 12-C , 27-H ) :   0.9479 B( 13-C , 28-H ) :   0.9370 B( 13-C , 29-H ) :   0.9452
B( 13-C , 30-H ) :   0.9376

Dispersion correction           -0.032200444
FINAL SINGLE POINT ENERGY      -467.190376495928

DIPOLE MOMENT
-------------

Method             : SCF
Type of density    : Electron Density
Multiplicity       :   1
Irrep              :   0
Energy             :  -467.3021208440093233 Eh
Relativity type    :
Basis              : AO
                                X                 Y                 Z
Electronic contribution:      0.388457976       6.038352300      -0.056953469
Nuclear contribution   :     -0.167173322      -6.361440521      -0.278338819
                        -----------------------------------------
Total Dipole Moment    :      0.221284654      -0.323088221      -0.335292288
                        -----------------------------------------
Magnitude (a.u.)       :      0.515532554
Magnitude (Debye)      :      1.310379616

Rotational constants in cm-1:             0.055218             0.025130             0.020690
Rotational constants in MHz :          1655.379747           753.368136           620.257490

                             ****ORCA TERMINATED NORMALLY****
TOTAL RUN TIME: 0 days 0 hours 0 minutes 11 seconds 906 msec
