                         Program Version 6.0.1  -  RELEASE   -
|  1> ! pbe def2-sv(p) def2/J RI DEFGRID1 loosescf d4 GCP(DFT/SV(P)) printgap
|  2> %output
|  3>     printlevel normal
|  4> end
|  5> * xyz 0 1
|  6> C 1.7156125141 0.4188783239 0.6073557577
|  7> C 0.8862775146 0.3823915075 -0.6729293912
|  8> C -0.5685459247 -0.0806933282 -0.4754040784
|  9> H -1.055501989 -0.0869246242 -1.4578442245
| 10> C -1.3549310429 0.8405115322 0.4587148441
| 11> O -0.6387555336 -1.4232759183 -0.0460863726
| 12> H 1.3127175372 1.1347208771 1.3196426902
| 13> H 2.7357424872 0.7149140368 0.3742229071
| 14> H 1.7542864407 -0.562621063 1.076867997
| 15> H 1.3586566733 -0.3021741058 -1.3805951706
| 16> H 0.8704185333 1.3753817739 -1.1253717874
| 17> H -0.9517724406 0.8023143132 1.4688051385
| 18> H -1.3131259293 1.8655863261 0.1010232615
| 19> H -2.3943140693 0.5232338038 0.4952088086
| 20> H -0.262056139 -1.4746185259 0.8399300654
| 21> *
| 22>
| 23>                          ****END OF INPUT****

CARTESIAN COORDINATES (ANGSTROEM)
---------------------------------
  C      1.715613    0.418878    0.607356
  C      0.886278    0.382392   -0.672929
  C     -0.568546   -0.080693   -0.475404
  H     -1.055502   -0.086925   -1.457844
  C     -1.354931    0.840512    0.458715
  O     -0.638756   -1.423276   -0.046086
  H      1.312718    1.134721    1.319643
  H      2.735742    0.714914    0.374223
  H      1.754286   -0.562621    1.076868
  H      1.358657   -0.302174   -1.380595
  H      0.870419    1.375382   -1.125372
  H     -0.951772    0.802314    1.468805
  H     -1.313126    1.865586    0.101023
  H     -2.394314    0.523234    0.495209
  H     -0.262056   -1.474619    0.839930

 Total Charge           Charge          ....    0
 Multiplicity           Mult            ....    1
 Number of Electrons    NEL             ....   42
 Basis Dimension        Dim             ....   90

ORBITAL ENERGIES
----------------

  NO   OCC          E(Eh)            E(eV)
   0   2.0000     -18.737089      -509.8621
   1   2.0000      -9.933656      -270.3085
   2   2.0000      -9.882596      -268.9191
   3   2.0000      -9.880935      -268.8739
   4   2.0000      -9.874828      -268.7077
   5   2.0000      -0.917937       -24.9783
   6   2.0000      -0.705523       -19.1983
   7   2.0000      -0.649227       -17.6664
   8   2.0000      -0.580950       -15.8085
   9   2.0000      -0.518056       -14.0970
  10   2.0000      -0.434291       -11.8177
  11   2.0000      -0.417865       -11.3707
  12   2.0000      -0.398818       -10.8524
  13   2.0000      -0.378175       -10.2907
  14   2.0000      -0.346088        -9.4175
  15   2.0000      -0.343222        -9.3395
  16   2.0000      -0.317948        -8.6518
  17   2.0000      -0.305864        -8.3230
  18   2.0000      -0.294322        -8.0089
  19   2.0000      -0.264013        -7.1842
  20   2.0000      -0.210571        -5.7299
  21   0.0000       0.023141         0.6297
  22   0.0000       0.054028         1.4702
  23   0.0000       0.070712         1.9242
  24   0.0000       0.084823         2.3081
  25   0.0000       0.093503         2.5443

MULLIKEN ATOMIC CHARGES
-----------------------
   0 C :   -0.318091
   1 C :   -0.151805
   2 C :    0.024417
   3 H :    0.071542
   4 C :   -0.273359
   5 O :   -0.428642
   6 H :    0.109414
   7 H :    0.111090
   8 H :    0.089283
   9 H :    0.091827
  10 H :    0.081274
  11 H :    0.092811
  12 H :    0.097173
  13 H :    0.111679
  14 H :    0.291388
Sum of atomic charges:   -0.0000000

LOEWDIN ATOMIC CHARGES
----------------------
   0 C :   -0.349379
   1 C :   -0.248057
   2 C :   -0.061367
   3 H :    0.112119
   4 C :   -0.354786
   5 O :   -0.326526
   6 H :    0.117651
   7 H :    0.125522
   8 H :    0.110354
   9 H :    0.119783
  10 H :    0.117650
  11 H :    0.113887
  12 H :    0.122580
  13 H :    0.124139
  14 H :    0.276428

  Mayer bond orders larger than 0.100000
B(  0-C ,  1-C ) :   1.1374 B(  0-C ,  6-H ) :   0.9506 B(  0-C ,  7-H ) :   0.9508
B(  0-C ,  8-H ) :   0.9457 B(  1-C ,  2-C ) :   1.0617 B(  1-C ,  9-H ) :   0.9211
B(  1-C , 10-H ) :   0.9154 B(  2-C ,  3-H ) :   0.9071 B(  2-C ,  4-C ) :   1.1093
B(  2-C ,  5-O ) :   1.0416 B(  4-C , 11-H ) :   0.9387 B(  4-C , 12-H ) :   0.9412
B(  4-C , 13-H ) :   0.9460 B(  5-O , 14-H ) :   0.8507

Dispersion correction           -0.009844648
FINAL SINGLE POINT ENERGY      -233.092023718903

DIPOLE MOMENT
-------------

Method             : SCF
Type of density    : Electron Density
Multiplicity       :   1
Irrep              :   0
Energy             :  -233.1516925369291471 Eh
Relativity type    :
Basis              : AO
                                X                 Y                 Z
Electronic contribution:     -1.666402741      -3.281879944      -1.278382032
Nuclear contribution   :      1.918495293       3.721976284       1.605348907
                        -----------------------------------------
Total Dipole Moment    :      0.252092552       0.440096340       0.326966875
                        -----------------------------------------
Magnitude (a.u.)       :      0.603442442
Magnitude (Debye)      :      1.533828792

Rotational constants in cm-1:             0.214641             0.128824             0.106059
Rotational constants in MHz :          6434.785326          3862.042576          3179.554213

                             ****ORCA TERMINATED NORMALLY****
TOTAL RUN TIME: 0 days 0 hours 0 minutes 3 seconds 820 msec
