                         Program Version 6.0.1  -  RELEASE   -
|  1> ! r2scan-3c def2/J RI DEFGRID2 scfconv6 printgap
|  2> %output
|  3>     printlevel normal
|  4> end
|  5> * xyz 0 1
|  6> C -1.8288754426 0.6307331831 -0.1334796187
|  7> C -1.3561639541 -0.5354921679 0.2589368653
|  8> C 0.0801015605 -0.9369084533 0.3305369339
|  9> Cl 1.2074509867 0.3438666703 -0.1832524791
| 10> H -2.8855363882 0.8318089865 -0.1524601871
| 11> H -1.1796331551 1.4287922541 -0.4505384312
| 12> H -2.0236183932 -1.3278537053 0.5749202064
| 13> H 0.3505562442 -1.2005181044 1.3558593722
| 14> H 0.2671021323 -1.7977492889 -0.3158710093
| 15> *
| 16>
| 17>                          ****END OF INPUT****

CARTESIAN COORDINATES (ANGSTROEM)
---------------------------------
  C     -1.828875    0.630733   -0.133480
  C     -1.356164   -0.535492    0.258937
  C      0.080102   -0.936908    0.330537
  Cl     1.207451    0.343867   -0.183252
  H     -2.885536    0.831809   -0.152460
  H     -1.179633    1.428792   -0.450538
  H     -2.023618   -1.327854    0.574920
  H      0.350556   -1.200518    1.355859
  H      0.267102   -1.797749   -0.315871

 Total Charge           Charge          ....    0
 Multiplicity           Mult            ....    1
 Number of Electrons    NEL             ....   40
 Basis Dimension        Dim             ....  109

ORBITAL ENERGIES
----------------

  NO   OCC          E(Eh)            E(eV)
   0   2.0000    -101.205419     -2753.9394
   1   2.0000     -10.102146      -274.8934
   2   2.0000     -10.050988      -273.5013
   3   2.0000     -10.030841      -272.9531
   4   2.0000      -9.361582      -254.7416
   5   2.0000      -7.107889      -193.4155
   6   2.0000      -7.097577      -193.1349
   7   2.0000      -7.097518      -193.1333
   8   2.0000      -0.832381       -22.6502
   9   2.0000      -0.744453       -20.2576
  10   2.0000      -0.653476       -17.7820
  11   2.0000      -0.529853       -14.4180
  12   2.0000      -0.459790       -12.5115
  13   2.0000      -0.436513       -11.8781
  14   2.0000      -0.415240       -11.2993
  15   2.0000      -0.373241       -10.1564
  16   2.0000      -0.334179        -9.0935
  17   2.0000      -0.274577        -7.4716
  18   2.0000      -0.273712        -7.4481
  19   2.0000      -0.251014        -6.8304
  20   0.0000      -0.023182        -0.6308
  21   0.0000       0.007183         0.1955
  22   0.0000       0.088639         2.4120
  23   0.0000       0.132009         3.5922
  24   0.0000       0.146762         3.9936

MULLIKEN ATOMIC CHARGES
-----------------------
   0 C :   -0.303920
   1 C :   -0.145924
   2 C :   -0.147892
   3 Cl:   -0.186833
   4 H :    0.143094
   5 H :    0.161185
   6 H :    0.156378
   7 H :    0.161961
   8 H :    0.161951
Sum of atomic charges:    0.0000000

LOEWDIN ATOMIC CHARGES
----------------------
   0 C :   -0.304305
   1 C :   -0.224467
   2 C :   -0.314574
   3 Cl:    0.019034
   4 H :    0.159802
   5 H :    0.164719
   6 H :    0.167173
   7 H :    0.166315
   8 H :    0.166302

  Mayer bond orders larger than 0.100000
B(  0-C ,  1-C ) :   1.9582 B(  0-C ,  4-H ) :   0.9552 B(  0-C ,  5-H ) :   0.9672
B(  1-C ,  2-C ) :   0.9739 B(  1-C ,  6-H ) :   0.9191 B(  2-C ,  3-Cl) :   1.0181
B(  2-C ,  7-H ) :   0.9518 B(  2-C ,  8-H ) :   0.9518

Dispersion correction           -0.001906870
FINAL SINGLE POINT ENERGY      -577.436796937507

DIPOLE MOMENT
-------------

Method             : SCF
Type of density    : Electron Density
Multiplicity       :   1
Irrep              :   0
Energy             :  -577.4406579333792706 Eh
Relativity type    :
Basis              : AO
                                X                 Y                 Z
Electronic contribution:      6.277029063       1.842314443      -0.972450046
Nuclear contribution   :     -6.753510489      -2.399353385       1.195308466
                        -----------------------------------------
Total Dipole Moment    :     -0.476481426      -0.557038942       0.222858419
                        -----------------------------------------
Magnitude (a.u.)       :      0.766154559
Magnitude (Debye)      :      1.947410125

Rotational constants in cm-1:             0.454344             0.128807             0.102295
Rotational constants in MHz :         13620.884993          3861.529232          3066.713228

                             ****ORCA TERMINATED NORMALLY****
TOTAL RUN TIME: 0 days 0 hours 0 minutes 6 seconds 42 msec
