                         Program Version 6.0.1  -  RELEASE   -
|  1> ! pbe def2-sv(p) def2/J RI DEFGRID1 loosescf d4 GCP(DFT/SV(P)) printgap
|  2> %output
|  3>     printlevel normal
|  4> end
|  5> * xyz 0 1
|  6> C 0.5305522993 -0.8907819452 -1.257511342
|  7> C 0.4027378073 -0.0205304972 1.78286e-05
|  8> C 1.5011229174 1.0470779058 0.0010571429
|  9> C 0.5292848433 -0.8920086052 1.2567969936
| 10> O -0.8080516153 0.737240892 -0.0002807033
| 11> C -2.022108986 0.0323236597 -8.39529e-05
| 12> H 1.5373676306 -1.2939846077 -1.3214496558
| 13> H -0.168595019 -1.7235999307 -1.2352734986
| 14> H 0.3357809664 -0.2912666237 -2.143812933
| 15> H 1.3994240042 1.6744574475 0.8820082461
| 16> H 1.3999538601 1.6755802957 -0.8791524169
| 17> H 2.4841591111 0.585416205 0.001053155
| 18> H 0.3326624494 -0.2935774406 2.1434347971
| 19> H -0.1691700962 -1.7253674931 1.2325580801
| 20> H 1.5363280676 -1.2944558698 1.321926176
| 21> H -2.1403206692 -0.5927801588 -0.8916355909
| 22> H -2.8003916728 0.7945101934 -0.001108598
| 23> H -2.1409708717 -0.5910457476 0.8926110838
| 24> *
| 25>
| 26>                          ****END OF INPUT****

CARTESIAN COORDINATES (ANGSTROEM)
---------------------------------
  C      0.530552   -0.890782   -1.257511
  C      0.402738   -0.020530    0.000018
  C      1.501123    1.047078    0.001057
  C      0.529285   -0.892009    1.256797
  O     -0.808052    0.737241   -0.000281
  C     -2.022109    0.032324   -0.000084
  H      1.537368   -1.293985   -1.321450
  H     -0.168595   -1.723600   -1.235273
  H      0.335781   -0.291267   -2.143813
  H      1.399424    1.674457    0.882008
  H      1.399954    1.675580   -0.879152
  H      2.484159    0.585416    0.001053
  H      0.332662   -0.293577    2.143435
  H     -0.169170   -1.725367    1.232558
  H      1.536328   -1.294456    1.321926
  H     -2.140321   -0.592780   -0.891636
  H     -2.800392    0.794510   -0.001109
  H     -2.140971   -0.591046    0.892611

 Total Charge           Charge          ....    0
 Multiplicity           Mult            ....    1
 Number of Electrons    NEL             ....   50
 Basis Dimension        Dim             ....  108

ORBITAL ENERGIES
----------------

  NO   OCC          E(Eh)            E(eV)
   0   2.0000     -18.742038      -509.9968
   1   2.0000      -9.946224      -270.6505
   2   2.0000      -9.918318      -269.8912
   3   2.0000      -9.873189      -268.6631
   4   2.0000      -9.873173      -268.6627
   5   2.0000      -9.867904      -268.5193
   6   2.0000      -0.925119       -25.1738
   7   2.0000      -0.717384       -19.5210
   8   2.0000      -0.623237       -16.9591
   9   2.0000      -0.616591       -16.7783
  10   2.0000      -0.596859       -16.2414
  11   2.0000      -0.487027       -13.2527
  12   2.0000      -0.433390       -11.7931
  13   2.0000      -0.411819       -11.2062
  14   2.0000      -0.407440       -11.0870
  15   2.0000      -0.381939       -10.3931
  16   2.0000      -0.367210        -9.9923
  17   2.0000      -0.353031        -9.6065
  18   2.0000      -0.338111        -9.2005
  19   2.0000      -0.329382        -8.9629
  20   2.0000      -0.320236        -8.7141
  21   2.0000      -0.297723        -8.1014
  22   2.0000      -0.296593        -8.0707
  23   2.0000      -0.247642        -6.7387
  24   2.0000      -0.199390        -5.4257
  25   0.0000       0.031486         0.8568
  26   0.0000       0.061696         1.6788
  27   0.0000       0.079787         2.1711
  28   0.0000       0.083776         2.2797
  29   0.0000       0.101926         2.7736

MULLIKEN ATOMIC CHARGES
-----------------------
   0 C :   -0.237049
   1 C :   -0.061163
   2 C :   -0.210538
   3 C :   -0.237177
   4 O :   -0.325216
   5 C :   -0.105757
   6 H :    0.097129
   7 H :    0.100900
   8 H :    0.103905
   9 H :    0.100150
  10 H :    0.100165
  11 H :    0.090400
  12 H :    0.103944
  13 H :    0.100907
  14 H :    0.097160
  15 H :    0.085728
  16 H :    0.110757
  17 H :    0.085754
Sum of atomic charges:   -0.0000000

LOEWDIN ATOMIC CHARGES
----------------------
   0 C :   -0.337214
   1 C :   -0.012180
   2 C :   -0.325966
   3 C :   -0.337219
   4 O :   -0.165449
   5 C :   -0.211170
   6 H :    0.124087
   7 H :    0.115873
   8 H :    0.122582
   9 H :    0.121166
  10 H :    0.121175
  11 H :    0.117861
  12 H :    0.122592
  13 H :    0.115881
  14 H :    0.124100
  15 H :    0.094441
  16 H :    0.114995
  17 H :    0.094445

  Mayer bond orders larger than 0.100000
B(  0-C ,  1-C ) :   1.0771 B(  0-C ,  6-H ) :   0.9425 B(  0-C ,  7-H ) :   0.9395
B(  0-C ,  8-H ) :   0.9409 B(  1-C ,  2-C ) :   1.0777 B(  1-C ,  3-C ) :   1.0770
B(  1-C ,  4-O ) :   1.0169 B(  2-C ,  9-H ) :   0.9455 B(  2-C , 10-H ) :   0.9455
B(  2-C , 11-H ) :   0.9447 B(  3-C , 12-H ) :   0.9409 B(  3-C , 13-H ) :   0.9395
B(  3-C , 14-H ) :   0.9425 B(  4-O ,  5-C ) :   1.0304 B(  5-C , 15-H ) :   0.9370
B(  5-C , 16-H ) :   0.9643 B(  5-C , 17-H ) :   0.9370

Dispersion correction           -0.013671429
FINAL SINGLE POINT ENERGY      -272.302320541695

DIPOLE MOMENT
-------------

Method             : SCF
Type of density    : Electron Density
Multiplicity       :   1
Irrep              :   0
Energy             :  -272.3700813378987391 Eh
Relativity type    :
Basis              : AO
                                X                 Y                 Z
Electronic contribution:     -1.492976040       2.436664614      -0.000884259
Nuclear contribution   :      1.494912613      -2.874957030       0.001083020
                        -----------------------------------------
Total Dipole Moment    :      0.001936572      -0.438292416       0.000198762
                        -----------------------------------------
Magnitude (a.u.)       :      0.438296739
Magnitude (Debye)      :      1.114061776

Rotational constants in cm-1:             0.146784             0.091289             0.090860
Rotational constants in MHz :          4400.486713          2736.767895          2723.928433

                             ****ORCA TERMINATED NORMALLY****
TOTAL RUN TIME: 0 days 0 hours 0 minutes 12 seconds 866 msec
