                         Program Version 6.0.1  -  RELEASE   -
|  1> ! pbe def2-sv(p) def2/J RI DEFGRID1 loosescf d4 GCP(DFT/SV(P)) printgap
|  2> %output
|  3>     printlevel normal
|  4> end
|  5> * xyz 0 1
|  6> C -2.3263406589 -1.212898786 0.1362347025
|  7> N -1.60876331 0.0387495767 0.1944377013
|  8> C -2.3642363226 1.1549448694 -0.3274697826
|  9> C -0.2266840268 0.0224992611 0.066872915
| 10> C 0.5239516328 1.2019032318 0.1594846978
| 11> C 1.9022888987 1.1813177454 0.101682238
| 12> C 2.5894531183 -0.0110365849 -0.0495201524
| 13> C 1.8652333664 -1.1854002438 -0.1405710549
| 14> C 0.4844421673 -1.17416837 -0.0868619543
| 15> H -3.3631432039 -1.0318791139 0.4186311138
| 16> H -1.9021137469 -1.9160378436 0.8517358456
| 17> H -2.3172646791 -1.6682268239 -0.8635569286
| 18> H -1.9074097393 2.0997549041 -0.0501895568
| 19> H -3.3673977813 1.1324870804 0.0990288852
| 20> H -2.4517703515 1.1181148044 -1.4221811637
| 21> H 0.034434184 2.1534024195 0.2940985476
| 22> H 2.4463192025 2.1121232559 0.1784870472
| 23> H 3.667705194 -0.0229723869 -0.0958831215
| 24> H 2.3783014323 -2.1288627944 -0.2633728876
| 25> H -0.0345691695 -2.1142354237 -0.1787535587
| 26> *
| 27>
| 28>                          ****END OF INPUT****

CARTESIAN COORDINATES (ANGSTROEM)
---------------------------------
  C     -2.326341   -1.212899    0.136235
  N     -1.608763    0.038750    0.194438
  C     -2.364236    1.154945   -0.327470
  C     -0.226684    0.022499    0.066873
  C      0.523952    1.201903    0.159485
  C      1.902289    1.181318    0.101682
  C      2.589453   -0.011037   -0.049520
  C      1.865233   -1.185400   -0.140571
  C      0.484442   -1.174168   -0.086862
  H     -3.363143   -1.031879    0.418631
  H     -1.902114   -1.916038    0.851736
  H     -2.317265   -1.668227   -0.863557
  H     -1.907410    2.099755   -0.050190
  H     -3.367398    1.132487    0.099029
  H     -2.451770    1.118115   -1.422181
  H      0.034434    2.153402    0.294099
  H      2.446319    2.112123    0.178487
  H      3.667705   -0.022972   -0.095883
  H      2.378301   -2.128863   -0.263373
  H     -0.034569   -2.114235   -0.178754

 Total Charge           Charge          ....    0
 Multiplicity           Mult            ....    1
 Number of Electrons    NEL             ....   66
 Basis Dimension        Dim             ....  148

ORBITAL ENERGIES
----------------

  NO   OCC          E(Eh)            E(eV)
   0   2.0000     -14.006632      -381.1398
   1   2.0000      -9.923672      -270.0368
   2   2.0000      -9.914470      -269.7865
   3   2.0000      -9.913206      -269.7520
   4   2.0000      -9.881433      -268.8874
   5   2.0000      -9.881350      -268.8852
   6   2.0000      -9.878257      -268.8010
   7   2.0000      -9.877691      -268.7856
   8   2.0000      -9.873132      -268.6616
   9   2.0000      -0.860204       -23.4074
  10   2.0000      -0.757897       -20.6234
  11   2.0000      -0.666946       -18.1485
  12   2.0000      -0.666550       -18.1378
  13   2.0000      -0.642853       -17.4929
  14   2.0000      -0.587437       -15.9850
  15   2.0000      -0.531168       -14.4538
  16   2.0000      -0.510123       -13.8811
  17   2.0000      -0.476820       -12.9749
  18   2.0000      -0.428085       -11.6488
  19   2.0000      -0.420875       -11.4526
  20   2.0000      -0.417540       -11.3618
  21   2.0000      -0.391956       -10.6657
  22   2.0000      -0.372972       -10.1491
  23   2.0000      -0.366964        -9.9856
  24   2.0000      -0.356487        -9.7005
  25   2.0000      -0.348963        -9.4958
  26   2.0000      -0.334500        -9.1022
  27   2.0000      -0.323697        -8.8082
  28   2.0000      -0.305652        -8.3172
  29   2.0000      -0.286814        -7.8046
  30   2.0000      -0.247204        -6.7268
  31   2.0000      -0.218285        -5.9398
  32   2.0000      -0.162931        -4.4336
  33   0.0000      -0.023444        -0.6380
  34   0.0000      -0.010923        -0.2972
  35   0.0000       0.034977         0.9518
  36   0.0000       0.055946         1.5224
  37   0.0000       0.069482         1.8907

MULLIKEN ATOMIC CHARGES
-----------------------
   0 C :   -0.172009
   1 N :   -0.253243
   2 C :   -0.177156
   3 C :    0.262568
   4 C :   -0.163636
   5 C :   -0.061246
   6 C :   -0.050961
   7 C :   -0.056134
   8 C :   -0.175524
   9 H :    0.107859
  10 H :    0.123761
  11 H :    0.095214
  12 H :    0.128858
  13 H :    0.106672
  14 H :    0.095624
  15 H :    0.028132
  16 H :    0.045063
  17 H :    0.041822
  18 H :    0.045279
  19 H :    0.029058
Sum of atomic charges:   -0.0000000

LOEWDIN ATOMIC CHARGES
----------------------
   0 C :   -0.252346
   1 N :   -0.077902
   2 C :   -0.246379
   3 C :    0.006184
   4 C :   -0.155536
   5 C :   -0.119314
   6 C :   -0.156581
   7 C :   -0.117885
   8 C :   -0.168343
   9 H :    0.118195
  10 H :    0.122153
  11 H :    0.103037
  12 H :    0.120229
  13 H :    0.116393
  14 H :    0.104371
  15 H :    0.120352
  16 H :    0.120732
  17 H :    0.119210
  18 H :    0.120734
  19 H :    0.122698

  Mayer bond orders larger than 0.100000
B(  0-C ,  1-N ) :   1.0529 B(  0-C ,  9-H ) :   0.9482 B(  0-C , 10-H ) :   0.9427
B(  0-C , 11-H ) :   0.9338 B(  1-N ,  2-C ) :   1.0353 B(  1-N ,  3-C ) :   1.1183
B(  2-C , 12-H ) :   0.9437 B(  2-C , 13-H ) :   0.9528 B(  2-C , 14-H ) :   0.9391
B(  3-C ,  4-C ) :   1.3089 B(  3-C ,  8-C ) :   1.3157 B(  4-C ,  5-C ) :   1.4188
B(  4-C , 15-H ) :   0.9570 B(  5-C ,  6-C ) :   1.3548 B(  5-C , 16-H ) :   0.9596
B(  6-C ,  7-C ) :   1.3752 B(  6-C , 17-H ) :   0.9682 B(  7-C ,  8-C ) :   1.3767
B(  7-C , 18-H ) :   0.9607 B(  8-C , 19-H ) :   0.9573

Dispersion correction           -0.020401159
FINAL SINGLE POINT ENERGY      -365.378364051388

DIPOLE MOMENT
-------------

Method             : SCF
Type of density    : Electron Density
Multiplicity       :   1
Irrep              :   0
Energy             :  -365.4394583443684610 Eh
Relativity type    :
Basis              : AO
                                X                 Y                 Z
Electronic contribution:      5.680061568       0.258746496       0.874996239
Nuclear contribution   :     -6.404222632      -0.249651669      -0.967082049
                        -----------------------------------------
Total Dipole Moment    :     -0.724161064       0.009094827      -0.092085810
                        -----------------------------------------
Magnitude (a.u.)       :      0.730049148
Magnitude (Debye)      :      1.855637465

Rotational constants in cm-1:             0.119640             0.040654             0.031107
Rotational constants in MHz :          3586.722567          1218.789009           932.574144

                             ****ORCA TERMINATED NORMALLY****
TOTAL RUN TIME: 0 days 0 hours 0 minutes 9 seconds 113 msec
