                         Program Version 6.0.1  -  RELEASE   -
|  1> ! pbe def2-sv(p) def2/J RI DEFGRID1 loosescf d4 GCP(DFT/SV(P)) printgap
|  2> %output
|  3>     printlevel normal
|  4> end
|  5> * xyz 0 1
|  6> C -2.9715334454 1.2534528487 0.0001543158
|  7> C -1.7469384891 0.3875763247 -0.0001048375
|  8> C -1.8362066894 -0.9911068533 -0.0001772083
|  9> C -0.6861436959 -1.7672006501 -9.94457e-05
| 10> C 0.5649914547 -1.1815008648 3.05775e-05
| 11> C 0.6716459539 0.2228112643 7.34173e-05
| 12> C -0.4859895166 0.9814896519 3.33814e-05
| 13> O 1.9399047251 0.7212164516 0.0001305526
| 14> C 2.1084874167 2.1147577745 -0.000185624
| 15> O 1.7156044871 -1.9127301087 8.41756e-05
| 16> H -3.8736561246 0.6475704927 -0.0040688549
| 17> H -2.9867331682 1.8919992885 0.8827122221
| 18> H -2.9826911109 1.8985384816 -0.8776530694
| 19> H -2.8020466663 -1.4733970993 -0.0003042571
| 20> H -0.7633468047 -2.8466968314 -0.0001689261
| 21> H -0.428102717 2.0588914209 0.0001087517
| 22> H 3.1847750304 2.2802896407 -0.0004415884
| 23> H 1.6728998163 2.5752713621 0.8933627792
| 24> H 1.6725300028 2.5749052867 -0.8937396795
| 25> H 1.4947719812 -2.8518143682 6.62108e-05
| 26> *
| 27>
| 28>                          ****END OF INPUT****

CARTESIAN COORDINATES (ANGSTROEM)
---------------------------------
  C     -2.971533    1.253453    0.000154
  C     -1.746938    0.387576   -0.000105
  C     -1.836207   -0.991107   -0.000177
  C     -0.686144   -1.767201   -0.000099
  C      0.564991   -1.181501    0.000031
  C      0.671646    0.222811    0.000073
  C     -0.485990    0.981490    0.000033
  O      1.939905    0.721216    0.000131
  C      2.108487    2.114758   -0.000186
  O      1.715604   -1.912730    0.000084
  H     -3.873656    0.647570   -0.004069
  H     -2.986733    1.891999    0.882712
  H     -2.982691    1.898538   -0.877653
  H     -2.802047   -1.473397   -0.000304
  H     -0.763347   -2.846697   -0.000169
  H     -0.428103    2.058891    0.000109
  H      3.184775    2.280290   -0.000442
  H      1.672900    2.575271    0.893363
  H      1.672530    2.574905   -0.893740
  H      1.494772   -2.851814    0.000066

 Total Charge           Charge          ....    0
 Multiplicity           Mult            ....    1
 Number of Electrons    NEL             ....   74
 Basis Dimension        Dim             ....  160

ORBITAL ENERGIES
----------------

  NO   OCC          E(Eh)            E(eV)
   0   2.0000     -18.780877      -511.0537
   1   2.0000     -18.774741      -510.8867
   2   2.0000      -9.943368      -270.5728
   3   2.0000      -9.943176      -270.5676
   4   2.0000      -9.936229      -270.3785
   5   2.0000      -9.889819      -269.1157
   6   2.0000      -9.884883      -268.9813
   7   2.0000      -9.881927      -268.9009
   8   2.0000      -9.878728      -268.8139
   9   2.0000      -9.877751      -268.7873
  10   2.0000      -0.970419       -26.4065
  11   2.0000      -0.950242       -25.8574
  12   2.0000      -0.767928       -20.8964
  13   2.0000      -0.691393       -18.8138
  14   2.0000      -0.672005       -18.2862
  15   2.0000      -0.630856       -17.1665
  16   2.0000      -0.601790       -16.3755
  17   2.0000      -0.552996       -15.0478
  18   2.0000      -0.519258       -14.1297
  19   2.0000      -0.493250       -13.4220
  20   2.0000      -0.458226       -12.4690
  21   2.0000      -0.439961       -11.9720
  22   2.0000      -0.417258       -11.3542
  23   2.0000      -0.402909       -10.9637
  24   2.0000      -0.386500       -10.5172
  25   2.0000      -0.373263       -10.1570
  26   2.0000      -0.371494       -10.1089
  27   2.0000      -0.353730        -9.6255
  28   2.0000      -0.349379        -9.5071
  29   2.0000      -0.330010        -8.9800
  30   2.0000      -0.310177        -8.4404
  31   2.0000      -0.296409        -8.0657
  32   2.0000      -0.290460        -7.9038
  33   2.0000      -0.275614        -7.4998
  34   2.0000      -0.269007        -7.3201
  35   2.0000      -0.204890        -5.5754
  36   2.0000      -0.171037        -4.6542
  37   0.0000      -0.020744        -0.5645
  38   0.0000      -0.007556        -0.2056
  39   0.0000       0.028190         0.7671
  40   0.0000       0.043994         1.1972
  41   0.0000       0.058211         1.5840

MULLIKEN ATOMIC CHARGES
-----------------------
   0 C :   -0.224375
   1 C :    0.085766
   2 C :   -0.127903
   3 C :   -0.188510
   4 C :    0.193133
   5 C :    0.228946
   6 C :   -0.307417
   7 O :   -0.255227
   8 C :   -0.113418
   9 O :   -0.327551
  10 H :    0.097548
  11 H :    0.109315
  12 H :    0.109172
  13 H :    0.028092
  14 H :    0.019851
  15 H :    0.019980
  16 H :    0.124519
  17 H :    0.106935
  18 H :    0.106935
  19 H :    0.314206
Sum of atomic charges:   -0.0000000

LOEWDIN ATOMIC CHARGES
----------------------
   0 C :   -0.321869
   1 C :   -0.062694
   2 C :   -0.142693
   3 C :   -0.175554
   4 C :    0.004459
   5 C :    0.013424
   6 C :   -0.171891
   7 O :   -0.080183
   8 C :   -0.203759
   9 O :   -0.232279
  10 H :    0.122653
  11 H :    0.127756
  12 H :    0.127684
  13 H :    0.119325
  14 H :    0.119608
  15 H :    0.124348
  16 H :    0.121621
  17 H :    0.106901
  18 H :    0.106904
  19 H :    0.296239

  Mayer bond orders larger than 0.100000
B(  0-C ,  1-C ) :   1.0948 B(  0-C , 10-H ) :   0.9462 B(  0-C , 11-H ) :   0.9375
B(  0-C , 12-H ) :   0.9376 B(  1-C ,  2-C ) :   1.4218 B(  1-C ,  6-C ) :   1.2935
B(  2-C ,  3-C ) :   1.2950 B(  2-C , 13-H ) :   0.9618 B(  3-C ,  4-C ) :   1.3637
B(  3-C , 14-H ) :   0.9630 B(  4-C ,  5-C ) :   1.3330 B(  4-C ,  9-O ) :   1.2115
B(  5-C ,  6-C ) :   1.3182 B(  5-C ,  7-O ) :   1.1702 B(  6-C , 15-H ) :   0.9701
B(  7-O ,  8-C ) :   0.9992 B(  8-C , 16-H ) :   0.9581 B(  8-C , 17-H ) :   0.9400
B(  8-C , 18-H ) :   0.9400 B(  9-O , 19-H ) :   0.8438

Dispersion correction           -0.020052392
FINAL SINGLE POINT ENERGY      -460.305513521815

DIPOLE MOMENT
-------------

Method             : SCF
Type of density    : Electron Density
Multiplicity       :   1
Irrep              :   0
Energy             :  -460.3726302361945955 Eh
Relativity type    :
Basis              : AO
                                X                 Y                 Z
Electronic contribution:      5.213205236      -6.232020492       0.000253874
Nuclear contribution   :     -5.398104236       6.320204758      -0.000115414
                        -----------------------------------------
Total Dipole Moment    :     -0.184899000       0.088184266       0.000138460
                        -----------------------------------------
Magnitude (a.u.)       :      0.204851469
Magnitude (Debye)      :      0.520691053

Rotational constants in cm-1:             0.062036             0.039691             0.024427
Rotational constants in MHz :          1859.780405          1189.891502           732.300498

                             ****ORCA TERMINATED NORMALLY****
TOTAL RUN TIME: 0 days 0 hours 0 minutes 6 seconds 3 msec
