                         Program Version 6.0.1  -  RELEASE   -
|  1> ! r2scan-3c def2/J RI DEFGRID2 scfconv6 printgap
|  2> %output
|  3>     printlevel normal
|  4> end
|  5> * xyz 0 1
|  6> C -1.6248186348 -0.4983923924 -1.7034e-06
|  7> C -0.6178463184 0.6522303989 -6.2306e-05
|  8> C 0.7445012122 0.1578169703 0.0001662435
|  9> C 1.8599011148 -0.2747829321 -6.05458e-05
| 10> H -2.6406554549 -0.1089715441 -0.0004714391
| 11> H -1.490229456 -1.1204275598 0.8822464216
| 12> H -1.4896368947 -1.1210271099 -0.8817378111
| 13> H -0.766090928 1.2773248038 0.8857440591
| 14> H -0.7659373358 1.2771260109 -0.8860390555
| 15> H 2.8417775754 -0.6434234779 -0.0002389687
| 16> *
| 17>
| 18>                          ****END OF INPUT****

CARTESIAN COORDINATES (ANGSTROEM)
---------------------------------
  C     -1.624819   -0.498392   -0.000002
  C     -0.617846    0.652230   -0.000062
  C      0.744501    0.157817    0.000166
  C      1.859901   -0.274783   -0.000061
  H     -2.640655   -0.108972   -0.000471
  H     -1.490229   -1.120428    0.882246
  H     -1.489637   -1.121027   -0.881738
  H     -0.766091    1.277325    0.885744
  H     -0.765937    1.277126   -0.886039
  H      2.841778   -0.643423   -0.000239

 Total Charge           Charge          ....    0
 Multiplicity           Mult            ....    1
 Number of Electrons    NEL             ....   30
 Basis Dimension        Dim             ....  106

ORBITAL ENERGIES
----------------

  NO   OCC          E(Eh)            E(eV)
   0   2.0000     -10.059310      -273.7277
   1   2.0000     -10.030665      -272.9483
   2   2.0000     -10.030420      -272.9416
   3   2.0000     -10.016325      -272.5581
   4   2.0000      -0.772686       -21.0259
   5   2.0000      -0.694426       -18.8963
   6   2.0000      -0.612358       -16.6631
   7   2.0000      -0.497787       -13.5455
   8   2.0000      -0.440227       -11.9792
   9   2.0000      -0.434613       -11.8264
  10   2.0000      -0.374541       -10.1918
  11   2.0000      -0.344305        -9.3690
  12   2.0000      -0.337613        -9.1869
  13   2.0000      -0.245156        -6.6710
  14   2.0000      -0.244400        -6.6505
  15   0.0000       0.024485         0.6663
  16   0.0000       0.028209         0.7676
  17   0.0000       0.089855         2.4451
  18   0.0000       0.130762         3.5582
  19   0.0000       0.134147         3.6503

MULLIKEN ATOMIC CHARGES
-----------------------
   0 C :   -0.431904
   1 C :   -0.421826
   2 C :    0.067012
   3 C :   -0.146897
   4 H :    0.150735
   5 H :    0.150701
   6 H :    0.150707
   7 H :    0.162056
   8 H :    0.162045
   9 H :    0.157372
Sum of atomic charges:    0.0000000

LOEWDIN ATOMIC CHARGES
----------------------
   0 C :   -0.401072
   1 C :   -0.285805
   2 C :   -0.084534
   3 C :   -0.217900
   4 H :    0.150427
   5 H :    0.157131
   6 H :    0.157135
   7 H :    0.172790
   8 H :    0.172795
   9 H :    0.179033

  Mayer bond orders larger than 0.100000
B(  0-C ,  1-C ) :   0.9153 B(  0-C ,  4-H ) :   0.9751 B(  0-C ,  5-H ) :   0.9717
B(  0-C ,  6-H ) :   0.9717 B(  1-C ,  2-C ) :   0.9772 B(  1-C ,  7-H ) :   0.9858
B(  1-C ,  8-H ) :   0.9858 B(  2-C ,  3-C ) :   2.6500 B(  3-C ,  9-H ) :   1.0372

Dispersion correction           -0.001761148
FINAL SINGLE POINT ENERGY      -155.910665981196

DIPOLE MOMENT
-------------

Method             : SCF
Type of density    : Electron Density
Multiplicity       :   1
Irrep              :   0
Energy             :  -155.9123022079173779 Eh
Relativity type    :
Basis              : AO
                                X                 Y                 Z
Electronic contribution:      3.697726141       0.484404028       0.000307933
Nuclear contribution   :     -4.044220230      -0.412229091      -0.000466075
                        -----------------------------------------
Total Dipole Moment    :     -0.346494089       0.072174937      -0.000158142
                        -----------------------------------------
Magnitude (a.u.)       :      0.353931350
Magnitude (Debye)      :      0.899621997

Rotational constants in cm-1:             0.901496             0.155401             0.139461
Rotational constants in MHz :         27026.180429          4658.792460          4180.925981

                             ****ORCA TERMINATED NORMALLY****
TOTAL RUN TIME: 0 days 0 hours 0 minutes 10 seconds 644 msec
