                         Program Version 6.0.1  -  RELEASE   -
|  1> ! pbe def2-sv(p) def2/J RI DEFGRID1 loosescf d4 GCP(DFT/SV(P)) printgap
|  2> %output
|  3>     printlevel normal
|  4> end
|  5> * xyz 0 1
|  6> C -1.8179253742 -1.0749371137 -0.6310848439
|  7> C -1.0178250417 -0.4782899797 0.5446208278
|  8> H -1.6437838781 -0.5300081249 1.4465870057
|  9> C -0.6988351271 1.006178708 0.3160723715
| 10> H -1.5396977778 1.4382181269 -0.2465070512
| 11> C 0.6003778495 1.239340818 -0.494494833
| 12> H 0.8799342635 2.2969057346 -0.3759255527
| 13> C 1.7275909203 0.3738872608 0.0936534299
| 14> H 2.6140806025 0.4418894776 -0.5454010194
| 15> C 1.2732519758 -1.0988851012 0.135105833
| 16> H 2.0281250458 -1.6837803452 0.6830894955
| 17> O 0.1067340021 -1.2773524611 0.8845329073
| 18> O 1.1442713021 -1.5629999178 -1.1851015354
| 19> O 2.1091790745 0.8030042886 1.3680230783
| 20> O 0.4240574483 1.0333295356 -1.8669518717
| 21> O -0.5977982063 1.6028800058 1.5972144157
| 22> O -3.1045466238 -0.5249373914 -0.7182975456
| 23> H -1.8594088153 -2.1659922172 -0.4964115729
| 24> H -1.3406256963 -0.8507635431 -1.5862784452
| 25> H 0.8944546844 -2.4944896318 -1.1697189706
| 26> H 1.31642583 0.8148588783 1.928863295
| 27> H 0.6002449355 0.1013315775 -2.061266321
| 28> H -0.4594607812 2.5514632216 1.4938168636
| 29> H -3.584403135 -0.7033576784 0.0989711576
| 30> *
| 31>
| 32>                          ****END OF INPUT****

CARTESIAN COORDINATES (ANGSTROEM)
---------------------------------
  C     -1.817925   -1.074937   -0.631085
  C     -1.017825   -0.478290    0.544621
  H     -1.643784   -0.530008    1.446587
  C     -0.698835    1.006179    0.316072
  H     -1.539698    1.438218   -0.246507
  C      0.600378    1.239341   -0.494495
  H      0.879934    2.296906   -0.375926
  C      1.727591    0.373887    0.093653
  H      2.614081    0.441889   -0.545401
  C      1.273252   -1.098885    0.135106
  H      2.028125   -1.683780    0.683089
  O      0.106734   -1.277352    0.884533
  O      1.144271   -1.563000   -1.185102
  O      2.109179    0.803004    1.368023
  O      0.424057    1.033330   -1.866952
  O     -0.597798    1.602880    1.597214
  O     -3.104547   -0.524937   -0.718298
  H     -1.859409   -2.165992   -0.496412
  H     -1.340626   -0.850764   -1.586278
  H      0.894455   -2.494490   -1.169719
  H      1.316426    0.814859    1.928863
  H      0.600245    0.101332   -2.061266
  H     -0.459461    2.551463    1.493817
  H     -3.584403   -0.703358    0.098971

 Total Charge           Charge          ....    0
 Multiplicity           Mult            ....    1
 Number of Electrons    NEL             ....   96
 Basis Dimension        Dim             ....  192

ORBITAL ENERGIES
----------------

  NO   OCC          E(Eh)            E(eV)
   0   2.0000     -18.788415      -511.2588
   1   2.0000     -18.778832      -510.9980
   2   2.0000     -18.770834      -510.7804
   3   2.0000     -18.757442      -510.4160
   4   2.0000     -18.744938      -510.0757
   5   2.0000     -18.744600      -510.0665
   6   2.0000      -9.993393      -271.9340
   7   2.0000      -9.951893      -270.8048
   8   2.0000      -9.946348      -270.6539
   9   2.0000      -9.943107      -270.5657
  10   2.0000      -9.942736      -270.5556
  11   2.0000      -9.937796      -270.4212
  12   2.0000      -0.996929       -27.1278
  13   2.0000      -0.950680       -25.8693
  14   2.0000      -0.936503       -25.4835
  15   2.0000      -0.929784       -25.3007
  16   2.0000      -0.927263       -25.2321
  17   2.0000      -0.918773       -25.0011
  18   2.0000      -0.708351       -19.2752
  19   2.0000      -0.688527       -18.7358
  20   2.0000      -0.625288       -17.0150
  21   2.0000      -0.592524       -16.1234
  22   2.0000      -0.586320       -15.9546
  23   2.0000      -0.530482       -14.4352
  24   2.0000      -0.511797       -13.9267
  25   2.0000      -0.486524       -13.2390
  26   2.0000      -0.476862       -12.9761
  27   2.0000      -0.467052       -12.7091
  28   2.0000      -0.447773       -12.1845
  29   2.0000      -0.438522       -11.9328
  30   2.0000      -0.419143       -11.4055
  31   2.0000      -0.405556       -11.0357
  32   2.0000      -0.385223       -10.4825
  33   2.0000      -0.376119       -10.2347
  34   2.0000      -0.365477        -9.9451
  35   2.0000      -0.361294        -9.8313
  36   2.0000      -0.338695        -9.2164
  37   2.0000      -0.328871        -8.9490
  38   2.0000      -0.315166        -8.5761
  39   2.0000      -0.300710        -8.1827
  40   2.0000      -0.282138        -7.6774
  41   2.0000      -0.273832        -7.4514
  42   2.0000      -0.267030        -7.2662
  43   2.0000      -0.254629        -6.9288
  44   2.0000      -0.242433        -6.5969
  45   2.0000      -0.227138        -6.1808
  46   2.0000      -0.217723        -5.9246
  47   2.0000      -0.200522        -5.4565
  48   0.0000       0.008312         0.2262
  49   0.0000       0.015341         0.4174
  50   0.0000       0.020081         0.5464
  51   0.0000       0.053720         1.4618
  52   0.0000       0.064542         1.7563

MULLIKEN ATOMIC CHARGES
-----------------------
   0 C :    0.032980
   1 C :    0.027047
   2 H :    0.071996
   3 C :    0.023680
   4 H :    0.087807
   5 C :    0.040626
   6 H :    0.064408
   7 C :    0.032143
   8 H :    0.088638
   9 C :    0.172134
  10 H :    0.078606
  11 O :   -0.306270
  12 O :   -0.413116
  13 O :   -0.424699
  14 O :   -0.416586
  15 O :   -0.419543
  16 O :   -0.421559
  17 H :    0.071540
  18 H :    0.077028
  19 H :    0.313799
  20 H :    0.297257
  21 H :    0.317213
  22 H :    0.307483
  23 H :    0.297389
Sum of atomic charges:    0.0000000

LOEWDIN ATOMIC CHARGES
----------------------
   0 C :   -0.143807
   1 C :   -0.070694
   2 H :    0.116851
   3 C :   -0.080506
   4 H :    0.115015
   5 C :   -0.078226
   6 H :    0.107903
   7 C :   -0.083973
   8 H :    0.122495
   9 C :   -0.010168
  10 H :    0.105112
  11 O :   -0.136733
  12 O :   -0.311221
  13 O :   -0.313196
  14 O :   -0.315831
  15 O :   -0.312327
  16 O :   -0.323508
  17 H :    0.093860
  18 H :    0.110943
  19 H :    0.292000
  20 H :    0.269658
  21 H :    0.273402
  22 H :    0.289132
  23 H :    0.283820

  Mayer bond orders larger than 0.100000
B(  0-C ,  1-C ) :   1.0371 B(  0-C , 16-O ) :   1.0543 B(  0-C , 17-H ) :   0.9124
B(  0-C , 18-H ) :   0.9013 B(  1-C ,  2-H ) :   0.8937 B(  1-C ,  3-C ) :   0.9961
B(  1-C , 11-O ) :   0.9903 B(  3-C ,  4-H ) :   0.8827 B(  3-C ,  5-C ) :   0.9577
B(  3-C , 15-O ) :   1.0090 B(  5-C ,  6-H ) :   0.9044 B(  5-C ,  7-C ) :   0.9840
B(  5-C , 14-O ) :   1.0920 B(  7-C ,  8-H ) :   0.8925 B(  7-C ,  9-C ) :   0.9918
B(  7-C , 13-O ) :   1.0659 B(  9-C , 10-H ) :   0.9050 B(  9-C , 11-O ) :   1.0703
B(  9-C , 12-O ) :   1.0610 B( 12-O , 19-H ) :   0.8299 B( 13-O , 20-H ) :   0.8101
B( 14-O , 21-H ) :   0.7988 B( 15-O , 22-H ) :   0.8402 B( 16-O , 23-H ) :   0.8500

Dispersion correction           -0.025987991
FINAL SINGLE POINT ENERGY      -685.699247401586

DIPOLE MOMENT
-------------

Method             : SCF
Type of density    : Electron Density
Multiplicity       :   1
Irrep              :   0
Energy             :  -685.8328942111231754 Eh
Relativity type    :
Basis              : AO
                                X                 Y                 Z
Electronic contribution:      1.532631453       0.097933677       1.121020409
Nuclear contribution   :     -1.963422594      -0.734171782      -0.777674557
                        -----------------------------------------
Total Dipole Moment    :     -0.430791141      -0.636238105       0.343345852
                        -----------------------------------------
Magnitude (a.u.)       :      0.841585592
Magnitude (Debye)      :      2.139140574

Rotational constants in cm-1:             0.040793             0.028550             0.024715
Rotational constants in MHz :          1222.953654           855.894141           740.930181

                             ****ORCA TERMINATED NORMALLY****
TOTAL RUN TIME: 0 days 0 hours 0 minutes 8 seconds 21 msec
