                         Program Version 6.0.1  -  RELEASE   -
|  1> ! r2scan-3c def2/J RI DEFGRID2 scfconv6 printgap
|  2> %output
|  3>     printlevel normal
|  4> end
|  5> * xyz 0 1
|  6> C -0.6116176039 0.0191175648 0.4635046524
|  7> C 0.6115577351 -0.0027187582 -0.463866837
|  8> O 1.8234579915 0.0496991708 0.2431322854
|  9> O -1.8237207722 0.0243181549 -0.2452328465
| 10> H -0.6065618908 0.9345679695 1.0589685688
| 11> H -0.5646286363 -0.8431332664 1.1498167265
| 12> H 0.6007112549 0.8782095206 -1.1092453422
| 13> H 0.5701520966 -0.9020358703 -1.1012711915
| 14> H 1.8623483342 -0.6897843775 0.8604553325
| 15> H -1.8571363311 -0.7481968967 -0.8210636949
| 16> *
| 17>
| 18>                          ****END OF INPUT****

CARTESIAN COORDINATES (ANGSTROEM)
---------------------------------
  C     -0.611618    0.019118    0.463505
  C      0.611558   -0.002719   -0.463867
  O      1.823458    0.049699    0.243132
  O     -1.823721    0.024318   -0.245233
  H     -0.606562    0.934568    1.058969
  H     -0.564629   -0.843133    1.149817
  H      0.600711    0.878210   -1.109245
  H      0.570152   -0.902036   -1.101271
  H      1.862348   -0.689784    0.860455
  H     -1.857136   -0.748197   -0.821064

 Total Charge           Charge          ....    0
 Multiplicity           Mult            ....    1
 Number of Electrons    NEL             ....   34
 Basis Dimension        Dim             ....  116

ORBITAL ENERGIES
----------------

  NO   OCC          E(Eh)            E(eV)
   0   2.0000     -18.958110      -515.8764
   1   2.0000     -18.958096      -515.8760
   2   2.0000     -10.081706      -274.3372
   3   2.0000     -10.081585      -274.3339
   4   2.0000      -1.002490       -27.2791
   5   2.0000      -0.991613       -26.9832
   6   2.0000      -0.700630       -19.0651
   7   2.0000      -0.604123       -16.4390
   8   2.0000      -0.501790       -13.6544
   9   2.0000      -0.469129       -12.7656
  10   2.0000      -0.435380       -11.8473
  11   2.0000      -0.390691       -10.6313
  12   2.0000      -0.382842       -10.4177
  13   2.0000      -0.324013        -8.8168
  14   2.0000      -0.303828        -8.2676
  15   2.0000      -0.260920        -7.1000
  16   2.0000      -0.233718        -6.3598
  17   0.0000       0.038811         1.0561
  18   0.0000       0.064380         1.7519
  19   0.0000       0.120747         3.2857
  20   0.0000       0.135658         3.6914
  21   0.0000       0.151684         4.1275

MULLIKEN ATOMIC CHARGES
-----------------------
   0 C :   -0.141525
   1 C :   -0.141737
   2 O :   -0.414100
   3 O :   -0.414141
   4 H :    0.147888
   5 H :    0.114159
   6 H :    0.147894
   7 H :    0.114149
   8 H :    0.293712
   9 H :    0.293701
Sum of atomic charges:   -0.0000000

LOEWDIN ATOMIC CHARGES
----------------------
   0 C :    0.012254
   1 C :    0.012252
   2 O :   -0.607647
   3 O :   -0.607674
   4 H :    0.181094
   5 H :    0.150319
   6 H :    0.181101
   7 H :    0.150311
   8 H :    0.263994
   9 H :    0.263996

  Mayer bond orders larger than 0.100000
B(  0-C ,  1-C ) :   0.9237 B(  0-C ,  3-O ) :   0.9489 B(  0-C ,  4-H ) :   0.9636
B(  0-C ,  5-H ) :   0.9707 B(  1-C ,  2-O ) :   0.9489 B(  1-C ,  6-H ) :   0.9636
B(  1-C ,  7-H ) :   0.9707 B(  2-O ,  8-H ) :   0.8954 B(  3-O ,  9-H ) :   0.8954

Dispersion correction           -0.001553346
FINAL SINGLE POINT ENERGY      -230.206411846004

DIPOLE MOMENT
-------------

Method             : SCF
Type of density    : Electron Density
Multiplicity       :   1
Irrep              :   0
Energy             :  -230.2122064817353362 Eh
Relativity type    :
Basis              : AO
                                X                 Y                 Z
Electronic contribution:     -0.001381701       0.452746538      -0.012346343
Nuclear contribution   :      0.004578890      -1.284541699       0.035300613
                        -----------------------------------------
Total Dipole Moment    :      0.003197189      -0.831795161       0.022954270
                        -----------------------------------------
Magnitude (a.u.)       :      0.832117967
Magnitude (Debye)      :      2.115075784

Rotational constants in cm-1:             0.983609             0.131076             0.122883
Rotational constants in MHz :         29487.852594          3929.550342          3683.946296

                             ****ORCA TERMINATED NORMALLY****
TOTAL RUN TIME: 0 days 0 hours 0 minutes 11 seconds 609 msec
