                         Program Version 6.0.1  -  RELEASE   -
|  1> ! pbe def2-sv(p) def2/J RI DEFGRID1 loosescf d4 GCP(DFT/SV(P)) printgap
|  2> %output
|  3>     printlevel normal
|  4> end
|  5> * xyz 0 1
|  6> C -2.996732805 1.2199609825 -0.0092140007
|  7> C -1.7519291311 0.3832153873 0.0067892166
|  8> C -1.8313422718 -1.0002882735 0.0054629112
|  9> C -0.6856803193 -1.7769225228 0.0015626745
| 10> C 0.5617608105 -1.1784952396 -0.0013172754
| 11> C 0.6539167576 0.2222224057 -0.0001958225
| 12> C -0.4982256076 0.9870642058 0.0034804661
| 13> O 1.9439084423 0.7125232608 -0.0014578124
| 14> C 2.1223991367 2.1052166934 0.0030462604
| 15> O 1.687677737 -1.9429887226 -0.0034307282
| 16> H -3.7467130866 0.8044065114 0.6604383447
| 17> H -2.7852065401 2.2428144844 0.2925044869
| 18> H -3.4214737079 1.2417144318 -1.0132455489
| 19> H -2.7984564056 -1.4800825851 0.0083067154
| 20> H -0.739526021 -2.8536269044 0.0020609992
| 21> H -0.4382565541 2.0646040513 0.0043920075
| 22> H 1.6905897046 2.5613995373 0.8996203011
| 23> H 1.6857048582 2.5680480233 -0.8876941037
| 24> H 3.1997047998 2.26530057 0.0007147145
| 25> H 2.4478738597 -1.3458771221 -0.0040710367
| 26> *
| 27>
| 28>                          ****END OF INPUT****

CARTESIAN COORDINATES (ANGSTROEM)
---------------------------------
  C     -2.996733    1.219961   -0.009214
  C     -1.751929    0.383215    0.006789
  C     -1.831342   -1.000288    0.005463
  C     -0.685680   -1.776923    0.001563
  C      0.561761   -1.178495   -0.001317
  C      0.653917    0.222222   -0.000196
  C     -0.498226    0.987064    0.003480
  O      1.943908    0.712523   -0.001458
  C      2.122399    2.105217    0.003046
  O      1.687678   -1.942989   -0.003431
  H     -3.746713    0.804407    0.660438
  H     -2.785207    2.242814    0.292504
  H     -3.421474    1.241714   -1.013246
  H     -2.798456   -1.480083    0.008307
  H     -0.739526   -2.853627    0.002061
  H     -0.438257    2.064604    0.004392
  H      1.690590    2.561400    0.899620
  H      1.685705    2.568048   -0.887694
  H      3.199705    2.265301    0.000715
  H      2.447874   -1.345877   -0.004071

 Total Charge           Charge          ....    0
 Multiplicity           Mult            ....    1
 Number of Electrons    NEL             ....   74
 Basis Dimension        Dim             ....  160

ORBITAL ENERGIES
----------------

  NO   OCC          E(Eh)            E(eV)
   0   2.0000     -18.797258      -511.4994
   1   2.0000     -18.770153      -510.7618
   2   2.0000      -9.947537      -270.6862
   3   2.0000      -9.946042      -270.6456
   4   2.0000      -9.941708      -270.5276
   5   2.0000      -9.891239      -269.1543
   6   2.0000      -9.886611      -269.0284
   7   2.0000      -9.880062      -268.8502
   8   2.0000      -9.878799      -268.8158
   9   2.0000      -9.878470      -268.8068
  10   2.0000      -0.980422       -26.6786
  11   2.0000      -0.947394       -25.7799
  12   2.0000      -0.769422       -20.9370
  13   2.0000      -0.692283       -18.8380
  14   2.0000      -0.675535       -18.3822
  15   2.0000      -0.636802       -17.3282
  16   2.0000      -0.603337       -16.4176
  17   2.0000      -0.543876       -14.7996
  18   2.0000      -0.525380       -14.2963
  19   2.0000      -0.499387       -13.5890
  20   2.0000      -0.466220       -12.6865
  21   2.0000      -0.434802       -11.8316
  22   2.0000      -0.427392       -11.6299
  23   2.0000      -0.397993       -10.8299
  24   2.0000      -0.394430       -10.7330
  25   2.0000      -0.376707       -10.2507
  26   2.0000      -0.374223       -10.1831
  27   2.0000      -0.354869        -9.6565
  28   2.0000      -0.349706        -9.5160
  29   2.0000      -0.326888        -8.8951
  30   2.0000      -0.321166        -8.7394
  31   2.0000      -0.295529        -8.0418
  32   2.0000      -0.293867        -7.9965
  33   2.0000      -0.289299        -7.8722
  34   2.0000      -0.271370        -7.3843
  35   2.0000      -0.208653        -5.6777
  36   2.0000      -0.172582        -4.6962
  37   0.0000      -0.019851        -0.5402
  38   0.0000      -0.011278        -0.3069
  39   0.0000       0.035431         0.9641
  40   0.0000       0.041618         1.1325
  41   0.0000       0.063553         1.7294

MULLIKEN ATOMIC CHARGES
-----------------------
   0 C :   -0.226998
   1 C :    0.075639
   2 C :   -0.109214
   3 C :   -0.162610
   4 C :    0.167462
   5 C :    0.225794
   6 C :   -0.294327
   7 O :   -0.310843
   8 C :   -0.110610
   9 O :   -0.331801
  10 H :    0.107928
  11 H :    0.097104
  12 H :    0.115593
  13 H :    0.030358
  14 H :    0.040234
  15 H :    0.019872
  16 H :    0.113010
  17 H :    0.113109
  18 H :    0.124072
  19 H :    0.316229
Sum of atomic charges:   -0.0000000

LOEWDIN ATOMIC CHARGES
----------------------
   0 C :   -0.321408
   1 C :   -0.064066
   2 C :   -0.134624
   3 C :   -0.146655
   4 C :    0.004109
   5 C :   -0.002447
   6 C :   -0.171699
   7 O :   -0.110878
   8 C :   -0.202331
   9 O :   -0.237895
  10 H :    0.127285
  11 H :    0.121013
  12 H :    0.130494
  13 H :    0.120285
  14 H :    0.131006
  15 H :    0.123358
  16 H :    0.110394
  17 H :    0.110342
  18 H :    0.121468
  19 H :    0.292246

  Mayer bond orders larger than 0.100000
B(  0-C ,  1-C ) :   1.0944 B(  0-C , 10-H ) :   0.9416 B(  0-C , 11-H ) :   0.9451
B(  0-C , 12-H ) :   0.9348 B(  1-C ,  2-C ) :   1.3927 B(  1-C ,  6-C ) :   1.3191
B(  2-C ,  3-C ) :   1.3194 B(  2-C , 13-H ) :   0.9712 B(  3-C ,  4-C ) :   1.3903
B(  3-C , 14-H ) :   0.9706 B(  4-C ,  5-C ) :   1.2878 B(  4-C ,  9-O ) :   1.2478
B(  5-C ,  6-C ) :   1.2889 B(  5-C ,  7-O ) :   1.0792 B(  6-C , 15-H ) :   0.9625
B(  7-O ,  8-C ) :   0.9879 B(  8-C , 16-H ) :   0.9418 B(  8-C , 17-H ) :   0.9418
B(  8-C , 18-H ) :   0.9580 B(  9-O , 19-H ) :   0.8235

Dispersion correction           -0.020107609
FINAL SINGLE POINT ENERGY      -460.310904844960

DIPOLE MOMENT
-------------

Method             : SCF
Type of density    : Electron Density
Multiplicity       :   1
Irrep              :   0
Energy             :  -460.3794762986187834 Eh
Relativity type    :
Basis              : AO
                                X                 Y                 Z
Electronic contribution:      4.839001919      -6.550214854       0.018928039
Nuclear contribution   :     -4.548626511       7.551578780      -0.034759488
                        -----------------------------------------
Total Dipole Moment    :      0.290375408       1.001363926      -0.015831449
                        -----------------------------------------
Magnitude (a.u.)       :      1.042735932
Magnitude (Debye)      :      2.650424107

Rotational constants in cm-1:             0.063438             0.039169             0.024439
Rotational constants in MHz :          1901.818587          1174.250064           732.675167

                             ****ORCA TERMINATED NORMALLY****
TOTAL RUN TIME: 0 days 0 hours 0 minutes 6 seconds 4 msec
