                         Program Version 6.0.1  -  RELEASE   -
|  1> ! pbe def2-sv(p) def2/J RI DEFGRID1 loosescf d4 GCP(DFT/SV(P)) printgap
|  2> %output
|  3>     printlevel normal
|  4> end
|  5> * xyz 0 1
|  6> C -0.781493389 -1.7131377199 5.12911e-05
|  7> C 0.5381981482 -1.3013617245 1.25335e-05
|  8> C 0.83971263 0.0597666535 -7.98158e-05
|  9> C -0.1899175044 0.9994576715 -8.70995e-05
| 10> C -1.5123605456 0.5813470598 -1.48611e-05
| 11> C -1.8042216733 -0.7829802976 3.52866e-05
| 12> O -2.5504578557 1.4546702248 5.8832e-06
| 13> C 2.2388221906 0.5017162686 -0.0001877922
| 14> O 3.2010523589 -0.2222602649 0.0002143975
| 15> H -1.0200307705 -2.7657631701 7.78919e-05
| 16> H 1.3507303669 -2.0110551798 3.78521e-05
| 17> H 0.0466324195 2.0562535857 -0.000139481
| 18> H -2.8392048835 -1.0858738737 4.59905e-05
| 19> H -2.2239328716 2.3627750982 -1.13623e-05
| 20> H 2.3575825899 1.6050806085 -0.0002846247
| 21> *
| 22>
| 23>                          ****END OF INPUT****

CARTESIAN COORDINATES (ANGSTROEM)
---------------------------------
  C     -0.781493   -1.713138    0.000051
  C      0.538198   -1.301362    0.000013
  C      0.839713    0.059767   -0.000080
  C     -0.189918    0.999458   -0.000087
  C     -1.512361    0.581347   -0.000015
  C     -1.804222   -0.782980    0.000035
  O     -2.550458    1.454670    0.000006
  C      2.238822    0.501716   -0.000188
  O      3.201052   -0.222260    0.000214
  H     -1.020031   -2.765763    0.000078
  H      1.350730   -2.011055    0.000038
  H      0.046632    2.056254   -0.000139
  H     -2.839205   -1.085874    0.000046
  H     -2.223933    2.362775   -0.000011
  H      2.357583    1.605081   -0.000285

 Total Charge           Charge          ....    0
 Multiplicity           Mult            ....    1
 Number of Electrons    NEL             ....   64
 Basis Dimension        Dim             ....  138

ORBITAL ENERGIES
----------------

  NO   OCC          E(Eh)            E(eV)
   0   2.0000     -18.797572      -511.5079
   1   2.0000     -18.750265      -510.2206
   2   2.0000      -9.971295      -271.3327
   3   2.0000      -9.968290      -271.2510
   4   2.0000      -9.913211      -269.7522
   5   2.0000      -9.911166      -269.6965
   6   2.0000      -9.910266      -269.6720
   7   2.0000      -9.906736      -269.5760
   8   2.0000      -9.903510      -269.4882
   9   2.0000      -0.980665       -26.6853
  10   2.0000      -0.946885       -25.7661
  11   2.0000      -0.790541       -21.5117
  12   2.0000      -0.702216       -19.1083
  13   2.0000      -0.680541       -18.5185
  14   2.0000      -0.596334       -16.2271
  15   2.0000      -0.578758       -15.7488
  16   2.0000      -0.529624       -14.4118
  17   2.0000      -0.479626       -13.0513
  18   2.0000      -0.468153       -12.7391
  19   2.0000      -0.442492       -12.0408
  20   2.0000      -0.409512       -11.1434
  21   2.0000      -0.396492       -10.7891
  22   2.0000      -0.386070       -10.5055
  23   2.0000      -0.376182       -10.2364
  24   2.0000      -0.359964        -9.7951
  25   2.0000      -0.352980        -9.6051
  26   2.0000      -0.328224        -8.9314
  27   2.0000      -0.318204        -8.6588
  28   2.0000      -0.307149        -8.3580
  29   2.0000      -0.248459        -6.7609
  30   2.0000      -0.212687        -5.7875
  31   2.0000      -0.209222        -5.6932
  32   0.0000      -0.095699        -2.6041
  33   0.0000      -0.040304        -1.0967
  34   0.0000       0.005928         0.1613
  35   0.0000       0.012110         0.3295
  36   0.0000       0.047631         1.2961

MULLIKEN ATOMIC CHARGES
-----------------------
   0 C :   -0.042175
   1 C :   -0.091794
   2 C :    0.082251
   3 C :   -0.217342
   4 C :    0.253743
   5 C :   -0.111455
   6 O :   -0.325837
   7 C :    0.036348
   8 O :   -0.147969
   9 H :    0.065090
  10 H :    0.060137
  11 H :    0.029851
  12 H :    0.057939
  13 H :    0.319698
  14 H :    0.031516
Sum of atomic charges:   -0.0000000

LOEWDIN ATOMIC CHARGES
----------------------
   0 C :   -0.107950
   1 C :   -0.106435
   2 C :   -0.088930
   3 C :   -0.152084
   4 C :    0.022596
   5 C :   -0.126533
   6 O :   -0.227987
   7 C :    0.003713
   8 O :   -0.113889
   9 H :    0.130154
  10 H :    0.133392
  11 H :    0.122649
  12 H :    0.135433
  13 H :    0.300379
  14 H :    0.075489

  Mayer bond orders larger than 0.100000
B(  0-C ,  1-C ) :   1.3448 B(  0-C ,  5-C ) :   1.3555 B(  0-C ,  9-H ) :   0.9679
B(  1-C ,  2-C ) :   1.3586 B(  1-C , 10-H ) :   0.9621 B(  2-C ,  3-C ) :   1.3025
B(  2-C ,  7-C ) :   0.9785 B(  3-C ,  4-C ) :   1.2977 B(  3-C , 11-H ) :   0.9477
B(  4-C ,  5-C ) :   1.3576 B(  4-C ,  6-O ) :   1.1974 B(  5-C , 12-H ) :   0.9635
B(  6-O , 13-H ) :   0.8413 B(  7-C ,  8-O ) :   2.1573 B(  7-C , 14-H ) :   0.9118

Dispersion correction           -0.015449608
FINAL SINGLE POINT ENERGY      -419.924725474200

DIPOLE MOMENT
-------------

Method             : SCF
Type of density    : Electron Density
Multiplicity       :   1
Irrep              :   0
Energy             :  -419.9710476430452673 Eh
Relativity type    :
Basis              : AO
                                X                 Y                 Z
Electronic contribution:      1.216169256       0.541186272       0.000050847
Nuclear contribution   :     -2.174639368       0.169686259      -0.000253547
                        -----------------------------------------
Total Dipole Moment    :     -0.958470113       0.710872531      -0.000202700
                        -----------------------------------------
Magnitude (a.u.)       :      1.193316703
Magnitude (Debye)      :      3.033170009

Rotational constants in cm-1:             0.123937             0.038116             0.029151
Rotational constants in MHz :          3715.538822          1142.692852           873.922850

                             ****ORCA TERMINATED NORMALLY****
TOTAL RUN TIME: 0 days 0 hours 0 minutes 17 seconds 824 msec
