                         Program Version 6.0.1  -  RELEASE   -
|  1> ! pbe def2-sv(p) def2/J RI DEFGRID1 loosescf d4 GCP(DFT/SV(P)) printgap
|  2> %output
|  3>     printlevel normal
|  4> end
|  5> * xyz 0 1
|  6> C -2.9596493389 -0.8246408356 0.5382571981
|  7> C -1.9476769131 -0.36344289 -0.5122303994
|  8> H -2.4979443058 -0.1875850522 -1.4460793525
|  9> C -0.84745529 -1.3951432819 -0.7714547955
| 10> C 0.2144904514 -1.3652362593 0.3252065452
| 11> C 0.8515601024 0.0326514686 0.5046592007
| 12> H 0.7437508634 0.3288018778 1.552574357
| 13> C 0.1224429872 1.0931378257 -0.3400511331
| 14> C -1.362843055 0.9829600814 -0.1181359786
| 15> O -2.0336969382 1.8798582291 0.327933161
| 16> C 2.3286999242 0.0060864677 0.1895822598
| 17> C 3.2326689013 0.1552214138 1.1448446244
| 18> C 2.7240845283 -0.210125693 -1.2408886341
| 19> H -2.4605329339 -1.0602446135 1.4750102912
| 20> H -3.6771636358 -0.0300094051 0.7259327526
| 21> H -3.4923652384 -1.7081146132 0.1942476342
| 22> H -1.2918715695 -2.3917468298 -0.8171889223
| 23> H -0.3828595712 -1.204671627 -1.741063201
| 24> H -0.2442202575 -1.6724214229 1.2658016796
| 25> H 0.9909980052 -2.0983741617 0.0982973435
| 26> H 0.4661618466 2.0902555165 -0.0612877361
| 27> H 0.3227825467 0.9343035895 -1.3998982507
| 28> H 4.2892237651 0.1168816113 0.939367438
| 29> H 2.9562319544 0.322907474 2.171902877
| 30> H 2.1179972693 -0.9861322527 -1.7036526506
| 31> H 2.5927560923 0.7086281205 -1.8124973247
| 32> H 3.7699956142 -0.4979772396 -1.3078407252
| 33> *
| 34>
| 35>                          ****END OF INPUT****

CARTESIAN COORDINATES (ANGSTROEM)
---------------------------------
  C     -2.959649   -0.824641    0.538257
  C     -1.947677   -0.363443   -0.512230
  H     -2.497944   -0.187585   -1.446079
  C     -0.847455   -1.395143   -0.771455
  C      0.214490   -1.365236    0.325207
  C      0.851560    0.032651    0.504659
  H      0.743751    0.328802    1.552574
  C      0.122443    1.093138   -0.340051
  C     -1.362843    0.982960   -0.118136
  O     -2.033697    1.879858    0.327933
  C      2.328700    0.006086    0.189582
  C      3.232669    0.155221    1.144845
  C      2.724085   -0.210126   -1.240889
  H     -2.460533   -1.060245    1.475010
  H     -3.677164   -0.030009    0.725933
  H     -3.492365   -1.708115    0.194248
  H     -1.291872   -2.391747   -0.817189
  H     -0.382860   -1.204672   -1.741063
  H     -0.244220   -1.672421    1.265802
  H      0.990998   -2.098374    0.098297
  H      0.466162    2.090256   -0.061288
  H      0.322783    0.934304   -1.399898
  H      4.289224    0.116882    0.939367
  H      2.956232    0.322907    2.171903
  H      2.117997   -0.986132   -1.703653
  H      2.592756    0.708628   -1.812497
  H      3.769996   -0.497977   -1.307841

 Total Charge           Charge          ....    0
 Multiplicity           Mult            ....    1
 Number of Electrons    NEL             ....   84
 Basis Dimension        Dim             ....  186

ORBITAL ENERGIES
----------------

  NO   OCC          E(Eh)            E(eV)
   0   2.0000     -18.739630      -509.9312
   1   2.0000      -9.969355      -271.2799
   2   2.0000      -9.909039      -269.6386
   3   2.0000      -9.904481      -269.5146
   4   2.0000      -9.902924      -269.4723
   5   2.0000      -9.895127      -269.2601
   6   2.0000      -9.894056      -269.2310
   7   2.0000      -9.893518      -269.2163
   8   2.0000      -9.888924      -269.0913
   9   2.0000      -9.880308      -268.8569
  10   2.0000      -9.876403      -268.7506
  11   2.0000      -0.939850       -25.5746
  12   2.0000      -0.773815       -21.0566
  13   2.0000      -0.730519       -19.8784
  14   2.0000      -0.683531       -18.5998
  15   2.0000      -0.659363       -17.9422
  16   2.0000      -0.624358       -16.9896
  17   2.0000      -0.608096       -16.5471
  18   2.0000      -0.550800       -14.9880
  19   2.0000      -0.536294       -14.5933
  20   2.0000      -0.475246       -12.9321
  21   2.0000      -0.456109       -12.4113
  22   2.0000      -0.446912       -12.1611
  23   2.0000      -0.428654       -11.6643
  24   2.0000      -0.415818       -11.3150
  25   2.0000      -0.402989       -10.9659
  26   2.0000      -0.394014       -10.7217
  27   2.0000      -0.379276       -10.3206
  28   2.0000      -0.365852        -9.9553
  29   2.0000      -0.357747        -9.7348
  30   2.0000      -0.354555        -9.6479
  31   2.0000      -0.346982        -9.4418
  32   2.0000      -0.339872        -9.2484
  33   2.0000      -0.331900        -9.0315
  34   2.0000      -0.324961        -8.8426
  35   2.0000      -0.315186        -8.5766
  36   2.0000      -0.304409        -8.2834
  37   2.0000      -0.292753        -7.9662
  38   2.0000      -0.278814        -7.5869
  39   2.0000      -0.277149        -7.5416
  40   2.0000      -0.222984        -6.0677
  41   2.0000      -0.192010        -5.2249
  42   0.0000      -0.051407        -1.3989
  43   0.0000      -0.014497        -0.3945
  44   0.0000       0.024691         0.6719
  45   0.0000       0.037126         1.0103
  46   0.0000       0.055428         1.5083

MULLIKEN ATOMIC CHARGES
-----------------------
   0 C :   -0.248232
   1 C :   -0.185549
   2 H :    0.100412
   3 C :   -0.101959
   4 C :   -0.124219
   5 C :   -0.173239
   6 H :    0.067599
   7 C :   -0.051276
   8 C :    0.006351
   9 O :   -0.151315
  10 C :   -0.039374
  11 C :   -0.226003
  12 C :   -0.234846
  13 H :    0.101274
  14 H :    0.121638
  15 H :    0.099864
  16 H :    0.087466
  17 H :    0.075741
  18 H :    0.090146
  19 H :    0.098054
  20 H :    0.089710
  21 H :    0.091967
  22 H :    0.080952
  23 H :    0.086499
  24 H :    0.110120
  25 H :    0.124560
  26 H :    0.103659
Sum of atomic charges:   -0.0000000

LOEWDIN ATOMIC CHARGES
----------------------
   0 C :   -0.324209
   1 C :   -0.176489
   2 H :    0.142465
   3 C :   -0.220395
   4 C :   -0.216725
   5 C :   -0.122632
   6 H :    0.125247
   7 C :   -0.234193
   8 C :    0.049963
   9 O :   -0.120109
  10 C :   -0.050380
  11 C :   -0.263722
  12 C :   -0.326037
  13 H :    0.118012
  14 H :    0.128523
  15 H :    0.119364
  16 H :    0.121920
  17 H :    0.114219
  18 H :    0.122827
  19 H :    0.124631
  20 H :    0.132374
  21 H :    0.134829
  22 H :    0.116837
  23 H :    0.118059
  24 H :    0.123993
  25 H :    0.132863
  26 H :    0.128762

  Mayer bond orders larger than 0.100000
B(  0-C ,  1-C ) :   1.1147 B(  0-C , 13-H ) :   0.9504 B(  0-C , 14-H ) :   0.9370
B(  0-C , 15-H ) :   0.9474 B(  1-C ,  2-H ) :   0.8607 B(  1-C ,  3-C ) :   1.0850
B(  1-C ,  8-C ) :   0.9145 B(  3-C ,  4-C ) :   1.1671 B(  3-C , 16-H ) :   0.9109
B(  3-C , 17-H ) :   0.8860 B(  4-C ,  5-C ) :   1.0409 B(  4-C , 18-H ) :   0.9047
B(  4-C , 19-H ) :   0.9120 B(  5-C ,  6-H ) :   0.8806 B(  5-C ,  7-C ) :   1.1014
B(  5-C , 10-C ) :   1.0154 B(  7-C ,  8-C ) :   1.0881 B(  7-C , 20-H ) :   0.8947
B(  7-C , 21-H ) :   0.8477 B(  8-C ,  9-O ) :   2.2004 B( 10-C , 11-C ) :   2.0384
B( 10-C , 12-C ) :   1.1084 B( 11-C , 22-H ) :   0.9062 B( 11-C , 23-H ) :   0.9092
B( 12-C , 24-H ) :   0.9265 B( 12-C , 25-H ) :   0.9235 B( 12-C , 26-H ) :   0.9342

Dispersion correction           -0.028835118
FINAL SINGLE POINT ENERGY      -464.823944368762

DIPOLE MOMENT
-------------

Method             : SCF
Type of density    : Electron Density
Multiplicity       :   1
Irrep              :   0
Energy             :  -464.9095764540916207 Eh
Relativity type    :
Basis              : AO
                                X                 Y                 Z
Electronic contribution:     -3.446315431       6.022001476       1.253808109
Nuclear contribution   :      3.912900883      -6.854043791      -1.746106605
                        -----------------------------------------
Total Dipole Moment    :      0.466585452      -0.832042314      -0.492298496
                        -----------------------------------------
Magnitude (a.u.)       :      1.073477623
Magnitude (Debye)      :      2.728563275

Rotational constants in cm-1:             0.067847             0.023603             0.021082
Rotational constants in MHz :          2034.009985           707.603926           632.030536

                             ****ORCA TERMINATED NORMALLY****
TOTAL RUN TIME: 0 days 0 hours 0 minutes 26 seconds 906 msec
