                         Program Version 6.0.1  -  RELEASE   -
|  1> ! r2scan-3c def2/J RI DEFGRID2 scfconv6 printgap
|  2> %output
|  3>     printlevel normal
|  4> end
|  5> * xyz 0 1
|  6> C 1.6715998864 -1.0475273151 -0.1732139069
|  7> C 1.0497046621 0.2801927991 0.2358761981
|  8> C -0.4450604511 0.3497527662 0.0444853367
|  9> O -1.087106017 1.3664344634 0.0720424051
| 10> O -1.0145041596 -0.8457499928 -0.1458952294
| 11> H 1.4854473623 -1.2489810188 -1.2248588264
| 12> H 2.7460042299 -1.0181692347 -0.0101179892
| 13> H 1.252035682 -1.8625687203 0.4096759538
| 14> H 1.2376475441 0.4761919505 1.2953354309
| 15> H 1.4877654235 1.1092519828 -0.3236014082
| 16> H -1.9736249119 -0.7448059415 -0.2509567064
| 17> *
| 18>
| 19>                          ****END OF INPUT****

CARTESIAN COORDINATES (ANGSTROEM)
---------------------------------
  C      1.671600   -1.047527   -0.173214
  C      1.049705    0.280193    0.235876
  C     -0.445060    0.349753    0.044485
  O     -1.087106    1.366434    0.072042
  O     -1.014504   -0.845750   -0.145895
  H      1.485447   -1.248981   -1.224859
  H      2.746004   -1.018169   -0.010118
  H      1.252036   -1.862569    0.409676
  H      1.237648    0.476192    1.295335
  H      1.487765    1.109252   -0.323601
  H     -1.973625   -0.744806   -0.250957

 Total Charge           Charge          ....    0
 Multiplicity           Mult            ....    1
 Number of Electrons    NEL             ....   40
 Basis Dimension        Dim             ....  135

ORBITAL ENERGIES
----------------

  NO   OCC          E(Eh)            E(eV)
   0   2.0000     -19.003903      -517.1225
   1   2.0000     -18.934097      -515.2230
   2   2.0000     -10.162175      -276.5268
   3   2.0000     -10.051927      -273.5268
   4   2.0000     -10.029564      -272.9183
   5   2.0000      -1.078460       -29.3464
   6   2.0000      -0.982968       -26.7479
   7   2.0000      -0.760921       -20.7057
   8   2.0000      -0.637074       -17.3357
   9   2.0000      -0.582859       -15.8604
  10   2.0000      -0.456911       -12.4332
  11   2.0000      -0.453062       -12.3284
  12   2.0000      -0.443709       -12.0739
  13   2.0000      -0.393492       -10.7075
  14   2.0000      -0.380664       -10.3584
  15   2.0000      -0.352582        -9.5942
  16   2.0000      -0.343236        -9.3399
  17   2.0000      -0.331533        -9.0215
  18   2.0000      -0.291372        -7.9286
  19   2.0000      -0.240952        -6.5566
  20   0.0000      -0.019708        -0.5363
  21   0.0000       0.055932         1.5220
  22   0.0000       0.105958         2.8833
  23   0.0000       0.121152         3.2967
  24   0.0000       0.146674         3.9912

MULLIKEN ATOMIC CHARGES
-----------------------
   0 C :   -0.450514
   1 C :   -0.276038
   2 C :    0.333613
   3 O :   -0.392060
   4 O :   -0.333253
   5 H :    0.152310
   6 H :    0.145934
   7 H :    0.157543
   8 H :    0.168938
   9 H :    0.166259
  10 H :    0.327267
Sum of atomic charges:   -0.0000000

LOEWDIN ATOMIC CHARGES
----------------------
   0 C :   -0.401748
   1 C :   -0.243961
   2 C :    0.341971
   3 O :   -0.414548
   4 O :   -0.412835
   5 H :    0.158078
   6 H :    0.151110
   7 H :    0.162687
   8 H :    0.183276
   9 H :    0.181043
  10 H :    0.294928

  Mayer bond orders larger than 0.100000
B(  0-C ,  1-C ) :   0.9080 B(  0-C ,  5-H ) :   0.9794 B(  0-C ,  6-H ) :   0.9651
B(  0-C ,  7-H ) :   0.9734 B(  1-C ,  2-C ) :   1.0358 B(  1-C ,  8-H ) :   0.9244
B(  1-C ,  9-H ) :   0.9516 B(  2-C ,  3-O ) :   1.9449 B(  2-C ,  4-O ) :   1.0272
B(  4-O , 10-H ) :   0.8629

Dispersion correction           -0.002109120
FINAL SINGLE POINT ENERGY      -268.348746023960

DIPOLE MOMENT
-------------

Method             : SCF
Type of density    : Electron Density
Multiplicity       :   1
Irrep              :   0
Energy             :  -268.3530846286450924 Eh
Relativity type    :
Basis              : AO
                                X                 Y                 Z
Electronic contribution:     -5.484563811       2.397409828       0.080256262
Nuclear contribution   :      5.818595082      -3.077996618      -0.099155215
                        -----------------------------------------
Total Dipole Moment    :      0.334031271      -0.680586790      -0.018898953
                        -----------------------------------------
Magnitude (a.u.)       :      0.758374867
Magnitude (Debye)      :      1.927635720

Rotational constants in cm-1:             0.328633             0.133654             0.099148
Rotational constants in MHz :          9852.180997          4006.848278          2972.385260

                             ****ORCA TERMINATED NORMALLY****
TOTAL RUN TIME: 0 days 0 hours 0 minutes 8 seconds 944 msec
