                         Program Version 6.0.0  -   RELEASE  -
|  1> ! r2SCAN-3c DEF2-TZVP FREQ
|  2> * xyzfile 0 1 censo.xyz
|  3>
|  4>                          ****END OF INPUT****

CARTESIAN COORDINATES (ANGSTROEM)
---------------------------------
  C      0.955996    1.622023   -1.802236
  C      2.076805    1.763946   -1.091629
  C      2.426412    0.533941   -0.328022
  H      2.628355    0.702778    0.731302
  C      1.284032   -0.453607   -0.615081
  H      1.653512   -1.397801   -1.013922
  C      0.336570    0.273199   -1.625466
  H      0.217746   -0.266876   -2.568674
  C     -1.039682    0.270487   -0.865979
  C     -0.899965    1.184170    0.337800
  C     -0.076122    0.584294    1.205742
  C      0.346550   -0.744204    0.594078
  C     -0.986591   -1.109215   -0.139309
  Cl    -2.362901   -1.406710    0.966280
  Cl    -0.853847   -2.506271   -1.245474
  Cl     0.964192   -1.952010    1.734569
  Cl     0.508021    1.198205    2.687423
  Cl    -1.569180    2.747729    0.439641
  Cl    -2.454631    0.556839   -1.891474
  Cl     4.048802   -0.140624   -0.956181
  H      0.515584    2.383699   -2.436403
  H      2.699852    2.650169   -1.057969

 Total Charge           Charge          ....    0
 Multiplicity           Mult            ....    1
 Number of Electrons    NEL             ....  184
 Basis Dimension        Dim             ....  599

ORBITAL ENERGIES
----------------

  NO   OCC          E(Eh)            E(eV)
   0   2.0000    -101.230922     -2754.6334
   1   2.0000    -101.230057     -2754.6099
   2   2.0000    -101.217548     -2754.2695
   3   2.0000    -101.212625     -2754.1356
   4   2.0000    -101.211016     -2754.0918
   5   2.0000    -101.210871     -2754.0878
   6   2.0000    -101.183629     -2753.3465
   7   2.0000     -10.203257      -277.6447
   8   2.0000     -10.166311      -276.6394
   9   2.0000     -10.165948      -276.6295
  10   2.0000     -10.137938      -275.8673
  11   2.0000     -10.136932      -275.8400
  12   2.0000     -10.126519      -275.5566
  13   2.0000     -10.094214      -274.6775
  14   2.0000     -10.093279      -274.6521
  15   2.0000     -10.071830      -274.0684
  16   2.0000     -10.069164      -273.9959
  17   2.0000      -9.406282      -255.9579
  18   2.0000      -9.405408      -255.9342
  19   2.0000      -9.393632      -255.6137
  20   2.0000      -9.388548      -255.4754
  21   2.0000      -9.386900      -255.4305
  22   2.0000      -9.386788      -255.4275
  23   2.0000      -9.359500      -254.6850
  24   2.0000      -7.151589      -194.6046
  25   2.0000      -7.150680      -194.5799
  26   2.0000      -7.141298      -194.3246
  27   2.0000      -7.140443      -194.3013
  28   2.0000      -7.140400      -194.3002
  29   2.0000      -7.139557      -194.2772
  30   2.0000      -7.138955      -194.2608
  31   2.0000      -7.133898      -194.1232
  32   2.0000      -7.132385      -194.0821
  33   2.0000      -7.132286      -194.0794
  34   2.0000      -7.128212      -193.9685
  35   2.0000      -7.128137      -193.9665
  36   2.0000      -7.123114      -193.8298
  37   2.0000      -7.123004      -193.8268
  38   2.0000      -7.121494      -193.7857
  39   2.0000      -7.121312      -193.7808
  40   2.0000      -7.121224      -193.7784
  41   2.0000      -7.121176      -193.7770
  42   2.0000      -7.104281      -193.3173
  43   2.0000      -7.094387      -193.0481
  44   2.0000      -7.094302      -193.0458
  45   2.0000      -0.964091       -26.2343
  46   2.0000      -0.886181       -24.1142
  47   2.0000      -0.872454       -23.7407
  48   2.0000      -0.869610       -23.6633
  49   2.0000      -0.838589       -22.8192
  50   2.0000      -0.834714       -22.7137
  51   2.0000      -0.807603       -21.9760
  52   2.0000      -0.806546       -21.9472
  53   2.0000      -0.782949       -21.3051
  54   2.0000      -0.728621       -19.8268
  55   2.0000      -0.713760       -19.4224
  56   2.0000      -0.669182       -18.2094
  57   2.0000      -0.655134       -17.8271
  58   2.0000      -0.581290       -15.8177
  59   2.0000      -0.567122       -15.4322
  60   2.0000      -0.550342       -14.9756
  61   2.0000      -0.525433       -14.2978
  62   2.0000      -0.522619       -14.2212
  63   2.0000      -0.504033       -13.7154
  64   2.0000      -0.493671       -13.4335
  65   2.0000      -0.456782       -12.4297
  66   2.0000      -0.452253       -12.3064
  67   2.0000      -0.447214       -12.1693
  68   2.0000      -0.427458       -11.6317
  69   2.0000      -0.418766       -11.3952
  70   2.0000      -0.412969       -11.2374
  71   2.0000      -0.406180       -11.0527
  72   2.0000      -0.388750       -10.5784
  73   2.0000      -0.380846       -10.3633
  74   2.0000      -0.371787       -10.1168
  75   2.0000      -0.366798        -9.9811
  76   2.0000      -0.364177        -9.9098
  77   2.0000      -0.344788        -9.3822
  78   2.0000      -0.332987        -9.0610
  79   2.0000      -0.324610        -8.8331
  80   2.0000      -0.318291        -8.6611
  81   2.0000      -0.315226        -8.5777
  82   2.0000      -0.310856        -8.4588
  83   2.0000      -0.304654        -8.2901
  84   2.0000      -0.302911        -8.2426
  85   2.0000      -0.297896        -8.1062
  86   2.0000      -0.294246        -8.0068
  87   2.0000      -0.292844        -7.9687
  88   2.0000      -0.281505        -7.6602
  89   2.0000      -0.279142        -7.5958
  90   2.0000      -0.264778        -7.2050
  91   2.0000      -0.246788        -6.7155
  92   0.0000      -0.081124        -2.2075
  93   0.0000      -0.077310        -2.1037
  94   0.0000      -0.067517        -1.8372
  95   0.0000      -0.041944        -1.1414
  96   0.0000      -0.025872        -0.7040

MULLIKEN ATOMIC CHARGES
-----------------------
   0 C :   -0.233601
   1 C :   -0.201941
   2 C :    0.141076
   3 H :    0.129008
   4 C :   -0.119080
   5 H :    0.129062
   6 C :    0.002896
   7 H :    0.121239
   8 C :    0.265699
   9 C :   -0.108013
  10 C :   -0.203617
  11 C :    0.275072
  12 C :    0.108447
  13 Cl:   -0.086769
  14 Cl:   -0.087555
  15 Cl:   -0.078160
  16 Cl:   -0.017507
  17 Cl:   -0.021084
  18 Cl:   -0.085336
  19 Cl:   -0.205295
  20 H :    0.141667
  21 H :    0.133792
Sum of atomic charges:   -0.0000000

LOEWDIN ATOMIC CHARGES
----------------------
   0 C :   -0.106233
   1 C :   -0.142823
   2 C :   -0.373868
   3 H :    0.147210
   4 C :   -0.170963
   5 H :    0.160806
   6 C :   -0.163322
   7 H :    0.162545
   8 C :   -0.483091
   9 C :   -0.481619
  10 C :   -0.482037
  11 C :   -0.486230
  12 C :   -0.697798
  13 Cl:    0.395144
  14 Cl:    0.404807
  15 Cl:    0.410670
  16 Cl:    0.480047
  17 Cl:    0.486429
  18 Cl:    0.406470
  19 Cl:    0.240802
  20 H :    0.147725
  21 H :    0.145330

  Mayer bond orders larger than 0.100000
B(  0-C ,  1-C ) :   1.8565 B(  0-C ,  6-C ) :   0.9035 B(  0-C , 20-H ) :   0.9565
B(  1-C ,  2-C ) :   1.0041 B(  1-C , 21-H ) :   0.9672 B(  2-C ,  3-H ) :   0.9509
B(  2-C ,  4-C ) :   0.9401 B(  2-C , 19-Cl) :   0.8771 B(  4-C ,  5-H ) :   0.9233
B(  4-C ,  6-C ) :   1.0169 B(  4-C , 11-C ) :   0.9501 B(  6-C ,  7-H ) :   0.9132
B(  6-C ,  8-C ) :   0.9146 B(  8-C ,  9-C ) :   0.8663 B(  8-C , 12-C ) :   1.0059
B(  8-C , 18-Cl) :   1.1055 B(  9-C , 10-C ) :   1.6434 B(  9-C , 17-Cl) :   1.1865
B( 10-C , 11-C ) :   0.8327 B( 10-C , 16-Cl) :   1.2073 B( 11-C , 12-C ) :   0.9940
B( 11-C , 15-Cl) :   1.1166 B( 12-C , 13-Cl) :   1.0820 B( 12-C , 14-Cl) :   1.0644

Dispersion correction           -0.016841258
FINAL SINGLE POINT ENERGY     -3605.251706710867

DIPOLE MOMENT
-------------

Method             : SCF
Type of density    : Electron Density
Multiplicity       :   1
Irrep              :   0
Energy             : -3605.2499040961010905 Eh
Relativity type    :
Basis              : AO
                                X                 Y                 Z
Electronic contribution:     -9.533416828      -5.057500313       7.936502292
Nuclear contribution   :      9.545437771       5.811742386      -8.242754948
                        -----------------------------------------
Total Dipole Moment    :      0.012020943       0.754242073      -0.306252656
                        -----------------------------------------
Magnitude (a.u.)       :      0.814135307
Magnitude (Debye)      :      2.069367494

VIBRATIONAL FREQUENCIES
-----------------------

Scaling factor for frequencies =  1.000000000  (already applied!)

     0:       0.00 cm**-1
     1:       0.00 cm**-1
     2:       0.00 cm**-1
     3:       0.00 cm**-1
     4:       0.00 cm**-1
     5:       0.00 cm**-1
     6:      67.95 cm**-1
     7:      87.48 cm**-1
     8:      92.00 cm**-1
     9:     105.46 cm**-1
    10:     126.52 cm**-1
    11:     142.03 cm**-1
    12:     156.49 cm**-1
    13:     162.82 cm**-1
    14:     171.85 cm**-1
    15:     175.97 cm**-1
    16:     195.90 cm**-1
    17:     222.52 cm**-1
    18:     255.62 cm**-1
    19:     270.23 cm**-1
    20:     305.16 cm**-1
    21:     332.40 cm**-1
    22:     346.74 cm**-1
    23:     362.96 cm**-1
    24:     371.54 cm**-1
    25:     395.38 cm**-1
    26:     445.03 cm**-1
    27:     533.72 cm**-1
    28:     537.81 cm**-1
    29:     625.37 cm**-1
    30:     639.62 cm**-1
    31:     682.95 cm**-1
    32:     725.03 cm**-1
    33:     736.52 cm**-1
    34:     768.84 cm**-1
    35:     784.39 cm**-1
    36:     826.10 cm**-1
    37:     842.25 cm**-1
    38:     882.80 cm**-1
    39:     890.76 cm**-1
    40:     912.40 cm**-1
    41:     969.76 cm**-1
    42:     979.42 cm**-1
    43:     989.12 cm**-1
    44:    1013.89 cm**-1
    45:    1041.71 cm**-1
    46:    1051.27 cm**-1
    47:    1086.74 cm**-1
    48:    1092.30 cm**-1
    49:    1103.92 cm**-1
    50:    1132.20 cm**-1
    51:    1162.59 cm**-1
    52:    1219.04 cm**-1
    53:    1236.62 cm**-1
    54:    1267.12 cm**-1
    55:    1284.73 cm**-1
    56:    1302.02 cm**-1
    57:    1324.50 cm**-1
    58:    1373.28 cm**-1
    59:    1624.14 cm**-1
    60:    1650.36 cm**-1
    61:    3073.65 cm**-1
    62:    3098.50 cm**-1
    63:    3119.58 cm**-1
    64:    3184.45 cm**-1
    65:    3206.47 cm**-1

IR SPECTRUM
-----------

 Mode   freq       eps      Int      T**2         TX        TY        TZ
       cm**-1   L/(mol*cm) km/mol    a.u.
----------------------------------------------------------------------------
  6:     67.95   0.000137    0.69  0.000631  (-0.007799 -0.007164 -0.022774)
  7:     87.48   0.000106    0.54  0.000380  ( 0.003803 -0.006633  0.017928)
  8:     92.00   0.000016    0.08  0.000053  (-0.003317  0.006504  0.000266)
  9:    105.46   0.000051    0.26  0.000149  ( 0.000505 -0.012000  0.002283)
 10:    126.52   0.000005    0.02  0.000012  (-0.000307 -0.002053 -0.002725)
 11:    142.03   0.000011    0.05  0.000024  (-0.001527 -0.003943 -0.002433)
 12:    156.49   0.000048    0.24  0.000096  ( 0.006084  0.007047 -0.002996)
 13:    162.82   0.000046    0.23  0.000088  (-0.002208 -0.008874  0.002079)
 14:    171.85   0.000016    0.08  0.000030  ( 0.004066 -0.000270 -0.003607)
 15:    175.97   0.000057    0.29  0.000101  ( 0.004326  0.008815  0.002232)
 16:    195.90   0.000024    0.12  0.000039  ( 0.002438  0.005471  0.001718)
 17:    222.52   0.000077    0.39  0.000108  ( 0.007452 -0.007262  0.000014)
 18:    255.62   0.000435    2.20  0.000531  (-0.007753 -0.019881  0.008712)
 19:    270.23   0.000523    2.64  0.000604  ( 0.024452  0.001433  0.001999)
 20:    305.16   0.000822    4.16  0.000841  ( 0.028494  0.001416 -0.005213)
 21:    332.40   0.000531    2.69  0.000499  (-0.017228  0.000081  0.014213)
 22:    346.74   0.000380    1.92  0.000342  ( 0.017016 -0.005798 -0.004363)
 23:    362.96   0.000037    0.19  0.000032  ( 0.004790  0.001446  0.002620)
 24:    371.54   0.001016    5.14  0.000854  (-0.025050  0.009585  0.011585)
 25:    395.38   0.000565    2.86  0.000446  ( 0.010677  0.016326 -0.008107)
 26:    445.03   0.002179   11.01  0.001528  ( 0.035168 -0.013105  0.010941)
 27:    533.72   0.006036   30.50  0.003529  ( 0.049587 -0.016950 -0.027985)
 28:    537.81   0.002451   12.39  0.001422  ( 0.035526 -0.011993 -0.004074)
 29:    625.37   0.001255    6.34  0.000626  (-0.012248  0.020446 -0.007623)
 30:    639.62   0.009109   46.03  0.004444  (-0.034213 -0.039452 -0.041441)
 31:    682.95   0.003653   18.46  0.001669  ( 0.025768 -0.024999  0.019498)
 32:    725.03   0.008040   40.63  0.003461  (-0.031603 -0.020754  0.045067)
 33:    736.52   0.002362   11.94  0.001001  ( 0.008810  0.006315  0.029719)
 34:    768.84   0.022780  115.12  0.009246  ( 0.060949 -0.055934 -0.049019)
 35:    784.39   0.003402   17.19  0.001353  ( 0.006048  0.016096 -0.032522)
 36:    826.10   0.004816   24.34  0.001819  (-0.036727  0.007808 -0.020235)
 37:    842.25   0.004905   24.79  0.001817  (-0.022459  0.021569  0.029115)
 38:    882.80   0.002000   10.11  0.000707  (-0.010145  0.001736  0.024516)
 39:    890.76   0.004923   24.88  0.001725  ( 0.037793 -0.017211  0.000151)
 40:    912.40   0.000571    2.88  0.000195  ( 0.005979 -0.001810 -0.012495)
 41:    969.76   0.000360    1.82  0.000116  ( 0.002357  0.004593  0.009443)
 42:    979.42   0.002847   14.39  0.000907  (-0.006124  0.008984 -0.028085)
 43:    989.12   0.002633   13.31  0.000831  (-0.004843  0.009136 -0.026902)
 44:   1013.89   0.003641   18.40  0.001121  (-0.025975  0.008016 -0.019538)
 45:   1041.71   0.009905   50.06  0.002967  (-0.044633 -0.022590 -0.021562)
 46:   1051.27   0.010530   53.21  0.003126  (-0.006390  0.054672 -0.009795)
 47:   1086.74   0.001106    5.59  0.000318  ( 0.016924  0.003917  0.003996)
 48:   1092.30   0.002144   10.83  0.000613  ( 0.001604 -0.005276 -0.024127)
 49:   1103.92   0.002547   12.87  0.000720  (-0.022906  0.007003  0.012091)
 50:   1132.20   0.001666    8.42  0.000459  (-0.015982  0.011484 -0.008481)
 51:   1162.59   0.007534   38.07  0.002022  (-0.028930  0.019774 -0.028183)
 52:   1219.04   0.001585    8.01  0.000406  (-0.016617  0.006159  0.009582)
 53:   1236.62   0.001716    8.67  0.000433  ( 0.016578 -0.011710  0.004603)
 54:   1267.12   0.007723   39.03  0.001902  ( 0.029633 -0.019943  0.025023)
 55:   1284.73   0.000650    3.29  0.000158  ( 0.011822  0.004172 -0.000910)
 56:   1302.02   0.001643    8.30  0.000394  ( 0.015736  0.008916 -0.008166)
 57:   1324.50   0.001228    6.21  0.000289  ( 0.008714  0.004272 -0.013972)
 58:   1373.28   0.001938    9.79  0.000440  ( 0.016469 -0.001170  0.012952)
 59:   1624.14   0.010227   51.68  0.001965  ( 0.001224 -0.037233 -0.024026)
 60:   1650.36   0.000504    2.55  0.000095  ( 0.009459 -0.002399 -0.000074)
 61:   3073.65   0.000366    1.85  0.000037  (-0.002768 -0.002952 -0.004564)
 62:   3098.50   0.000209    1.06  0.000021  (-0.002167  0.000255  0.004042)
 63:   3119.58   0.000025    0.13  0.000003  (-0.000922  0.000552  0.001176)
 64:   3184.45   0.000087    0.44  0.000009  ( 0.000055  0.000821 -0.002803)
 65:   3206.47   0.000540    2.73  0.000053  ( 0.002791  0.006047 -0.002868)

--------------------------
THERMOCHEMISTRY AT 298.15K
--------------------------

Temperature         ...   298.15 K
Pressure            ...     1.00 atm
Total Mass          ...   373.32 AMU
Quasi RRHO          ...     True
Cut-Off Frequency   ...     1.00 cm^-1

Throughout the following assumptions are being made:
  (1) The electronic state is orbitally nondegenerate
  (2) There are no thermally accessible electronically excited states
  (3) Hindered rotations indicated by low frequency modes are not
      treated as such but are treated as vibrations and this may
      cause some error
  (4) All equations used are the standard statistical mechanics
      equations for an ideal gas
  (5) All vibrations are strictly harmonic

freq.      67.95  E(vib)   ...       0.50
freq.      87.48  E(vib)   ...       0.48
freq.      92.00  E(vib)   ...       0.47
freq.     105.46  E(vib)   ...       0.45
freq.     126.52  E(vib)   ...       0.43
freq.     142.03  E(vib)   ...       0.41
freq.     156.49  E(vib)   ...       0.40
freq.     162.82  E(vib)   ...       0.39
freq.     171.85  E(vib)   ...       0.38
freq.     175.97  E(vib)   ...       0.38
freq.     195.90  E(vib)   ...       0.36
freq.     222.52  E(vib)   ...       0.33
freq.     255.62  E(vib)   ...       0.30
freq.     270.23  E(vib)   ...       0.29
freq.     305.16  E(vib)   ...       0.26
freq.     332.40  E(vib)   ...       0.24
freq.     346.74  E(vib)   ...       0.23
freq.     362.96  E(vib)   ...       0.22
freq.     371.54  E(vib)   ...       0.21
freq.     395.38  E(vib)   ...       0.20
freq.     445.03  E(vib)   ...       0.17
freq.     533.72  E(vib)   ...       0.13
freq.     537.81  E(vib)   ...       0.12
freq.     625.37  E(vib)   ...       0.09
freq.     639.62  E(vib)   ...       0.09
freq.     682.95  E(vib)   ...       0.08
freq.     725.03  E(vib)   ...       0.06
freq.     736.52  E(vib)   ...       0.06
freq.     768.84  E(vib)   ...       0.06
freq.     784.39  E(vib)   ...       0.05
freq.     826.10  E(vib)   ...       0.04
freq.     842.25  E(vib)   ...       0.04
freq.     882.80  E(vib)   ...       0.04
freq.     890.76  E(vib)   ...       0.04
freq.     912.40  E(vib)   ...       0.03
freq.     969.76  E(vib)   ...       0.03
freq.     979.42  E(vib)   ...       0.03
freq.     989.12  E(vib)   ...       0.02
freq.    1013.89  E(vib)   ...       0.02
freq.    1041.71  E(vib)   ...       0.02
freq.    1051.27  E(vib)   ...       0.02
freq.    1086.74  E(vib)   ...       0.02
freq.    1092.30  E(vib)   ...       0.02
freq.    1103.92  E(vib)   ...       0.02
freq.    1132.20  E(vib)   ...       0.01
freq.    1162.59  E(vib)   ...       0.01
freq.    1219.04  E(vib)   ...       0.01
freq.    1236.62  E(vib)   ...       0.01
freq.    1267.12  E(vib)   ...       0.01
freq.    1284.73  E(vib)   ...       0.01
freq.    1302.02  E(vib)   ...       0.01
freq.    1324.50  E(vib)   ...       0.01
freq.    1373.28  E(vib)   ...       0.01
freq.    1624.14  E(vib)   ...       0.00
freq.    1650.36  E(vib)   ...       0.00
freq.    3073.65  E(vib)   ...       0.00
freq.    3098.50  E(vib)   ...       0.00
freq.    3119.58  E(vib)   ...       0.00
freq.    3184.45  E(vib)   ...       0.00
freq.    3206.47  E(vib)   ...       0.00

------------
INNER ENERGY
------------

The inner energy is: U= E(el) + E(ZPE) + E(vib) + E(rot) + E(trans)
    E(el)   - is the total energy from the electronic structure calculation
              = E(kin-el) + E(nuc-el) + E(el-el) + E(nuc-nuc)
    E(ZPE)  - the the zero temperature vibrational energy from the frequency calculation
    E(vib)  - the the finite temperature correction to E(ZPE) due to population
              of excited vibrational states
    E(rot)  - is the rotational thermal energy
    E(trans)- is the translational thermal energy

Summary of contributions to the inner energy U:
Electronic energy                ...  -3605.25170671 Eh
Zero point energy                ...      0.12477064 Eh      78.29 kcal/mol
Thermal vibrational correction   ...      0.01319435 Eh       8.28 kcal/mol
Thermal rotational correction    ...      0.00141627 Eh       0.89 kcal/mol
Thermal translational correction ...      0.00141627 Eh       0.89 kcal/mol
-----------------------------------------------------------------------
Total thermal energy                  -3605.11090918 Eh

Summary of corrections to the electronic energy:
(perhaps to be used in another calculation)
Total thermal correction                  0.01602689 Eh      10.06 kcal/mol
Non-thermal (ZPE) correction              0.12477064 Eh      78.29 kcal/mol
-----------------------------------------------------------------------
Total correction                          0.14079753 Eh      88.35 kcal/mol

--------
ENTHALPY
--------

The enthalpy is H = U + kB*T
                kB is Boltzmann's constant
Total thermal energy              ...  -3605.11090918 Eh
Thermal Enthalpy correction       ...      0.00094421 Eh       0.59 kcal/mol
-----------------------------------------------------------------------
Total Enthalpy                    ...  -3605.10996497 Eh

Note: Only C1 symmetry has been detected, increase convergence thresholds
      if your molecule has a higher symmetry. Symmetry factor of 1.0 is
      used for the rotational entropy correction.

Note: Rotational entropy computed according to Herzberg
Infrared and Raman Spectra, Chapter V,1, Van Nostrand Reinhold, 1945
Point Group:  C1, Symmetry Number:   1
Rotational constants in cm-1:     0.010229     0.007985     0.007497

Vibrational entropy computed according to the QRRHO of S. Grimme
Chem.Eur.J. 2012 18 9955 using a reference frequency of 100.0 cm-1

-------
ENTROPY
-------

The entropy contributions are T*S = T*(S(el)+S(vib)+S(rot)+S(trans))
     S(el)   - electronic entropy
     S(vib)  - vibrational entropy
     S(rot)  - rotational entropy
     S(trans)- translational entropy
The entropies will be listed as multiplied by the temperature to get
units of energy

Electronic entropy                ...      0.00000000 Eh      0.00 kcal/mol
Vibrational entropy               ...      0.02318190 Eh     14.55 kcal/mol
Rotational entropy                ...      0.01626454 Eh     10.21 kcal/mol
Translational entropy             ...      0.02073685 Eh     13.01 kcal/mol
-----------------------------------------------------------------------
Final entropy term                ...      0.06018329 Eh     37.77 kcal/mol

In case the symmetry of your molecule has not been determined correctly
or in case you have a reason to use a different symmetry number we print
out the resulting rotational entropy values for sn=1,12:

 non-linear molecules -----------------------------------

                             ****ORCA TERMINATED NORMALLY****
TOTAL RUN TIME: 0 days 0 hours 52 minutes 42 seconds 813 msec
