                         Program Version 6.0.0  -   RELEASE  -
|  1> ! r2SCAN-3c DEF2-TZVP FREQ
|  2> * xyzfile 0 1 vacuum_censo.xyz
|  3>
|  4>                          ****END OF INPUT****

CARTESIAN COORDINATES (ANGSTROEM)
---------------------------------
  C      0.957834    1.616237   -1.791544
  C      2.079167    1.750540   -1.081888
  C      2.431595    0.512114   -0.327268
  H      2.622149    0.672484    0.736360
  C      1.276062   -0.462348   -0.610276
  H      1.639999   -1.410569   -1.004503
  C      0.330408    0.270433   -1.616025
  H      0.202475   -0.268368   -2.559144
  C     -1.047764    0.270316   -0.858131
  C     -0.902751    1.185756    0.343504
  C     -0.074989    0.585849    1.207944
  C      0.339590   -0.747651    0.601156
  C     -0.996467   -1.110961   -0.131360
  Cl    -2.368411   -1.410400    0.966664
  Cl    -0.856237   -2.503659   -1.245275
  Cl     0.965362   -1.948086    1.738382
  Cl     0.532591    1.208314    2.676676
  Cl    -1.564553    2.752026    0.439718
  Cl    -2.450208    0.564337   -1.893467
  Cl     4.034018   -0.157023   -0.962752
  H      0.521724    2.382968   -2.422247
  H      2.709301    2.631630   -1.052642

 Total Charge           Charge          ....    0
 Multiplicity           Mult            ....    1
 Number of Electrons    NEL             ....  184
 Basis Dimension        Dim             ....  599

ORBITAL ENERGIES
----------------

  NO   OCC          E(Eh)            E(eV)
   0   2.0000    -101.230626     -2754.6254
   1   2.0000    -101.229878     -2754.6050
   2   2.0000    -101.216979     -2754.2540
   3   2.0000    -101.212617     -2754.1353
   4   2.0000    -101.211534     -2754.1059
   5   2.0000    -101.211157     -2754.0956
   6   2.0000    -101.184845     -2753.3796
   7   2.0000     -10.203059      -277.6394
   8   2.0000     -10.165740      -276.6239
   9   2.0000     -10.165321      -276.6125
  10   2.0000     -10.137563      -275.8571
  11   2.0000     -10.136509      -275.8284
  12   2.0000     -10.125376      -275.5255
  13   2.0000     -10.093236      -274.6509
  14   2.0000     -10.092042      -274.6184
  15   2.0000     -10.070728      -274.0384
  16   2.0000     -10.068307      -273.9726
  17   2.0000      -9.405998      -255.9502
  18   2.0000      -9.405240      -255.9296
  19   2.0000      -9.393075      -255.5986
  20   2.0000      -9.388576      -255.4761
  21   2.0000      -9.387527      -255.4476
  22   2.0000      -9.387100      -255.4360
  23   2.0000      -9.360841      -254.7214
  24   2.0000      -7.151297      -194.5967
  25   2.0000      -7.150507      -194.5752
  26   2.0000      -7.141014      -194.3169
  27   2.0000      -7.140277      -194.2968
  28   2.0000      -7.140121      -194.2926
  29   2.0000      -7.139389      -194.2727
  30   2.0000      -7.138395      -194.2456
  31   2.0000      -7.133918      -194.1238
  32   2.0000      -7.133112      -194.1018
  33   2.0000      -7.132471      -194.0844
  34   2.0000      -7.127652      -193.9533
  35   2.0000      -7.127586      -193.9515
  36   2.0000      -7.123144      -193.8306
  37   2.0000      -7.123027      -193.8274
  38   2.0000      -7.121953      -193.7982
  39   2.0000      -7.121915      -193.7971
  40   2.0000      -7.121698      -193.7912
  41   2.0000      -7.121508      -193.7861
  42   2.0000      -7.105647      -193.3545
  43   2.0000      -7.095698      -193.0838
  44   2.0000      -7.095609      -193.0813
  45   2.0000      -0.963745       -26.2248
  46   2.0000      -0.886239       -24.1158
  47   2.0000      -0.872967       -23.7546
  48   2.0000      -0.869689       -23.6654
  49   2.0000      -0.838841       -22.8260
  50   2.0000      -0.835520       -22.7357
  51   2.0000      -0.808181       -21.9917
  52   2.0000      -0.807586       -21.9755
  53   2.0000      -0.783681       -21.3250
  54   2.0000      -0.727950       -19.8085
  55   2.0000      -0.712902       -19.3991
  56   2.0000      -0.668603       -18.1936
  57   2.0000      -0.654388       -17.8068
  58   2.0000      -0.580660       -15.8005
  59   2.0000      -0.566782       -15.4229
  60   2.0000      -0.549946       -14.9648
  61   2.0000      -0.525144       -14.2899
  62   2.0000      -0.522076       -14.2064
  63   2.0000      -0.503638       -13.7047
  64   2.0000      -0.493295       -13.4232
  65   2.0000      -0.456833       -12.4311
  66   2.0000      -0.452252       -12.3064
  67   2.0000      -0.447152       -12.1676
  68   2.0000      -0.427907       -11.6440
  69   2.0000      -0.418868       -11.3980
  70   2.0000      -0.413050       -11.2397
  71   2.0000      -0.406252       -11.0547
  72   2.0000      -0.388812       -10.5801
  73   2.0000      -0.381610       -10.3841
  74   2.0000      -0.371161       -10.0998
  75   2.0000      -0.366199        -9.9648
  76   2.0000      -0.363823        -9.9001
  77   2.0000      -0.344575        -9.3764
  78   2.0000      -0.332963        -9.0604
  79   2.0000      -0.324474        -8.8294
  80   2.0000      -0.318145        -8.6572
  81   2.0000      -0.315154        -8.5758
  82   2.0000      -0.310787        -8.4570
  83   2.0000      -0.305019        -8.3000
  84   2.0000      -0.302847        -8.2409
  85   2.0000      -0.297988        -8.1087
  86   2.0000      -0.294361        -8.0100
  87   2.0000      -0.292710        -7.9650
  88   2.0000      -0.281865        -7.6699
  89   2.0000      -0.279411        -7.6032
  90   2.0000      -0.264328        -7.1927
  91   2.0000      -0.246445        -6.7061
  92   0.0000      -0.079902        -2.1742
  93   0.0000      -0.076340        -2.0773
  94   0.0000      -0.065848        -1.7918
  95   0.0000      -0.039904        -1.0858
  96   0.0000      -0.025829        -0.7028

MULLIKEN ATOMIC CHARGES
-----------------------
   0 C :   -0.234196
   1 C :   -0.203297
   2 C :    0.142097
   3 H :    0.126876
   4 C :   -0.120215
   5 H :    0.127249
   6 C :    0.000510
   7 H :    0.120086
   8 C :    0.263079
   9 C :   -0.105090
  10 C :   -0.202230
  11 C :    0.271820
  12 C :    0.111223
  13 Cl:   -0.083264
  14 Cl:   -0.089805
  15 Cl:   -0.076788
  16 Cl:   -0.019055
  17 Cl:   -0.021224
  18 Cl:   -0.084260
  19 Cl:   -0.197913
  20 H :    0.141114
  21 H :    0.133283
Sum of atomic charges:    0.0000000

LOEWDIN ATOMIC CHARGES
----------------------
   0 C :   -0.107716
   1 C :   -0.143291
   2 C :   -0.387413
   3 H :    0.146778
   4 C :   -0.172999
   5 H :    0.160150
   6 C :   -0.164655
   7 H :    0.162206
   8 C :   -0.485786
   9 C :   -0.482115
  10 C :   -0.481434
  11 C :   -0.489985
  12 C :   -0.701203
  13 Cl:    0.402785
  14 Cl:    0.402969
  15 Cl:    0.415047
  16 Cl:    0.479575
  17 Cl:    0.487168
  18 Cl:    0.409458
  19 Cl:    0.258063
  20 H :    0.147501
  21 H :    0.144898

  Mayer bond orders larger than 0.100000
B(  0-C ,  1-C ) :   1.8609 B(  0-C ,  6-C ) :   0.9054 B(  0-C , 20-H ) :   0.9566
B(  1-C ,  2-C ) :   0.9992 B(  1-C , 21-H ) :   0.9676 B(  2-C ,  3-H ) :   0.9514
B(  2-C ,  4-C ) :   0.9383 B(  2-C , 19-Cl) :   0.8873 B(  4-C ,  5-H ) :   0.9240
B(  4-C ,  6-C ) :   1.0166 B(  4-C , 11-C ) :   0.9495 B(  6-C ,  7-H ) :   0.9137
B(  6-C ,  8-C ) :   0.9147 B(  8-C ,  9-C ) :   0.8675 B(  8-C , 12-C ) :   1.0040
B(  8-C , 18-Cl) :   1.1082 B(  9-C , 10-C ) :   1.6448 B(  9-C , 17-Cl) :   1.1853
B( 10-C , 11-C ) :   0.8338 B( 10-C , 16-Cl) :   1.2036 B( 11-C , 12-C ) :   0.9920
B( 11-C , 15-Cl) :   1.1189 B( 12-C , 13-Cl) :   1.0879 B( 12-C , 14-Cl) :   1.0604

Dispersion correction           -0.016860491
FINAL SINGLE POINT ENERGY     -3605.252138883508

DIPOLE MOMENT
-------------

Method             : SCF
Type of density    : Electron Density
Multiplicity       :   1
Irrep              :   0
Energy             : -3605.2504218751196277 Eh
Relativity type    :
Basis              : AO
                                X                 Y                 Z
Electronic contribution:     -9.483326182      -4.998048668       7.883011794
Nuclear contribution   :      9.511409064       5.735288572      -8.178091752
                        -----------------------------------------
Total Dipole Moment    :      0.028082883       0.737239904      -0.295079958
                        -----------------------------------------
Magnitude (a.u.)       :      0.794596443
Magnitude (Debye)      :      2.019703648

VIBRATIONAL FREQUENCIES
-----------------------

Scaling factor for frequencies =  1.000000000  (already applied!)

     0:       0.00 cm**-1
     1:       0.00 cm**-1
     2:       0.00 cm**-1
     3:       0.00 cm**-1
     4:       0.00 cm**-1
     5:       0.00 cm**-1
     6:      66.06 cm**-1
     7:      86.20 cm**-1
     8:      92.08 cm**-1
     9:     104.96 cm**-1
    10:     126.36 cm**-1
    11:     141.18 cm**-1
    12:     155.87 cm**-1
    13:     162.10 cm**-1
    14:     171.56 cm**-1
    15:     175.88 cm**-1
    16:     195.85 cm**-1
    17:     223.41 cm**-1
    18:     256.18 cm**-1
    19:     270.91 cm**-1
    20:     305.21 cm**-1
    21:     333.14 cm**-1
    22:     347.83 cm**-1
    23:     364.30 cm**-1
    24:     376.27 cm**-1
    25:     396.48 cm**-1
    26:     449.16 cm**-1
    27:     537.17 cm**-1
    28:     540.80 cm**-1
    29:     626.41 cm**-1
    30:     643.55 cm**-1
    31:     683.49 cm**-1
    32:     727.61 cm**-1
    33:     740.43 cm**-1
    34:     774.17 cm**-1
    35:     783.39 cm**-1
    36:     828.99 cm**-1
    37:     843.14 cm**-1
    38:     882.56 cm**-1
    39:     889.59 cm**-1
    40:     914.32 cm**-1
    41:     969.04 cm**-1
    42:     978.00 cm**-1
    43:     988.35 cm**-1
    44:    1013.86 cm**-1
    45:    1041.01 cm**-1
    46:    1051.23 cm**-1
    47:    1087.00 cm**-1
    48:    1092.63 cm**-1
    49:    1104.86 cm**-1
    50:    1132.41 cm**-1
    51:    1162.04 cm**-1
    52:    1224.16 cm**-1
    53:    1242.06 cm**-1
    54:    1269.36 cm**-1
    55:    1286.56 cm**-1
    56:    1304.38 cm**-1
    57:    1324.55 cm**-1
    58:    1372.61 cm**-1
    59:    1623.68 cm**-1
    60:    1653.56 cm**-1
    61:    3070.16 cm**-1
    62:    3089.09 cm**-1
    63:    3119.28 cm**-1
    64:    3185.99 cm**-1
    65:    3208.12 cm**-1

IR SPECTRUM
-----------

 Mode   freq       eps      Int      T**2         TX        TY        TZ
       cm**-1   L/(mol*cm) km/mol    a.u.
----------------------------------------------------------------------------
  6:     66.06   0.000142    0.72  0.000669  ( 0.009004  0.006252  0.023433)
  7:     86.20   0.000094    0.48  0.000342  (-0.003853  0.007242 -0.016564)
  8:     92.08   0.000017    0.09  0.000058  ( 0.003706 -0.006668 -0.000035)
  9:    104.96   0.000047    0.24  0.000139  (-0.000254  0.011669 -0.001703)
 10:    126.36   0.000004    0.02  0.000010  ( 0.000228  0.001795  0.002568)
 11:    141.18   0.000010    0.05  0.000023  ( 0.001264  0.003957  0.002330)
 12:    155.87   0.000052    0.26  0.000104  (-0.006613 -0.007114  0.003029)
 13:    162.10   0.000048    0.24  0.000093  ( 0.002366  0.009115 -0.001982)
 14:    171.56   0.000016    0.08  0.000029  (-0.003957  0.000418  0.003589)
 15:    175.88   0.000054    0.27  0.000096  (-0.003655 -0.008759 -0.002433)
 16:    195.85   0.000022    0.11  0.000036  (-0.002070 -0.005384 -0.001532)
 17:    223.41   0.000054    0.27  0.000076  (-0.005699  0.006590 -0.000216)
 18:    256.18   0.000399    2.02  0.000486  ( 0.006914  0.019073 -0.008633)
 19:    270.91   0.000458    2.31  0.000527  (-0.022766 -0.002662 -0.001291)
 20:    305.21   0.000773    3.91  0.000790  (-0.027645 -0.000905  0.005009)
 21:    333.14   0.000464    2.34  0.000434  ( 0.015558 -0.000383 -0.013860)
 22:    347.83   0.000281    1.42  0.000252  (-0.014546  0.004609  0.004423)
 23:    364.30   0.000034    0.17  0.000029  (-0.004257 -0.001889 -0.002754)
 24:    376.27   0.000805    4.07  0.000668  ( 0.021459 -0.008421 -0.011676)
 25:    396.48   0.000519    2.62  0.000408  (-0.010400 -0.015972  0.006714)
 26:    449.16   0.001754    8.87  0.001219  (-0.030557  0.012641 -0.011191)
 27:    537.17   0.000935    4.72  0.000543  (-0.013082  0.005260  0.018552)
 28:    540.80   0.007118   35.97  0.004107  (-0.056648  0.021183  0.021203)
 29:    626.41   0.001141    5.76  0.000568  ( 0.011956 -0.019299  0.007272)
 30:    643.55   0.009676   48.90  0.004692  ( 0.033744  0.041241  0.043041)
 31:    683.49   0.003496   17.67  0.001596  (-0.025099  0.025773 -0.017373)
 32:    727.61   0.007936   40.10  0.003404  ( 0.029267  0.021302 -0.045751)
 33:    740.43   0.001880    9.50  0.000792  (-0.016312 -0.001822 -0.022867)
 34:    774.17   0.022437  113.39  0.009044  (-0.058926  0.053333  0.052225)
 35:    783.39   0.003174   16.04  0.001264  (-0.004886 -0.016628  0.031049)
 36:    828.99   0.005342   27.00  0.002011  ( 0.039974 -0.012857  0.015740)
 37:    843.14   0.004578   23.13  0.001694  ( 0.018870 -0.020626 -0.030212)
 38:    882.56   0.001895    9.57  0.000670  ( 0.007582 -0.000569 -0.024741)
 39:    889.59   0.005155   26.05  0.001809  (-0.038598  0.017701  0.002322)
 40:    914.32   0.000692    3.50  0.000236  ( 0.007426 -0.002583 -0.013209)
 41:    969.04   0.000332    1.68  0.000107  (-0.002699 -0.005495 -0.008330)
 42:    978.00   0.002326   11.75  0.000742  ( 0.005425 -0.007764  0.025541)
 43:    988.35   0.003394   17.15  0.001072  ( 0.004315 -0.009249  0.031104)
 44:   1013.86   0.003508   17.73  0.001080  ( 0.026597 -0.006787  0.018065)
 45:   1041.01   0.010107   51.08  0.003030  ( 0.044595  0.024879  0.020548)
 46:   1051.23   0.010455   52.84  0.003104  ( 0.009161 -0.053529  0.012427)
 47:   1087.00   0.001185    5.99  0.000340  ( 0.016249  0.004338  0.007565)
 48:   1092.63   0.002003   10.12  0.000572  (-0.002354  0.003713  0.023513)
 49:   1104.86   0.002689   13.59  0.000760  ( 0.023400 -0.006683 -0.012938)
 50:   1132.41   0.001753    8.86  0.000483  ( 0.016825 -0.011638  0.008036)
 51:   1162.04   0.007739   39.11  0.002078  ( 0.029905 -0.019978  0.028014)
 52:   1224.16   0.000960    4.85  0.000245  ( 0.010985 -0.002626 -0.010819)
 53:   1242.06   0.002156   10.89  0.000542  (-0.019239  0.012963 -0.001853)
 54:   1269.36   0.007701   38.92  0.001893  (-0.029753  0.020080 -0.024592)
 55:   1286.56   0.000519    2.62  0.000126  (-0.010109 -0.004836  0.000569)
 56:   1304.38   0.001567    7.92  0.000375  (-0.016181 -0.008189  0.006777)
 57:   1324.55   0.001504    7.60  0.000354  (-0.010062 -0.004373  0.015297)
 58:   1372.61   0.001926    9.74  0.000438  (-0.017025  0.000886 -0.012138)
 59:   1623.68   0.010139   51.24  0.001949  (-0.000829  0.037331  0.023547)
 60:   1653.56   0.000436    2.20  0.000082  (-0.008818  0.002087  0.000357)
 61:   3070.16   0.000394    1.99  0.000040  (-0.002929 -0.003005 -0.004736)
 62:   3089.09   0.000237    1.20  0.000024  (-0.002144  0.000341  0.004388)
 63:   3119.28   0.000019    0.10  0.000002  (-0.000800  0.000243  0.001104)
 64:   3185.99   0.000090    0.46  0.000009  (-0.000152  0.000771 -0.002867)
 65:   3208.12   0.000582    2.94  0.000057  (-0.002912 -0.006309  0.002888)

--------------------------
THERMOCHEMISTRY AT 298.15K
--------------------------

Temperature         ...   298.15 K
Pressure            ...     1.00 atm
Total Mass          ...   373.32 AMU
Quasi RRHO          ...     True
Cut-Off Frequency   ...     1.00 cm^-1

Throughout the following assumptions are being made:
  (1) The electronic state is orbitally nondegenerate
  (2) There are no thermally accessible electronically excited states
  (3) Hindered rotations indicated by low frequency modes are not
      treated as such but are treated as vibrations and this may
      cause some error
  (4) All equations used are the standard statistical mechanics
      equations for an ideal gas
  (5) All vibrations are strictly harmonic

freq.      66.06  E(vib)   ...       0.50
freq.      86.20  E(vib)   ...       0.48
freq.      92.08  E(vib)   ...       0.47
freq.     104.96  E(vib)   ...       0.46
freq.     126.36  E(vib)   ...       0.43
freq.     141.18  E(vib)   ...       0.41
freq.     155.87  E(vib)   ...       0.40
freq.     162.10  E(vib)   ...       0.39
freq.     171.56  E(vib)   ...       0.38
freq.     175.88  E(vib)   ...       0.38
freq.     195.85  E(vib)   ...       0.36
freq.     223.41  E(vib)   ...       0.33
freq.     256.18  E(vib)   ...       0.30
freq.     270.91  E(vib)   ...       0.29
freq.     305.21  E(vib)   ...       0.26
freq.     333.14  E(vib)   ...       0.24
freq.     347.83  E(vib)   ...       0.23
freq.     364.30  E(vib)   ...       0.22
freq.     376.27  E(vib)   ...       0.21
freq.     396.48  E(vib)   ...       0.20
freq.     449.16  E(vib)   ...       0.17
freq.     537.17  E(vib)   ...       0.12
freq.     540.80  E(vib)   ...       0.12
freq.     626.41  E(vib)   ...       0.09
freq.     643.55  E(vib)   ...       0.09
freq.     683.49  E(vib)   ...       0.07
freq.     727.61  E(vib)   ...       0.06
freq.     740.43  E(vib)   ...       0.06
freq.     774.17  E(vib)   ...       0.05
freq.     783.39  E(vib)   ...       0.05
freq.     828.99  E(vib)   ...       0.04
freq.     843.14  E(vib)   ...       0.04
freq.     882.56  E(vib)   ...       0.04
freq.     889.59  E(vib)   ...       0.04
freq.     914.32  E(vib)   ...       0.03
freq.     969.04  E(vib)   ...       0.03
freq.     978.00  E(vib)   ...       0.03
freq.     988.35  E(vib)   ...       0.02
freq.    1013.86  E(vib)   ...       0.02
freq.    1041.01  E(vib)   ...       0.02
freq.    1051.23  E(vib)   ...       0.02
freq.    1087.00  E(vib)   ...       0.02
freq.    1092.63  E(vib)   ...       0.02
freq.    1104.86  E(vib)   ...       0.02
freq.    1132.41  E(vib)   ...       0.01
freq.    1162.04  E(vib)   ...       0.01
freq.    1224.16  E(vib)   ...       0.01
freq.    1242.06  E(vib)   ...       0.01
freq.    1269.36  E(vib)   ...       0.01
freq.    1286.56  E(vib)   ...       0.01
freq.    1304.38  E(vib)   ...       0.01
freq.    1324.55  E(vib)   ...       0.01
freq.    1372.61  E(vib)   ...       0.01
freq.    1623.68  E(vib)   ...       0.00
freq.    1653.56  E(vib)   ...       0.00
freq.    3070.16  E(vib)   ...       0.00
freq.    3089.09  E(vib)   ...       0.00
freq.    3119.28  E(vib)   ...       0.00
freq.    3185.99  E(vib)   ...       0.00
freq.    3208.12  E(vib)   ...       0.00

------------
INNER ENERGY
------------

The inner energy is: U= E(el) + E(ZPE) + E(vib) + E(rot) + E(trans)
    E(el)   - is the total energy from the electronic structure calculation
              = E(kin-el) + E(nuc-el) + E(el-el) + E(nuc-nuc)
    E(ZPE)  - the the zero temperature vibrational energy from the frequency calculation
    E(vib)  - the the finite temperature correction to E(ZPE) due to population
              of excited vibrational states
    E(rot)  - is the rotational thermal energy
    E(trans)- is the translational thermal energy

Summary of contributions to the inner energy U:
Electronic energy                ...  -3605.25213888 Eh
Zero point energy                ...      0.12486779 Eh      78.36 kcal/mol
Thermal vibrational correction   ...      0.01317786 Eh       8.27 kcal/mol
Thermal rotational correction    ...      0.00141627 Eh       0.89 kcal/mol
Thermal translational correction ...      0.00141627 Eh       0.89 kcal/mol
-----------------------------------------------------------------------
Total thermal energy                  -3605.11126068 Eh

Summary of corrections to the electronic energy:
(perhaps to be used in another calculation)
Total thermal correction                  0.01601041 Eh      10.05 kcal/mol
Non-thermal (ZPE) correction              0.12486779 Eh      78.36 kcal/mol
-----------------------------------------------------------------------
Total correction                          0.14087820 Eh      88.40 kcal/mol

--------
ENTHALPY
--------

The enthalpy is H = U + kB*T
                kB is Boltzmann's constant
Total thermal energy              ...  -3605.11126068 Eh
Thermal Enthalpy correction       ...      0.00094421 Eh       0.59 kcal/mol
-----------------------------------------------------------------------
Total Enthalpy                    ...  -3605.11031647 Eh

Note: Only C1 symmetry has been detected, increase convergence thresholds
      if your molecule has a higher symmetry. Symmetry factor of 1.0 is
      used for the rotational entropy correction.

Note: Rotational entropy computed according to Herzberg
Infrared and Raman Spectra, Chapter V,1, Van Nostrand Reinhold, 1945
Point Group:  C1, Symmetry Number:   1
Rotational constants in cm-1:     0.010239     0.008004     0.007504

Vibrational entropy computed according to the QRRHO of S. Grimme
Chem.Eur.J. 2012 18 9955 using a reference frequency of 100.0 cm-1

-------
ENTROPY
-------

The entropy contributions are T*S = T*(S(el)+S(vib)+S(rot)+S(trans))
     S(el)   - electronic entropy
     S(vib)  - vibrational entropy
     S(rot)  - rotational entropy
     S(trans)- translational entropy
The entropies will be listed as multiplied by the temperature to get
units of energy

Electronic entropy                ...      0.00000000 Eh      0.00 kcal/mol
Vibrational entropy               ...      0.02316151 Eh     14.53 kcal/mol
Rotational entropy                ...      0.01626250 Eh     10.20 kcal/mol
Translational entropy             ...      0.02073685 Eh     13.01 kcal/mol
-----------------------------------------------------------------------
Final entropy term                ...      0.06016086 Eh     37.75 kcal/mol

In case the symmetry of your molecule has not been determined correctly
or in case you have a reason to use a different symmetry number we print
out the resulting rotational entropy values for sn=1,12:

 non-linear molecules -----------------------------------

                             ****ORCA TERMINATED NORMALLY****
TOTAL RUN TIME: 0 days 0 hours 55 minutes 57 seconds 598 msec
