                         Program Version 6.0.1  -  RELEASE   -
|  1> ! pbe def2-sv(p) def2/J RI DEFGRID1 loosescf d4 GCP(DFT/SV(P)) printgap
|  2> %output
|  3>     printlevel normal
|  4> end
|  5> * xyz 0 1
|  6> C -2.2086570864 -1.2188759326 0.110904314
|  7> C -0.8440545873 -0.5883742664 0.4294712286
|  8> H -0.8055939853 -0.3160298174 1.4980677443
|  9> C -0.6128231805 0.6839272774 -0.3942293999
| 10> H -0.648503611 0.4035004069 -1.4629348272
| 11> C 0.7788880377 1.2733889542 -0.0836045609
| 12> H 0.648938975 2.0553818066 0.6760469212
| 13> C 1.7375250071 0.2172321748 0.4901317051
| 14> H 2.7603062305 0.5142163453 0.2104620601
| 15> C 1.4320534218 -1.1378751267 -0.165300665
| 16> H 2.0875477032 -1.9306571776 0.2244864193
| 17> O 0.1304716455 -1.5803552201 0.1552604095
| 18> O 1.662099804 -1.0856820555 -1.5341961401
| 19> O 1.5832646441 0.1877404583 1.8857801973
| 20> O 1.3753357621 1.7910891869 -1.2537674609
| 21> O -1.5658524472 1.6799529936 -0.1267618589
| 22> O -3.2861080487 -0.4077475119 0.5218286227
| 23> H -2.2482990708 -2.2095872323 0.5761751176
| 24> H -2.3132945968 -1.3421929796 -0.9693045154
| 25> H 1.5110404048 -0.1858505356 -1.8627787431
| 26> H 2.1412407858 -0.5089385845 2.2497957541
| 27> H 0.8289013163 2.5194687225 -1.5709713349
| 28> H -2.4400591265 1.2585046735 -0.0850735012
| 29> H -3.293962127 -0.3612140252 1.4851290259
| 30> *
| 31>
| 32>                          ****END OF INPUT****

CARTESIAN COORDINATES (ANGSTROEM)
---------------------------------
  C     -2.208657   -1.218876    0.110904
  C     -0.844055   -0.588374    0.429471
  H     -0.805594   -0.316030    1.498068
  C     -0.612823    0.683927   -0.394229
  H     -0.648504    0.403500   -1.462935
  C      0.778888    1.273389   -0.083605
  H      0.648939    2.055382    0.676047
  C      1.737525    0.217232    0.490132
  H      2.760306    0.514216    0.210462
  C      1.432053   -1.137875   -0.165301
  H      2.087548   -1.930657    0.224486
  O      0.130472   -1.580355    0.155260
  O      1.662100   -1.085682   -1.534196
  O      1.583265    0.187740    1.885780
  O      1.375336    1.791089   -1.253767
  O     -1.565852    1.679953   -0.126762
  O     -3.286108   -0.407748    0.521829
  H     -2.248299   -2.209587    0.576175
  H     -2.313295   -1.342193   -0.969305
  H      1.511040   -0.185851   -1.862779
  H      2.141241   -0.508939    2.249796
  H      0.828901    2.519469   -1.570971
  H     -2.440059    1.258505   -0.085074
  H     -3.293962   -0.361214    1.485129

 Total Charge           Charge          ....    0
 Multiplicity           Mult            ....    1
 Number of Electrons    NEL             ....   96
 Basis Dimension        Dim             ....  192

ORBITAL ENERGIES
----------------

  NO   OCC          E(Eh)            E(eV)
   0   2.0000     -18.778151      -510.9795
   1   2.0000     -18.771542      -510.7996
   2   2.0000     -18.765721      -510.6412
   3   2.0000     -18.763105      -510.5700
   4   2.0000     -18.747124      -510.1352
   5   2.0000     -18.743488      -510.0362
   6   2.0000      -9.982300      -271.6322
   7   2.0000      -9.949511      -270.7399
   8   2.0000      -9.948987      -270.7257
   9   2.0000      -9.942129      -270.5391
  10   2.0000      -9.941859      -270.5317
  11   2.0000      -9.941723      -270.5280
  12   2.0000      -0.977140       -26.5893
  13   2.0000      -0.953227       -25.9386
  14   2.0000      -0.948203       -25.8019
  15   2.0000      -0.938552       -25.5393
  16   2.0000      -0.921419       -25.0731
  17   2.0000      -0.906024       -24.6542
  18   2.0000      -0.706903       -19.2358
  19   2.0000      -0.693114       -18.8606
  20   2.0000      -0.622635       -16.9427
  21   2.0000      -0.592307       -16.1175
  22   2.0000      -0.567628       -15.4459
  23   2.0000      -0.521269       -14.1845
  24   2.0000      -0.515685       -14.0325
  25   2.0000      -0.494999       -13.4696
  26   2.0000      -0.478493       -13.0204
  27   2.0000      -0.461744       -12.5647
  28   2.0000      -0.457311       -12.4441
  29   2.0000      -0.430004       -11.7010
  30   2.0000      -0.425980       -11.5915
  31   2.0000      -0.401281       -10.9194
  32   2.0000      -0.388511       -10.5719
  33   2.0000      -0.372992       -10.1496
  34   2.0000      -0.366325        -9.9682
  35   2.0000      -0.354245        -9.6395
  36   2.0000      -0.328619        -8.9422
  37   2.0000      -0.325634        -8.8610
  38   2.0000      -0.316186        -8.6039
  39   2.0000      -0.300235        -8.1698
  40   2.0000      -0.287704        -7.8288
  41   2.0000      -0.272601        -7.4179
  42   2.0000      -0.254489        -6.9250
  43   2.0000      -0.246703        -6.7131
  44   2.0000      -0.232862        -6.3365
  45   2.0000      -0.230080        -6.2608
  46   2.0000      -0.216267        -5.8849
  47   2.0000      -0.207875        -5.6566
  48   0.0000       0.010090         0.2746
  49   0.0000       0.011425         0.3109
  50   0.0000       0.031539         0.8582
  51   0.0000       0.050749         1.3809
  52   0.0000       0.063971         1.7407

MULLIKEN ATOMIC CHARGES
-----------------------
   0 C :    0.066152
   1 C :    0.012570
   2 H :    0.056353
   3 C :    0.031353
   4 H :    0.038090
   5 C :    0.052378
   6 H :    0.084065
   7 C :    0.005228
   8 H :    0.087951
   9 C :    0.175275
  10 H :    0.055719
  11 O :   -0.305296
  12 O :   -0.393844
  13 O :   -0.406314
  14 O :   -0.415404
  15 O :   -0.432438
  16 O :   -0.435248
  17 H :    0.098117
  18 H :    0.091678
  19 H :    0.304024
  20 H :    0.307266
  21 H :    0.316597
  22 H :    0.297605
  23 H :    0.308122
Sum of atomic charges:   -0.0000000

LOEWDIN ATOMIC CHARGES
----------------------
   0 C :   -0.128360
   1 C :   -0.083822
   2 H :    0.101475
   3 C :   -0.083374
   4 H :    0.097104
   5 C :   -0.063514
   6 H :    0.121892
   7 C :   -0.089660
   8 H :    0.113170
   9 C :   -0.009203
  10 H :    0.099044
  11 O :   -0.145588
  12 O :   -0.306404
  13 O :   -0.307505
  14 O :   -0.311472
  15 O :   -0.334168
  16 O :   -0.319120
  17 H :    0.109463
  18 H :    0.118964
  19 H :    0.271513
  20 H :    0.291083
  21 H :    0.297106
  22 H :    0.270763
  23 H :    0.290615

  Mayer bond orders larger than 0.100000
B(  0-C ,  1-C ) :   1.0179 B(  0-C , 16-O ) :   1.0178 B(  0-C , 17-H ) :   0.9223
B(  0-C , 18-H ) :   0.9140 B(  1-C ,  2-H ) :   0.8651 B(  1-C ,  3-C ) :   1.0756
B(  1-C , 11-O ) :   0.9885 B(  3-C ,  4-H ) :   0.8452 B(  3-C ,  5-C ) :   1.0296
B(  3-C , 15-O ) :   1.0942 B(  5-C ,  6-H ) :   0.8549 B(  5-C ,  7-C ) :   1.0143
B(  5-C , 14-O ) :   1.0410 B(  7-C ,  8-H ) :   0.8870 B(  7-C ,  9-C ) :   1.0261
B(  7-C , 13-O ) :   1.0327 B(  9-C , 10-H ) :   0.9014 B(  9-C , 11-O ) :   1.0480
B(  9-C , 12-O ) :   1.1460 B( 12-O , 19-H ) :   0.8085 B( 13-O , 20-H ) :   0.8466
B( 14-O , 21-H ) :   0.8430 B( 15-O , 22-H ) :   0.7975 B( 16-O , 22-H ) :   0.1262
B( 16-O , 23-H ) :   0.8422

Dispersion correction           -0.025011661
FINAL SINGLE POINT ENERGY      -685.694810162847

DIPOLE MOMENT
-------------

Method             : SCF
Type of density    : Electron Density
Multiplicity       :   1
Irrep              :   0
Energy             :  -685.8283382843562777 Eh
Relativity type    :
Basis              : AO
                                X                 Y                 Z
Electronic contribution:      1.525516639       0.240334296      -0.207684738
Nuclear contribution   :     -1.663683938      -0.088338841       0.903968203
                        -----------------------------------------
Total Dipole Moment    :     -0.138167299       0.151995455       0.696283466
                        -----------------------------------------
Magnitude (a.u.)       :      0.725950057
Magnitude (Debye)      :      1.845218404

Rotational constants in cm-1:             0.043368             0.025328             0.021871
Rotational constants in MHz :          1300.147840           759.323856           655.662042

                             ****ORCA TERMINATED NORMALLY****
TOTAL RUN TIME: 0 days 0 hours 0 minutes 8 seconds 364 msec
