                         Program Version 6.0.1  -  RELEASE   -
|  1> ! r2scan-3c def2/J RI DEFGRID2 scfconv6 printgap
|  2> %output
|  3>     printlevel normal
|  4> end
|  5> * xyz 0 1
|  6> C -3.6538211019 -0.1738489103 -0.1336523979
|  7> C -2.1629417328 -0.074203458 -0.017640328
|  8> C -1.4764797024 0.9864218143 -0.5935678793
|  9> C -0.1006286276 1.0804897214 -0.5040841943
| 10> C 0.650967182 0.116190712 0.1611939109
| 11> C -0.0435645016 -0.9371915373 0.7456451933
| 12> C -1.4210946357 -1.0318533383 0.6563364092
| 13> C 2.1594378646 0.2324468182 0.2796707227
| 14> C 2.7810120137 0.9832250382 -0.9015387915
| 15> C 2.8408626028 -1.1325252879 0.4124495013
| 16> H -4.1231245432 0.7722570524 0.1313413149
| 17> H -3.9365345363 -0.4095048486 -1.15989627
| 18> H -4.0436676669 -0.9529698572 0.5168618525
| 19> H -2.0282174595 1.7530451347 -1.1200139785
| 20> H 0.3827147289 1.928325585 -0.9628223837
| 21> H 0.484448456 -1.7056604919 1.2874380811
| 22> H -1.9247901951 -1.8675789587 1.1223339862
| 23> H 2.3726784569 0.8057420266 1.1930089576
| 24> H 2.4935059279 2.0308134113 -0.9085727359
| 25> H 2.4764958913 0.5290441447 -1.8418745421
| 26> H 3.8661487747 0.9419478667 -0.8352442258
| 27> H 3.9215846919 -1.010464624 0.3786545097
| 28> H 2.5429229736 -1.7859205737 -0.4048639119
| 29> H 2.595402339 -1.6148081175 1.3546180037
| 30> *
| 31>
| 32>                          ****END OF INPUT****

CARTESIAN COORDINATES (ANGSTROEM)
---------------------------------
  C     -3.653821   -0.173849   -0.133652
  C     -2.162942   -0.074203   -0.017640
  C     -1.476480    0.986422   -0.593568
  C     -0.100629    1.080490   -0.504084
  C      0.650967    0.116191    0.161194
  C     -0.043565   -0.937192    0.745645
  C     -1.421095   -1.031853    0.656336
  C      2.159438    0.232447    0.279671
  C      2.781012    0.983225   -0.901539
  C      2.840863   -1.132525    0.412450
  H     -4.123125    0.772257    0.131341
  H     -3.936535   -0.409505   -1.159896
  H     -4.043668   -0.952970    0.516862
  H     -2.028217    1.753045   -1.120014
  H      0.382715    1.928326   -0.962822
  H      0.484448   -1.705660    1.287438
  H     -1.924790   -1.867579    1.122334
  H      2.372678    0.805742    1.193009
  H      2.493506    2.030813   -0.908573
  H      2.476496    0.529044   -1.841875
  H      3.866149    0.941948   -0.835244
  H      3.921585   -1.010465    0.378655
  H      2.542923   -1.785921   -0.404864
  H      2.595402   -1.614808    1.354618

 Total Charge           Charge          ....    0
 Multiplicity           Mult            ....    1
 Number of Electrons    NEL             ....   74
 Basis Dimension        Dim             ....  260

ORBITAL ENERGIES
----------------

  NO   OCC          E(Eh)            E(eV)
   0   2.0000     -10.040717      -273.2218
   1   2.0000     -10.035527      -273.0806
   2   2.0000     -10.034172      -273.0437
   3   2.0000     -10.025306      -272.8025
   4   2.0000     -10.025070      -272.7960
   5   2.0000     -10.024720      -272.7865
   6   2.0000     -10.024556      -272.7820
   7   2.0000     -10.024498      -272.7805
   8   2.0000     -10.017527      -272.5908
   9   2.0000     -10.017510      -272.5903
  10   2.0000      -0.827213       -22.5096
  11   2.0000      -0.774255       -21.0685
  12   2.0000      -0.721812       -19.6415
  13   2.0000      -0.709701       -19.3119
  14   2.0000      -0.651898       -17.7391
  15   2.0000      -0.648763       -17.6537
  16   2.0000      -0.570618       -15.5273
  17   2.0000      -0.568100       -15.4588
  18   2.0000      -0.527233       -14.3467
  19   2.0000      -0.466089       -12.6829
  20   2.0000      -0.432845       -11.7783
  21   2.0000      -0.430638       -11.7182
  22   2.0000      -0.407455       -11.0874
  23   2.0000      -0.398994       -10.8572
  24   2.0000      -0.389608       -10.6018
  25   2.0000      -0.383080       -10.4241
  26   2.0000      -0.366513        -9.9733
  27   2.0000      -0.355818        -9.6823
  28   2.0000      -0.341003        -9.2792
  29   2.0000      -0.337189        -9.1754
  30   2.0000      -0.329439        -8.9645
  31   2.0000      -0.317945        -8.6517
  32   2.0000      -0.304916        -8.2972
  33   2.0000      -0.290762        -7.9120
  34   2.0000      -0.286958        -7.8085
  35   2.0000      -0.230152        -6.2628
  36   2.0000      -0.212897        -5.7932
  37   0.0000      -0.026982        -0.7342
  38   0.0000      -0.020537        -0.5588
  39   0.0000       0.078904         2.1471
  40   0.0000       0.089942         2.4475
  41   0.0000       0.107004         2.9117

MULLIKEN ATOMIC CHARGES
-----------------------
   0 C :   -0.540824
   1 C :    0.211656
   2 C :   -0.221015
   3 C :   -0.198514
   4 C :    0.098882
   5 C :   -0.201708
   6 C :   -0.237784
   7 C :    0.060705
   8 C :   -0.540516
   9 C :   -0.540087
  10 H :    0.155351
  11 H :    0.164138
  12 H :    0.149678
  13 H :    0.143372
  14 H :    0.134668
  15 H :    0.134267
  16 H :    0.143619
  17 H :    0.161519
  18 H :    0.142448
  19 H :    0.173423
  20 H :    0.145603
  21 H :    0.145332
  22 H :    0.173201
  23 H :    0.142584
Sum of atomic charges:    0.0000000

LOEWDIN ATOMIC CHARGES
----------------------
   0 C :   -0.391337
   1 C :   -0.104303
   2 C :   -0.161239
   3 C :   -0.153698
   4 C :   -0.087502
   5 C :   -0.154771
   6 C :   -0.164746
   7 C :   -0.216063
   8 C :   -0.411117
   9 C :   -0.411102
  10 H :    0.162603
  11 H :    0.164538
  12 H :    0.158485
  13 H :    0.167553
  14 H :    0.169397
  15 H :    0.169444
  16 H :    0.166461
  17 H :    0.168437
  18 H :    0.150968
  19 H :    0.160163
  20 H :    0.153290
  21 H :    0.153266
  22 H :    0.160223
  23 H :    0.151050

  Mayer bond orders larger than 0.100000
B(  0-C ,  1-C ) :   0.7883 B(  0-C , 10-H ) :   0.9826 B(  0-C , 11-H ) :   0.9733
B(  0-C , 12-H ) :   0.9959 B(  1-C ,  2-C ) :   1.3854 B(  1-C ,  4-C ) :   0.1035
B(  1-C ,  6-C ) :   1.4139 B(  2-C ,  3-C ) :   1.4727 B(  2-C , 13-H ) :   0.9481
B(  3-C ,  4-C ) :   1.4090 B(  3-C , 14-H ) :   0.9496 B(  4-C ,  5-C ) :   1.4240
B(  4-C ,  7-C ) :   0.8411 B(  5-C ,  6-C ) :   1.4618 B(  5-C , 15-H ) :   0.9509
B(  6-C , 16-H ) :   0.9368 B(  7-C ,  8-C ) :   0.8830 B(  7-C ,  9-C ) :   0.8836
B(  7-C , 17-H ) :   0.9279 B(  8-C , 18-H ) :   0.9595 B(  8-C , 19-H ) :   0.9941
B(  8-C , 20-H ) :   0.9766 B(  9-C , 21-H ) :   0.9766 B(  9-C , 22-H ) :   0.9939
B(  9-C , 23-H ) :   0.9596

Dispersion correction           -0.008180581
FINAL SINGLE POINT ENERGY      -389.379214328053

DIPOLE MOMENT
-------------

Method             : SCF
Type of density    : Electron Density
Multiplicity       :   1
Irrep              :   0
Energy             :  -389.3799931583162106 Eh
Relativity type    :
Basis              : AO
                                X                 Y                 Z
Electronic contribution:     -4.747025100       0.576258229       1.177323783
Nuclear contribution   :      4.765481045      -0.549514452      -1.171799526
                        -----------------------------------------
Total Dipole Moment    :      0.018455945       0.026743777       0.005524257
                        -----------------------------------------
Magnitude (a.u.)       :      0.032960111
Magnitude (Debye)      :      0.083777945

Rotational constants in cm-1:             0.110459             0.025942             0.021655
Rotational constants in MHz :          3311.472419           777.713999           649.210695

                             ****ORCA TERMINATED NORMALLY****
TOTAL RUN TIME: 0 days 0 hours 0 minutes 23 seconds 265 msec
