                         Program Version 6.0.1  -  RELEASE   -
|  1> ! pbe def2-sv(p) def2/J RI DEFGRID1 loosescf d4 GCP(DFT/SV(P)) printgap
|  2> %output
|  3>     printlevel normal
|  4> end
|  5> * xyz 0 1
|  6> C -2.6148449562 1.4527616401 -0.0121639094
|  7> O -2.2161100051 0.1060450768 0.0031715347
|  8> C -0.8809061688 -0.1807945062 0.0034670808
|  9> C -0.5545218033 -1.5376844494 0.0030548683
| 10> C 0.7700994578 -1.9228969786 0.0051154675
| 11> C 1.7823436465 -0.9812544971 0.0091883944
| 12> C 1.46696896 0.3749581981 0.0098022207
| 13> C 0.1280412796 0.7695099518 0.0102184026
| 14> N 2.465069473 1.3289456825 -0.0606739434
| 15> H -2.2723413848 1.9856409681 0.8816302234
| 16> H -3.7038908024 1.4388387911 -0.0247344263
| 17> H -2.2505143981 1.9713720692 -0.9054056518
| 18> H -1.3532398249 -2.260965223 0.001613491
| 19> H 1.0197458421 -2.9735784407 0.0063848387
| 20> H 2.817988706 -1.2877308894 0.0096782649
| 21> H -0.0948151838 1.8258344419 0.0113531004
| 22> H 3.3823537075 1.0285348879 0.2268616463
| 23> H 2.2182889457 2.2568594359 0.243648639
| 24> *
| 25>
| 26>                          ****END OF INPUT****

CARTESIAN COORDINATES (ANGSTROEM)
---------------------------------
  C     -2.614845    1.452762   -0.012164
  O     -2.216110    0.106045    0.003172
  C     -0.880906   -0.180795    0.003467
  C     -0.554522   -1.537684    0.003055
  C      0.770099   -1.922897    0.005115
  C      1.782344   -0.981254    0.009188
  C      1.466969    0.374958    0.009802
  C      0.128041    0.769510    0.010218
  N      2.465069    1.328946   -0.060674
  H     -2.272341    1.985641    0.881630
  H     -3.703891    1.438839   -0.024734
  H     -2.250514    1.971372   -0.905406
  H     -1.353240   -2.260965    0.001613
  H      1.019746   -2.973578    0.006385
  H      2.817989   -1.287731    0.009678
  H     -0.094815    1.825834    0.011353
  H      3.382354    1.028535    0.226862
  H      2.218289    2.256859    0.243649

 Total Charge           Charge          ....    0
 Multiplicity           Mult            ....    1
 Number of Electrons    NEL             ....   66
 Basis Dimension        Dim             ....  144

ORBITAL ENERGIES
----------------

  NO   OCC          E(Eh)            E(eV)
   0   2.0000     -18.774989      -510.8934
   1   2.0000     -13.992281      -380.7493
   2   2.0000      -9.938944      -270.4524
   3   2.0000      -9.934880      -270.3418
   4   2.0000      -9.926527      -270.1145
   5   2.0000      -9.881542      -268.8904
   6   2.0000      -9.876279      -268.7472
   7   2.0000      -9.871362      -268.6134
   8   2.0000      -9.865484      -268.4535
   9   2.0000      -0.959860       -26.1191
  10   2.0000      -0.832436       -22.6517
  11   2.0000      -0.748953       -20.3800
  12   2.0000      -0.669910       -18.2292
  13   2.0000      -0.653494       -17.7825
  14   2.0000      -0.613900       -16.7051
  15   2.0000      -0.538311       -14.6482
  16   2.0000      -0.531432       -14.4610
  17   2.0000      -0.484269       -13.1776
  18   2.0000      -0.467255       -12.7146
  19   2.0000      -0.425211       -11.5706
  20   2.0000      -0.414888       -11.2897
  21   2.0000      -0.413557       -11.2535
  22   2.0000      -0.408059       -11.1039
  23   2.0000      -0.374432       -10.1888
  24   2.0000      -0.358552        -9.7567
  25   2.0000      -0.340923        -9.2770
  26   2.0000      -0.319508        -8.6942
  27   2.0000      -0.303501        -8.2587
  28   2.0000      -0.294784        -8.0215
  29   2.0000      -0.275735        -7.5031
  30   2.0000      -0.248087        -6.7508
  31   2.0000      -0.193577        -5.2675
  32   2.0000      -0.164599        -4.4790
  33   0.0000      -0.013343        -0.3631
  34   0.0000      -0.001456        -0.0396
  35   0.0000       0.033171         0.9026
  36   0.0000       0.052386         1.4255
  37   0.0000       0.063290         1.7222

MULLIKEN ATOMIC CHARGES
-----------------------
   0 C :   -0.113442
   1 O :   -0.266100
   2 C :    0.266748
   3 C :   -0.121255
   4 C :   -0.062968
   5 C :   -0.126742
   6 C :    0.169690
   7 C :   -0.280526
   8 N :   -0.341540
   9 H :    0.103879
  10 H :    0.122686
  11 H :    0.106874
  12 H :    0.033268
  13 H :    0.047270
  14 H :    0.013892
  15 H :    0.007518
  16 H :    0.221409
  17 H :    0.219337
Sum of atomic charges:   -0.0000000

LOEWDIN ATOMIC CHARGES
----------------------
   0 C :   -0.205198
   1 O :   -0.089584
   2 C :    0.038524
   3 C :   -0.178586
   4 C :   -0.111176
   5 C :   -0.187223
   6 C :    0.000885
   7 C :   -0.214439
   8 N :   -0.317265
   9 H :    0.105606
  10 H :    0.120522
  11 H :    0.107090
  12 H :    0.125725
  13 H :    0.122503
  14 H :    0.115917
  15 H :    0.119425
  16 H :    0.224528
  17 H :    0.222747

  Mayer bond orders larger than 0.100000
B(  0-C ,  1-O ) :   1.0009 B(  0-C ,  9-H ) :   0.9405 B(  0-C , 10-H ) :   0.9586
B(  0-C , 11-H ) :   0.9404 B(  1-O ,  2-C ) :   1.1282 B(  2-C ,  3-C ) :   1.3471
B(  2-C ,  7-C ) :   1.3037 B(  3-C ,  4-C ) :   1.3702 B(  3-C , 12-H ) :   0.9654
B(  4-C ,  5-C ) :   1.3528 B(  4-C , 13-H ) :   0.9608 B(  5-C ,  6-C ) :   1.3448
B(  5-C , 14-H ) :   0.9629 B(  6-C ,  7-C ) :   1.2810 B(  6-C ,  8-N ) :   1.2262
B(  7-C , 15-H ) :   0.9532 B(  8-N , 16-H ) :   0.8835 B(  8-N , 17-H ) :   0.8832

Dispersion correction           -0.017646119
FINAL SINGLE POINT ENERGY      -401.251642488693

DIPOLE MOMENT
-------------

Method             : SCF
Type of density    : Electron Density
Multiplicity       :   1
Irrep              :   0
Energy             :  -401.3120234731710525 Eh
Relativity type    :
Basis              : AO
                                X                 Y                 Z
Electronic contribution:      0.640980956      -2.780580655      -0.095072885
Nuclear contribution   :     -0.241118337       3.747285557       0.422856860
                        -----------------------------------------
Total Dipole Moment    :      0.399862619       0.966704902       0.327783974
                        -----------------------------------------
Magnitude (a.u.)       :      1.096289567
Magnitude (Debye)      :      2.786546629

Rotational constants in cm-1:             0.095804             0.043403             0.030060
Rotational constants in MHz :          2872.121354          1301.193455           901.168866

                             ****ORCA TERMINATED NORMALLY****
TOTAL RUN TIME: 0 days 0 hours 0 minutes 30 seconds 536 msec
