                         Program Version 6.0.1  -  RELEASE   -
|  1> ! r2scan-3c def2/J RI DEFGRID2 scfconv6 printgap
|  2> %output
|  3>     printlevel normal
|  4> end
|  5> * xyz 0 1
|  6> C -3.0837173659 -0.015335787 -0.7091912313
|  7> O -2.3257228715 -0.1707431759 0.4680206462
|  8> C -0.9549062812 -0.0814934205 0.2654972329
|  9> C -0.2100690063 -1.2254306923 0.0088104371
| 10> C 1.157663157 -1.1433779002 -0.1552841689
| 11> C 1.8119344401 0.0860095754 -0.0701265496
| 12> C 1.0548218149 1.2305987056 0.181834895
| 13> C -0.312834982 1.1476251049 0.3459428584
| 14> N 3.188184929 0.1583876074 -0.1601956757
| 15> H -4.1286019484 -0.101593718 -0.4155102086
| 16> H -2.8456786438 -0.793715485 -1.4441943554
| 17> H -2.9135492092 0.9655050459 -1.1691919032
| 18> H -0.711388366 -2.1798461751 -0.0523084254
| 19> H 1.733652714 -2.0372432413 -0.3485393622
| 20> H 1.5506843298 2.1883782935 0.2518762798
| 21> H -0.8935028047 2.0356427407 0.5467391452
| 22> H 3.6470461853 -0.6136733533 -0.6155106215
| 23> H 3.5745608152 1.0625594689 -0.3773120881
| 24> *
| 25>
| 26>                          ****END OF INPUT****

CARTESIAN COORDINATES (ANGSTROEM)
---------------------------------
  C     -3.083717   -0.015336   -0.709191
  O     -2.325723   -0.170743    0.468021
  C     -0.954906   -0.081493    0.265497
  C     -0.210069   -1.225431    0.008810
  C      1.157663   -1.143378   -0.155284
  C      1.811934    0.086010   -0.070127
  C      1.054822    1.230599    0.181835
  C     -0.312835    1.147625    0.345943
  N      3.188185    0.158388   -0.160196
  H     -4.128602   -0.101594   -0.415510
  H     -2.845679   -0.793715   -1.444194
  H     -2.913549    0.965505   -1.169192
  H     -0.711388   -2.179846   -0.052308
  H      1.733653   -2.037243   -0.348539
  H      1.550684    2.188378    0.251876
  H     -0.893503    2.035643    0.546739
  H      3.647046   -0.613673   -0.615511
  H      3.574561    1.062559   -0.377312

 Total Charge           Charge          ....    0
 Multiplicity           Mult            ....    1
 Number of Electrons    NEL             ....   66
 Basis Dimension        Dim             ....  226

ORBITAL ENERGIES
----------------

  NO   OCC          E(Eh)            E(eV)
   0   2.0000     -18.957147      -515.8502
   1   2.0000     -14.167802      -385.5255
   2   2.0000     -10.072099      -274.0757
   3   2.0000     -10.071436      -274.0577
   4   2.0000     -10.070758      -274.0393
   5   2.0000     -10.029226      -272.9091
   6   2.0000     -10.029117      -272.9061
   7   2.0000     -10.027898      -272.8730
   8   2.0000     -10.027842      -272.8715
   9   2.0000      -1.006275       -27.3821
  10   2.0000      -0.890735       -24.2381
  11   2.0000      -0.803828       -21.8733
  12   2.0000      -0.715846       -19.4792
  13   2.0000      -0.699138       -19.0245
  14   2.0000      -0.641572       -17.4581
  15   2.0000      -0.587602       -15.9895
  16   2.0000      -0.556986       -15.1564
  17   2.0000      -0.496881       -13.5208
  18   2.0000      -0.488216       -13.2850
  19   2.0000      -0.469765       -12.7830
  20   2.0000      -0.421664       -11.4741
  21   2.0000      -0.419060       -11.4032
  22   2.0000      -0.407921       -11.1001
  23   2.0000      -0.391908       -10.6644
  24   2.0000      -0.382561       -10.4100
  25   2.0000      -0.371486       -10.1087
  26   2.0000      -0.351279        -9.5588
  27   2.0000      -0.315500        -8.5852
  28   2.0000      -0.310660        -8.4535
  29   2.0000      -0.273476        -7.4417
  30   2.0000      -0.235776        -6.4158
  31   2.0000      -0.227669        -6.1952
  32   2.0000      -0.178574        -4.8592
  33   0.0000      -0.029461        -0.8017
  34   0.0000      -0.005163        -0.1405
  35   0.0000       0.071377         1.9423
  36   0.0000       0.081162         2.2085
  37   0.0000       0.088787         2.4160

MULLIKEN ATOMIC CHARGES
-----------------------
   0 C :   -0.273432
   1 O :   -0.235134
   2 C :    0.173268
   3 C :   -0.235246
   4 C :   -0.353308
   5 C :    0.529855
   6 C :   -0.353210
   7 C :   -0.233242
   8 N :   -0.538252
   9 H :    0.144573
  10 H :    0.136069
  11 H :    0.135960
  12 H :    0.158683
  13 H :    0.138304
  14 H :    0.138274
  15 H :    0.158376
  16 H :    0.254239
  17 H :    0.254225
Sum of atomic charges:   -0.0000000

LOEWDIN ATOMIC CHARGES
----------------------
   0 C :   -0.054012
   1 O :   -0.718181
   2 C :    0.142055
   3 C :   -0.123569
   4 C :   -0.158395
   5 C :    0.120944
   6 C :   -0.158352
   7 C :   -0.123988
   8 N :   -0.611322
   9 H :    0.172678
  10 H :    0.158191
  11 H :    0.158145
  12 H :    0.178491
  13 H :    0.168729
  14 H :    0.168721
  15 H :    0.178368
  16 H :    0.250752
  17 H :    0.250746

  Mayer bond orders larger than 0.100000
B(  0-C ,  1-O ) :   0.8747 B(  0-C ,  9-H ) :   0.9740 B(  0-C , 10-H ) :   0.9665
B(  0-C , 11-H ) :   0.9665 B(  1-O ,  2-C ) :   1.0050 B(  2-C ,  3-C ) :   1.4595
B(  2-C ,  7-C ) :   1.4558 B(  3-C ,  4-C ) :   1.3687 B(  3-C , 12-H ) :   0.9263
B(  4-C ,  5-C ) :   1.3354 B(  4-C , 13-H ) :   0.9410 B(  5-C ,  6-C ) :   1.3353
B(  5-C ,  8-N ) :   0.9316 B(  6-C ,  7-C ) :   1.3703 B(  6-C , 14-H ) :   0.9410
B(  7-C , 15-H ) :   0.9259 B(  8-N , 16-H ) :   0.9281 B(  8-N , 17-H ) :   0.9281

Dispersion correction           -0.005724774
FINAL SINGLE POINT ENERGY      -402.022906110930

DIPOLE MOMENT
-------------

Method             : SCF
Type of density    : Electron Density
Multiplicity       :   1
Irrep              :   0
Energy             :  -402.0269018866443389 Eh
Relativity type    :
Basis              : AO
                                X                 Y                 Z
Electronic contribution:      1.604230245      -0.335050361       2.546381947
Nuclear contribution   :     -0.942733306       0.491828972      -3.393825239
                        -----------------------------------------
Total Dipole Moment    :      0.661496939       0.156778611      -0.847443292
                        -----------------------------------------
Magnitude (a.u.)       :      1.086424350
Magnitude (Debye)      :      2.761471239

Rotational constants in cm-1:             0.157905             0.033152             0.028922
Rotational constants in MHz :          4733.861077           993.863735           867.065010

                             ****ORCA TERMINATED NORMALLY****
TOTAL RUN TIME: 0 days 0 hours 0 minutes 24 seconds 399 msec
