                         Program Version 6.0.1  -  RELEASE   -
|  1> ! pbe def2-sv(p) def2/J RI DEFGRID1 loosescf d4 GCP(DFT/SV(P)) printgap
|  2> %output
|  3>     printlevel normal
|  4> end
|  5> * xyz 0 1
|  6> C -1.7082026434 -1.0433547943 -0.7130254206
|  7> C -1.0542246424 -0.5102968761 0.5779044141
|  8> H -1.7611172693 -0.6568775614 1.4114107539
|  9> C -0.740660488 0.9888333823 0.4671990933
| 10> H -1.6302374404 1.4892531417 0.0476912479
| 11> C 0.4683368353 1.2545524185 -0.4513600729
| 12> H 0.7799396119 2.2983200189 -0.2735044442
| 13> C 1.6525800621 0.3653980191 -0.0355452075
| 14> H 2.3854983335 0.3647938197 -0.8475717453
| 15> C 1.2408222579 -1.1043980444 0.1936834652
| 16> H 2.0239686763 -1.5680713702 0.8172540229
| 17> O 0.0781617565 -1.2609678514 0.97272383
| 18> O 1.1446464127 -1.7410637735 -1.0409851032
| 19> O 2.2843835228 0.880273417 1.1016794115
| 20> O 0.1890909126 1.0477698577 -1.8067787586
| 21> O -0.4119785195 1.5466877151 1.7240899829
| 22> O -2.9377845239 -0.4080447019 -0.9693098932
| 23> H -1.8335032928 -2.1296859895 -0.6158402986
| 24> H -1.0649450701 -0.8350130935 -1.5691579374
| 25> H 0.9289301506 -2.6707147095 -0.9008162437
| 26> H 1.5966596154 1.0864950968 1.7531493299
| 27> H -0.5817918785 1.5705644128 -2.0581419481
| 28> H -1.0776238767 1.2920007855 2.3732940503
| 29> H -3.581996241 -0.6802977597 -0.3058641566
| 30> *
| 31>
| 32>                          ****END OF INPUT****

CARTESIAN COORDINATES (ANGSTROEM)
---------------------------------
  C     -1.708203   -1.043355   -0.713025
  C     -1.054225   -0.510297    0.577904
  H     -1.761117   -0.656878    1.411411
  C     -0.740660    0.988833    0.467199
  H     -1.630237    1.489253    0.047691
  C      0.468337    1.254552   -0.451360
  H      0.779940    2.298320   -0.273504
  C      1.652580    0.365398   -0.035545
  H      2.385498    0.364794   -0.847572
  C      1.240822   -1.104398    0.193683
  H      2.023969   -1.568071    0.817254
  O      0.078162   -1.260968    0.972724
  O      1.144646   -1.741064   -1.040985
  O      2.284384    0.880273    1.101679
  O      0.189091    1.047770   -1.806779
  O     -0.411979    1.546688    1.724090
  O     -2.937785   -0.408045   -0.969310
  H     -1.833503   -2.129686   -0.615840
  H     -1.064945   -0.835013   -1.569158
  H      0.928930   -2.670715   -0.900816
  H      1.596660    1.086495    1.753149
  H     -0.581792    1.570564   -2.058142
  H     -1.077624    1.292001    2.373294
  H     -3.581996   -0.680298   -0.305864

 Total Charge           Charge          ....    0
 Multiplicity           Mult            ....    1
 Number of Electrons    NEL             ....   96
 Basis Dimension        Dim             ....  192

ORBITAL ENERGIES
----------------

  NO   OCC          E(Eh)            E(eV)
   0   2.0000     -18.774640      -510.8839
   1   2.0000     -18.769424      -510.7420
   2   2.0000     -18.758226      -510.4373
   3   2.0000     -18.757163      -510.4083
   4   2.0000     -18.755635      -510.3668
   5   2.0000     -18.734089      -509.7805
   6   2.0000      -9.976666      -271.4789
   7   2.0000      -9.950518      -270.7674
   8   2.0000      -9.950467      -270.7660
   9   2.0000      -9.943661      -270.5808
  10   2.0000      -9.931993      -270.2633
  11   2.0000      -9.928803      -270.1765
  12   2.0000      -0.980972       -26.6936
  13   2.0000      -0.950992       -25.8778
  14   2.0000      -0.935808       -25.4646
  15   2.0000      -0.933915       -25.4131
  16   2.0000      -0.914447       -24.8834
  17   2.0000      -0.909897       -24.7596
  18   2.0000      -0.704690       -19.1756
  19   2.0000      -0.683840       -18.6082
  20   2.0000      -0.621372       -16.9084
  21   2.0000      -0.588516       -16.0143
  22   2.0000      -0.576146       -15.6777
  23   2.0000      -0.517665       -14.0864
  24   2.0000      -0.503925       -13.7125
  25   2.0000      -0.483746       -13.1634
  26   2.0000      -0.467939       -12.7333
  27   2.0000      -0.462980       -12.5983
  28   2.0000      -0.453593       -12.3429
  29   2.0000      -0.431348       -11.7376
  30   2.0000      -0.408221       -11.1083
  31   2.0000      -0.399084       -10.8596
  32   2.0000      -0.385861       -10.4998
  33   2.0000      -0.373144       -10.1538
  34   2.0000      -0.362757        -9.8711
  35   2.0000      -0.352038        -9.5795
  36   2.0000      -0.336703        -9.1622
  37   2.0000      -0.321176        -8.7396
  38   2.0000      -0.307071        -8.3558
  39   2.0000      -0.291835        -7.9412
  40   2.0000      -0.282383        -7.6840
  41   2.0000      -0.262230        -7.1356
  42   2.0000      -0.253522        -6.8987
  43   2.0000      -0.242626        -6.6022
  44   2.0000      -0.232155        -6.3173
  45   2.0000      -0.219808        -5.9813
  46   2.0000      -0.214576        -5.8389
  47   2.0000      -0.204308        -5.5595
  48   0.0000       0.006135         0.1669
  49   0.0000       0.011745         0.3196
  50   0.0000       0.026612         0.7242
  51   0.0000       0.036297         0.9877
  52   0.0000       0.067529         1.8376

MULLIKEN ATOMIC CHARGES
-----------------------
   0 C :   -0.013910
   1 C :    0.008558
   2 H :    0.041550
   3 C :    0.034492
   4 H :    0.063115
   5 C :    0.026300
   6 H :    0.081658
   7 C :    0.071334
   8 H :    0.089306
   9 C :    0.176480
  10 H :    0.066952
  11 O :   -0.311297
  12 O :   -0.382748
  13 O :   -0.427577
  14 O :   -0.386637
  15 O :   -0.420563
  16 O :   -0.429875
  17 H :    0.069879
  18 H :    0.136555
  19 H :    0.298285
  20 H :    0.298678
  21 H :    0.307479
  22 H :    0.306855
  23 H :    0.295130
Sum of atomic charges:   -0.0000000

LOEWDIN ATOMIC CHARGES
----------------------
   0 C :   -0.158643
   1 C :   -0.078599
   2 H :    0.098189
   3 C :   -0.081994
   4 H :    0.100802
   5 C :   -0.070865
   6 H :    0.107051
   7 C :   -0.068579
   8 H :    0.127652
   9 C :   -0.008340
  10 H :    0.099286
  11 O :   -0.146227
  12 O :   -0.300764
  13 O :   -0.314783
  14 O :   -0.296305
  15 O :   -0.309741
  16 O :   -0.332901
  17 H :    0.094817
  18 H :    0.125693
  19 H :    0.282759
  20 H :    0.271286
  21 H :    0.289316
  22 H :    0.288571
  23 H :    0.282316

  Mayer bond orders larger than 0.100000
B(  0-C ,  1-C ) :   1.0359 B(  0-C , 16-O ) :   1.0346 B(  0-C , 17-H ) :   0.9147
B(  0-C , 18-H ) :   0.8851 B(  1-C ,  2-H ) :   0.8941 B(  1-C ,  3-C ) :   0.9957
B(  1-C , 11-O ) :   1.0234 B(  3-C ,  4-H ) :   0.8856 B(  3-C ,  5-C ) :   0.9813
B(  3-C , 15-O ) :   1.0088 B(  5-C ,  6-H ) :   0.9041 B(  5-C ,  7-C ) :   0.9967
B(  5-C , 14-O ) :   1.0892 B(  7-C ,  8-H ) :   0.8837 B(  7-C ,  9-C ) :   0.9846
B(  7-C , 13-O ) :   1.0617 B(  9-C , 10-H ) :   0.9022 B(  9-C , 11-O ) :   1.0351
B(  9-C , 12-O ) :   1.1234 B( 12-O , 19-H ) :   0.8386 B( 13-O , 20-H ) :   0.8166
B( 14-O , 21-H ) :   0.8359 B( 15-O , 22-H ) :   0.8415 B( 16-O , 23-H ) :   0.8527

Dispersion correction           -0.026014681
FINAL SINGLE POINT ENERGY      -685.692191976995

DIPOLE MOMENT
-------------

Method             : SCF
Type of density    : Electron Density
Multiplicity       :   1
Irrep              :   0
Energy             :  -685.8239735412666960 Eh
Relativity type    :
Basis              : AO
                                X                 Y                 Z
Electronic contribution:      2.026182850       0.060992344       0.823851197
Nuclear contribution   :     -3.575128819      -0.411117645      -0.157979190
                        -----------------------------------------
Total Dipole Moment    :     -1.548945970      -0.350125301       0.665872007
                        -----------------------------------------
Magnitude (a.u.)       :      1.721977605
Magnitude (Debye)      :      4.376919233

Rotational constants in cm-1:             0.040659             0.028939             0.025201
Rotational constants in MHz :          1218.928650           867.564724           755.493871

                             ****ORCA TERMINATED NORMALLY****
TOTAL RUN TIME: 0 days 0 hours 0 minutes 8 seconds 358 msec
