                         Program Version 6.0.1  -  RELEASE   -
|  1> ! r2scan-3c def2/J RI DEFGRID2 scfconv6 printgap
|  2> %output
|  3>     printlevel normal
|  4> end
|  5> * xyz 0 1
|  6> C -2.6377153893 -1.380031123 -0.4551511349
|  7> C -1.9427523288 -0.2345246292 0.2733737352
|  8> C -0.4456719145 -0.2162578501 0.1186651025
|  9> C 0.3150003388 -1.3672872332 -0.0098211699
| 10> C 1.6929084453 -1.3143291412 -0.1425014423
| 11> C 2.3374510291 -0.0921849774 -0.1485664802
| 12> C 1.600293503 1.0710371926 -0.0167180019
| 13> C 0.2205257759 1.0153929942 0.1198558324
| 14> O -0.5212753078 2.1548125011 0.2566497436
| 15> H -2.3291265718 -1.4109487392 -1.4977565259
| 16> H -3.7157029975 -1.2391376473 -0.4186308749
| 17> H -2.4105107728 -2.3394046546 0.0027856422
| 18> H -2.1831310695 -0.2850353978 1.3402739767
| 19> H -2.3287018749 0.7175011076 -0.0955253037
| 20> H -0.1745539811 -2.3284376781 -0.0063904678
| 21> H 2.2597500839 -2.2278032703 -0.2414445339
| 22> H 3.4106716048 -0.0378788473 -0.2540325713
| 23> H 2.0964566625 2.0336850619 -0.0187929834
| 24> H 0.063883752 2.9208236031 0.2241304698
| 25> *
| 26>
| 27>                          ****END OF INPUT****

CARTESIAN COORDINATES (ANGSTROEM)
---------------------------------
  C     -2.637715   -1.380031   -0.455151
  C     -1.942752   -0.234525    0.273374
  C     -0.445672   -0.216258    0.118665
  C      0.315000   -1.367287   -0.009821
  C      1.692908   -1.314329   -0.142501
  C      2.337451   -0.092185   -0.148566
  C      1.600294    1.071037   -0.016718
  C      0.220526    1.015393    0.119856
  O     -0.521275    2.154813    0.256650
  H     -2.329127   -1.410949   -1.497757
  H     -3.715703   -1.239138   -0.418631
  H     -2.410511   -2.339405    0.002786
  H     -2.183131   -0.285035    1.340274
  H     -2.328702    0.717501   -0.095525
  H     -0.174554   -2.328438   -0.006390
  H      2.259750   -2.227803   -0.241445
  H      3.410672   -0.037879   -0.254033
  H      2.096457    2.033685   -0.018793
  H      0.063884    2.920824    0.224130

 Total Charge           Charge          ....    0
 Multiplicity           Mult            ....    1
 Number of Electrons    NEL             ....   66
 Basis Dimension        Dim             ....  226

ORBITAL ENERGIES
----------------

  NO   OCC          E(Eh)            E(eV)
   0   2.0000     -18.984938      -516.6064
   1   2.0000     -10.092162      -274.6217
   2   2.0000     -10.036010      -273.0937
   3   2.0000     -10.032415      -272.9959
   4   2.0000     -10.031797      -272.9791
   5   2.0000     -10.028998      -272.9029
   6   2.0000     -10.028324      -272.8846
   7   2.0000     -10.023932      -272.7651
   8   2.0000     -10.017960      -272.6025
   9   2.0000      -1.029127       -28.0040
  10   2.0000      -0.822758       -22.3884
  11   2.0000      -0.754861       -20.5408
  12   2.0000      -0.706483       -19.2244
  13   2.0000      -0.690642       -18.7933
  14   2.0000      -0.608482       -16.5576
  15   2.0000      -0.584860       -15.9148
  16   2.0000      -0.543316       -14.7844
  17   2.0000      -0.512087       -13.9346
  18   2.0000      -0.460697       -12.5362
  19   2.0000      -0.438316       -11.9272
  20   2.0000      -0.415088       -11.2951
  21   2.0000      -0.403761       -10.9869
  22   2.0000      -0.397964       -10.8291
  23   2.0000      -0.376786       -10.2529
  24   2.0000      -0.361145        -9.8272
  25   2.0000      -0.345530        -9.4024
  26   2.0000      -0.339022        -9.2253
  27   2.0000      -0.323527        -8.8036
  28   2.0000      -0.309392        -8.4190
  29   2.0000      -0.302492        -8.2312
  30   2.0000      -0.294923        -8.0253
  31   2.0000      -0.228619        -6.2210
  32   2.0000      -0.201260        -5.4766
  33   0.0000      -0.028632        -0.7791
  34   0.0000      -0.012783        -0.3478
  35   0.0000       0.056581         1.5396
  36   0.0000       0.088262         2.4017
  37   0.0000       0.096903         2.6369

MULLIKEN ATOMIC CHARGES
-----------------------
   0 C :   -0.475781
   1 C :   -0.327718
   2 C :    0.008382
   3 C :   -0.177838
   4 C :   -0.203479
   5 C :   -0.134935
   6 C :   -0.334948
   7 C :    0.391782
   8 O :   -0.410169
   9 H :    0.162451
  10 H :    0.149302
  11 H :    0.137311
  12 H :    0.168831
  13 H :    0.173929
  14 H :    0.142789
  15 H :    0.144326
  16 H :    0.146271
  17 H :    0.132648
  18 H :    0.306846
Sum of atomic charges:    0.0000000

LOEWDIN ATOMIC CHARGES
----------------------
   0 C :   -0.415306
   1 C :   -0.272706
   2 C :   -0.071816
   3 C :   -0.150071
   4 C :   -0.186703
   5 C :   -0.161599
   6 C :   -0.170918
   7 C :    0.188376
   8 O :   -0.516044
   9 H :    0.156300
  10 H :    0.152296
  11 H :    0.147776
  12 H :    0.168781
  13 H :    0.179021
  14 H :    0.170846
  15 H :    0.165967
  16 H :    0.167245
  17 H :    0.167120
  18 H :    0.281436

  Mayer bond orders larger than 0.100000
B(  0-C ,  1-C ) :   0.8698 B(  0-C ,  9-H ) :   0.9894 B(  0-C , 10-H ) :   0.9752
B(  0-C , 11-H ) :   0.9643 B(  1-C ,  2-C ) :   0.8268 B(  1-C , 12-H ) :   0.9615
B(  1-C , 13-H ) :   1.0168 B(  2-C ,  3-C ) :   1.3995 B(  2-C ,  7-C ) :   1.4928
B(  3-C ,  4-C ) :   1.4227 B(  3-C , 14-H ) :   0.9412 B(  4-C ,  5-C ) :   1.4370
B(  4-C , 15-H ) :   0.9484 B(  5-C ,  6-C ) :   1.3966 B(  5-C , 16-H ) :   0.9410
B(  6-C ,  7-C ) :   1.2871 B(  6-C , 17-H ) :   0.9534 B(  7-C ,  8-O ) :   0.9600
B(  8-O , 18-H ) :   0.8861

Dispersion correction           -0.006166035
FINAL SINGLE POINT ENERGY      -385.999873114765

DIPOLE MOMENT
-------------

Method             : SCF
Type of density    : Electron Density
Multiplicity       :   1
Irrep              :   0
Energy             :  -386.0007032123583031 Eh
Relativity type    :
Basis              : AO
                                X                 Y                 Z
Electronic contribution:      5.194382177       4.225748504       0.894839000
Nuclear contribution   :     -4.990306749      -3.905218618      -0.901888734
                        -----------------------------------------
Total Dipole Moment    :      0.204075428       0.320529886      -0.007049734
                        -----------------------------------------
Magnitude (a.u.)       :      0.380047217
Magnitude (Debye)      :      0.966003256

Rotational constants in cm-1:             0.083455             0.049495             0.031896
Rotational constants in MHz :          2501.929729          1483.819304           956.220053

                             ****ORCA TERMINATED NORMALLY****
TOTAL RUN TIME: 0 days 0 hours 0 minutes 25 seconds 106 msec
