                         Program Version 6.0.1  -  RELEASE   -
|  1> ! pbe def2-sv(p) def2/J RI DEFGRID1 loosescf d4 GCP(DFT/SV(P)) printgap
|  2> %output
|  3>     printlevel normal
|  4> end
|  5> * xyz 0 1
|  6> C 1.7259144651 -1.0313298276 1.1515009974
|  7> C 3.1005767443 -1.1370083357 1.2379777405
|  8> C 3.9157169372 -0.3160616495 0.4722799251
|  9> C 3.339689139 0.6251523029 -0.3781993282
| 10> C 1.9616121396 0.7347139061 -0.457515018
| 11> C 1.1429221339 -0.0975666195 0.2990884721
| 12> C -0.3213063883 0.044319858 0.2024393072
| 13> C -0.8983288091 1.2995013294 0.3647195284
| 14> C -2.2696723507 1.4717491163 0.2889888212
| 15> C -3.1019608969 0.3812767871 0.0397847549
| 16> C -2.5353247926 -0.8800629573 -0.1400586511
| 17> C -1.1535074925 -1.0465564397 -0.0584959411
| 18> Cl -0.4909801667 -2.6071768192 -0.3430907968
| 19> Cl -3.547249624 -2.224726981 -0.4671203531
| 20> Cl -4.8011030764 0.5826464071 -0.0525980026
| 21> Cl -2.949029122 3.033188934 0.5043680003
| 22> Cl 4.3318625653 1.6580637527 -1.3338421162
| 23> Cl 5.6261648188 -0.4607678942 0.580015922
| 24> H 1.1034063826 -1.6643137815 1.7631461724
| 25> H 3.5527842071 -1.8577095267 1.9004651724
| 26> H 1.5260720859 1.458813006 -1.1277916621
| 27> H -0.2680716176 2.1500105433 0.5694877072
| 28> *
| 29>
| 30>                          ****END OF INPUT****

CARTESIAN COORDINATES (ANGSTROEM)
---------------------------------
  C      1.725914   -1.031330    1.151501
  C      3.100577   -1.137008    1.237978
  C      3.915717   -0.316062    0.472280
  C      3.339689    0.625152   -0.378199
  C      1.961612    0.734714   -0.457515
  C      1.142922   -0.097567    0.299088
  C     -0.321306    0.044320    0.202439
  C     -0.898329    1.299501    0.364720
  C     -2.269672    1.471749    0.288989
  C     -3.101961    0.381277    0.039785
  C     -2.535325   -0.880063   -0.140059
  C     -1.153507   -1.046556   -0.058496
  Cl    -0.490980   -2.607177   -0.343091
  Cl    -3.547250   -2.224727   -0.467120
  Cl    -4.801103    0.582646   -0.052598
  Cl    -2.949029    3.033189    0.504368
  Cl     4.331863    1.658064   -1.333842
  Cl     5.626165   -0.460768    0.580016
  H      1.103406   -1.664314    1.763146
  H      3.552784   -1.857710    1.900465
  H      1.526072    1.458813   -1.127792
  H     -0.268072    2.150011    0.569488

 Total Charge           Charge          ....    0
 Multiplicity           Mult            ....    1
 Number of Electrons    NEL             ....  178
 Basis Dimension        Dim             ....  284

ORBITAL ENERGIES
----------------

  NO   OCC          E(Eh)            E(eV)
   0   2.0000    -100.662573     -2739.1679
   1   2.0000    -100.662354     -2739.1619
   2   2.0000    -100.662010     -2739.1525
   3   2.0000    -100.660623     -2739.1148
   4   2.0000    -100.654579     -2738.9503
   5   2.0000    -100.654026     -2738.9353
   6   2.0000      -9.983581      -271.6671
   7   2.0000      -9.982871      -271.6477
   8   2.0000      -9.979329      -271.5513
   9   2.0000      -9.978992      -271.5422
  10   2.0000      -9.969991      -271.2972
  11   2.0000      -9.969774      -271.2913
  12   2.0000      -9.942868      -270.5592
  13   2.0000      -9.931972      -270.2627
  14   2.0000      -9.929278      -270.1894
  15   2.0000      -9.922661      -270.0093
  16   2.0000      -9.920670      -269.9552
  17   2.0000      -9.916755      -269.8486
  18   2.0000      -9.198391      -250.3010
  19   2.0000      -9.198184      -250.2953
  20   2.0000      -9.197702      -250.2822
  21   2.0000      -9.196507      -250.2497
  22   2.0000      -9.190358      -250.0824
  23   2.0000      -9.189816      -250.0676
  24   2.0000      -7.030122      -191.2993
  25   2.0000      -7.029911      -191.2936
  26   2.0000      -7.029256      -191.2758
  27   2.0000      -7.028078      -191.2437
  28   2.0000      -7.021872      -191.0748
  29   2.0000      -7.021364      -191.0610
  30   2.0000      -7.018457      -190.9819
  31   2.0000      -7.018258      -190.9765
  32   2.0000      -7.017795      -190.9639
  33   2.0000      -7.017265      -190.9495
  34   2.0000      -7.017077      -190.9444
  35   2.0000      -7.016724      -190.9348
  36   2.0000      -7.016523      -190.9293
  37   2.0000      -7.015614      -190.9046
  38   2.0000      -7.010452      -190.7641
  39   2.0000      -7.009859      -190.7479
  40   2.0000      -7.009488      -190.7379
  41   2.0000      -7.008972      -190.7238
  42   2.0000      -0.874828       -23.8053
  43   2.0000      -0.849172       -23.1071
  44   2.0000      -0.835457       -22.7340
  45   2.0000      -0.816188       -22.2096
  46   2.0000      -0.793757       -21.5992
  47   2.0000      -0.788720       -21.4622
  48   2.0000      -0.782041       -21.2804
  49   2.0000      -0.762530       -20.7495
  50   2.0000      -0.707278       -19.2460
  51   2.0000      -0.683132       -18.5890
  52   2.0000      -0.669826       -18.2269
  53   2.0000      -0.653312       -17.7775
  54   2.0000      -0.587909       -15.9978
  55   2.0000      -0.573443       -15.6042
  56   2.0000      -0.564670       -15.3654
  57   2.0000      -0.538856       -14.6630
  58   2.0000      -0.494763       -13.4632
  59   2.0000      -0.489209       -13.3120
  60   2.0000      -0.469600       -12.7785
  61   2.0000      -0.454436       -12.3658
  62   2.0000      -0.441249       -12.0070
  63   2.0000      -0.428666       -11.6646
  64   2.0000      -0.421021       -11.4566
  65   2.0000      -0.414953       -11.2914
  66   2.0000      -0.413051       -11.2397
  67   2.0000      -0.405459       -11.0331
  68   2.0000      -0.390652       -10.6302
  69   2.0000      -0.386218       -10.5095
  70   2.0000      -0.374058       -10.1786
  71   2.0000      -0.357858        -9.7378
  72   2.0000      -0.351088        -9.5536
  73   2.0000      -0.346305        -9.4234
  74   2.0000      -0.334194        -9.0939
  75   2.0000      -0.316000        -8.5988
  76   2.0000      -0.314261        -8.5515
  77   2.0000      -0.305886        -8.3236
  78   2.0000      -0.303991        -8.2720
  79   2.0000      -0.297378        -8.0921
  80   2.0000      -0.291188        -7.9236
  81   2.0000      -0.286768        -7.8033
  82   2.0000      -0.282234        -7.6800
  83   2.0000      -0.268912        -7.3175
  84   2.0000      -0.263761        -7.1773
  85   2.0000      -0.247680        -6.7397
  86   2.0000      -0.237350        -6.4586
  87   2.0000      -0.229803        -6.2533
  88   2.0000      -0.218340        -5.9413
  89   0.0000      -0.085622        -2.3299
  90   0.0000      -0.072205        -1.9648
  91   0.0000      -0.061922        -1.6850
  92   0.0000      -0.048783        -1.3275
  93   0.0000      -0.045918        -1.2495

MULLIKEN ATOMIC CHARGES
-----------------------
   0 C :   -0.073300
   1 C :   -0.101683
   2 C :    0.079474
   3 C :    0.093634
   4 C :   -0.160141
   5 C :    0.088522
   6 C :    0.084515
   7 C :   -0.192567
   8 C :    0.090774
   9 C :    0.025294
  10 C :    0.009611
  11 C :    0.016646
  12 Cl:   -0.023042
  13 Cl:   -0.013737
  14 Cl:   -0.012676
  15 Cl:   -0.038433
  16 Cl:   -0.048991
  17 Cl:   -0.047033
  18 H :    0.059417
  19 H :    0.057828
  20 H :    0.051836
  21 H :    0.054052
Sum of atomic charges:   -0.0000000

LOEWDIN ATOMIC CHARGES
----------------------
   0 C :   -0.111358
   1 C :   -0.129423
   2 C :   -0.156526
   3 C :   -0.156076
   4 C :   -0.123670
   5 C :   -0.036211
   6 C :   -0.040650
   7 C :   -0.126877
   8 C :   -0.159127
   9 C :   -0.181355
  10 C :   -0.176319
  11 C :   -0.154006
  12 Cl:    0.181925
  13 Cl:    0.176234
  14 Cl:    0.176916
  15 Cl:    0.164250
  16 Cl:    0.152760
  17 Cl:    0.155479
  18 H :    0.129286
  19 H :    0.136681
  20 H :    0.136755
  21 H :    0.141313

  Mayer bond orders larger than 0.100000
B(  0-C ,  1-C ) :   1.3508 B(  0-C ,  5-C ) :   1.3442 B(  0-C , 18-H ) :   0.9596
B(  1-C ,  2-C ) :   1.3719 B(  1-C , 19-H ) :   0.9651 B(  2-C ,  3-C ) :   1.4026
B(  2-C , 17-Cl) :   1.0456 B(  3-C ,  4-C ) :   1.3556 B(  3-C , 16-Cl) :   1.0405
B(  4-C ,  5-C ) :   1.3361 B(  4-C , 20-H ) :   0.9644 B(  5-C ,  6-C ) :   0.9574
B(  6-C ,  7-C ) :   1.3147 B(  6-C , 11-C ) :   1.3968 B(  7-C ,  8-C ) :   1.3197
B(  7-C , 21-H ) :   0.9747 B(  8-C ,  9-C ) :   1.3943 B(  8-C , 15-Cl) :   1.0397
B(  9-C , 10-C ) :   1.4117 B(  9-C , 14-Cl) :   1.1226 B( 10-C , 11-C ) :   1.3850
B( 10-C , 13-Cl) :   1.1220 B( 11-C , 12-Cl) :   1.1005

Dispersion correction           -0.045033651
FINAL SINGLE POINT ENERGY     -3217.959354081113

DIPOLE MOMENT
-------------

Method             : SCF
Type of density    : Electron Density
Multiplicity       :   1
Irrep              :   0
Energy             : -3217.9843791840453378 Eh
Relativity type    :
Basis              : AO
                                X                 Y                 Z
Electronic contribution:     -8.049620998      -0.183903770      -4.103597647
Nuclear contribution   :      8.005250358       0.106630767       4.406223375
                        -----------------------------------------
Total Dipole Moment    :     -0.044370640      -0.077273003       0.302625728
                        -----------------------------------------
Magnitude (a.u.)       :      0.315471396
Magnitude (Debye)      :      0.801864564

Rotational constants in cm-1:             0.014863             0.003878             0.003254
Rotational constants in MHz :           445.589713           116.258738            97.545446

                             ****ORCA TERMINATED NORMALLY****
TOTAL RUN TIME: 0 days 0 hours 0 minutes 20 seconds 565 msec
