                         Program Version 6.0.0  -   RELEASE  -
|  1> ! M062X DEF2-TZVP FREQ
|  2> * xyzfile 0 1 censo.xyz
|  3>
|  4>                          ****END OF INPUT****

CARTESIAN COORDINATES (ANGSTROEM)
---------------------------------
  C      0.977984    2.103046   -0.383637
  C      0.348287    0.856372    0.203111
  H      0.113113    0.989117    1.260993
  C     -0.878612    0.463935   -0.580427
  Cl    -1.780503   -0.935053    0.171523
  Cl     1.581441   -0.522924    0.165524
  H      0.264836    2.930028   -0.300774
  H      1.881793    2.373038    0.166129
  H      1.229006    1.960820   -1.438335
  H     -1.574129    1.306934   -0.588486
  H     -0.635063    0.174508   -1.604124

 Total Charge           Charge          ....    0
 Multiplicity           Mult            ....    1
 Number of Electrons    NEL             ....   58
 Basis Dimension        Dim             ....  203

ORBITAL ENERGIES
----------------

  NO   OCC          E(Eh)            E(eV)
   0   2.0000    -102.635933     -2792.8657
   1   2.0000    -102.631898     -2792.7559
   2   2.0000     -10.623503      -289.0802
   3   2.0000     -10.615712      -288.8682
   4   2.0000     -10.556197      -287.2487
   5   2.0000      -9.797701      -266.6090
   6   2.0000      -9.793762      -266.5018
   7   2.0000      -7.519707      -204.6216
   8   2.0000      -7.515645      -204.5111
   9   2.0000      -7.514618      -204.4831
  10   2.0000      -7.514558      -204.4815
  11   2.0000      -7.510772      -204.3785
  12   2.0000      -7.510614      -204.3742
  13   2.0000      -0.986175       -26.8352
  14   2.0000      -0.927897       -25.2494
  15   2.0000      -0.860400       -23.4127
  16   2.0000      -0.782682       -21.2979
  17   2.0000      -0.686625       -18.6840
  18   2.0000      -0.573889       -15.6163
  19   2.0000      -0.537024       -14.6132
  20   2.0000      -0.522262       -14.2115
  21   2.0000      -0.500187       -13.6108
  22   2.0000      -0.457336       -12.4447
  23   2.0000      -0.444034       -12.0828
  24   2.0000      -0.431043       -11.7293
  25   2.0000      -0.373409       -10.1610
  26   2.0000      -0.370512       -10.0821
  27   2.0000      -0.363006        -9.8779
  28   2.0000      -0.359119        -9.7721
  29   0.0000       0.034793         0.9468
  30   0.0000       0.056631         1.5410
  31   0.0000       0.074691         2.0325
  32   0.0000       0.095311         2.5935
  33   0.0000       0.101889         2.7726

MULLIKEN ATOMIC CHARGES
-----------------------
   0 C :   -0.423269
   1 C :   -0.061042
   2 H :    0.164097
   3 C :   -0.193349
   4 Cl:   -0.131551
   5 Cl:   -0.146624
   6 H :    0.143368
   7 H :    0.164842
   8 H :    0.153855
   9 H :    0.156743
  10 H :    0.172931
Sum of atomic charges:    0.0000000

LOEWDIN ATOMIC CHARGES
----------------------
   0 C :   -0.310369
   1 C :   -0.504472
   2 H :    0.144919
   3 C :   -0.476744
   4 Cl:    0.241980
   5 Cl:    0.247611
   6 H :    0.130303
   7 H :    0.131165
   8 H :    0.129376
   9 H :    0.134112
  10 H :    0.132119

  Mayer bond orders larger than 0.100000
B(  0-C ,  1-C ) :   0.9618 B(  0-C ,  6-H ) :   0.9556 B(  0-C ,  7-H ) :   0.9688
B(  0-C ,  8-H ) :   0.9581 B(  1-C ,  2-H ) :   0.9566 B(  1-C ,  3-C ) :   0.9638
B(  1-C ,  5-Cl) :   1.0655 B(  3-C ,  4-Cl) :   1.0848 B(  3-C ,  9-H ) :   0.9535
B(  3-C , 10-H ) :   0.9506

FINAL SINGLE POINT ENERGY     -1038.317836549347

DIPOLE MOMENT
-------------

Method             : SCF
Type of density    : Electron Density
Multiplicity       :   1
Irrep              :   0
Energy             : -1038.3178365493465662 Eh
Relativity type    :
Basis              : AO
                                X                 Y                 Z
Electronic contribution:     -1.560619508      -9.853685660       2.510136393
Nuclear contribution   :      1.477814456      11.109326432      -2.809567258
                        -----------------------------------------
Total Dipole Moment    :     -0.082805053       1.255640772      -0.299430865
                        -----------------------------------------
Magnitude (a.u.)       :      1.293502713
Magnitude (Debye)      :      3.287822609

VIBRATIONAL FREQUENCIES
-----------------------

Scaling factor for frequencies =  1.000000000  (already applied!)

     0:       0.00 cm**-1
     1:       0.00 cm**-1
     2:       0.00 cm**-1
     3:       0.00 cm**-1
     4:       0.00 cm**-1
     5:       0.00 cm**-1
     6:     137.82 cm**-1
     7:     204.59 cm**-1
     8:     291.92 cm**-1
     9:     325.84 cm**-1
    10:     389.00 cm**-1
    11:     411.62 cm**-1
    12:     590.51 cm**-1
    13:     719.96 cm**-1
    14:     907.48 cm**-1
    15:     942.06 cm**-1
    16:    1029.59 cm**-1
    17:    1107.60 cm**-1
    18:    1142.21 cm**-1
    19:    1198.56 cm**-1
    20:    1288.29 cm**-1
    21:    1298.48 cm**-1
    22:    1372.11 cm**-1
    23:    1420.55 cm**-1
    24:    1479.98 cm**-1
    25:    1491.71 cm**-1
    26:    1500.33 cm**-1
    27:    3038.77 cm**-1
    28:    3075.52 cm**-1
    29:    3104.52 cm**-1
    30:    3116.39 cm**-1
    31:    3137.69 cm**-1
    32:    3145.31 cm**-1

IR SPECTRUM
-----------

 Mode   freq       eps      Int      T**2         TX        TY        TZ
       cm**-1   L/(mol*cm) km/mol    a.u.
----------------------------------------------------------------------------
  6:    137.82   0.000158    0.80  0.000359  (-0.001478  0.017157  0.007881)
  7:    204.59   0.000219    1.11  0.000334  ( 0.002232  0.007875  0.016328)
  8:    291.92   0.000060    0.30  0.000064  ( 0.004099 -0.006841 -0.000820)
  9:    325.84   0.000121    0.61  0.000116  ( 0.009666 -0.003518 -0.003241)
 10:    389.00   0.001596    8.06  0.001280  (-0.034910 -0.001715 -0.007649)
 11:    411.62   0.001504    7.60  0.001140  (-0.006081 -0.031960  0.009036)
 12:    590.51   0.005911   29.87  0.003124  (-0.041017  0.037354 -0.006800)
 13:    719.96   0.006880   34.77  0.002982  ( 0.040150  0.033281 -0.016197)
 14:    907.48   0.000482    2.44  0.000166  (-0.011248  0.006276  0.000062)
 15:    942.06   0.002334   11.80  0.000773  ( 0.004539  0.027329  0.002407)
 16:   1029.59   0.002988   15.10  0.000906  ( 0.023388 -0.018926 -0.000615)
 17:   1107.60   0.000385    1.95  0.000108  (-0.007824  0.005306 -0.004369)
 18:   1142.21   0.000779    3.94  0.000213  ( 0.012087 -0.003723  0.007280)
 19:   1198.56   0.001686    8.52  0.000439  ( 0.019440 -0.007700 -0.001339)
 20:   1288.29   0.004136   20.90  0.001002  ( 0.027959  0.009200 -0.011640)
 21:   1298.48   0.004459   22.53  0.001072  ( 0.020140 -0.025354  0.004803)
 22:   1372.11   0.001381    6.98  0.000314  (-0.005302 -0.014889  0.008024)
 23:   1420.55   0.001235    6.24  0.000271  ( 0.007048  0.012840 -0.007535)
 24:   1479.98   0.000963    4.86  0.000203  (-0.006843 -0.000072 -0.012495)
 25:   1491.71   0.001776    8.97  0.000371  ( 0.008577  0.006897  0.015823)
 26:   1500.33   0.001114    5.63  0.000232  ( 0.009138 -0.007068 -0.009911)
 27:   3038.77   0.001857    9.39  0.000191  (-0.001050  0.013099 -0.004248)
 28:   3075.52   0.002086   10.54  0.000212  ( 0.001689  0.012633 -0.007017)
 29:   3104.52   0.000035    0.18  0.000003  (-0.000189  0.001129  0.001479)
 30:   3116.39   0.001771    8.95  0.000177  (-0.010219  0.006819  0.005142)
 31:   3137.69   0.000897    4.54  0.000089  (-0.005369 -0.002428 -0.007385)
 32:   3145.31   0.000455    2.30  0.000045  ( 0.002903 -0.003379 -0.005027)

--------------------------
THERMOCHEMISTRY AT 298.15K
--------------------------

Temperature         ...   298.15 K
Pressure            ...     1.00 atm
Total Mass          ...   112.99 AMU
Quasi RRHO          ...     True
Cut-Off Frequency   ...     1.00 cm^-1

Throughout the following assumptions are being made:
  (1) The electronic state is orbitally nondegenerate
  (2) There are no thermally accessible electronically excited states
  (3) Hindered rotations indicated by low frequency modes are not
      treated as such but are treated as vibrations and this may
      cause some error
  (4) All equations used are the standard statistical mechanics
      equations for an ideal gas
  (5) All vibrations are strictly harmonic

freq.     137.82  E(vib)   ...       0.42
freq.     204.59  E(vib)   ...       0.35
freq.     291.92  E(vib)   ...       0.27
freq.     325.84  E(vib)   ...       0.24
freq.     389.00  E(vib)   ...       0.20
freq.     411.62  E(vib)   ...       0.19
freq.     590.51  E(vib)   ...       0.10
freq.     719.96  E(vib)   ...       0.07
freq.     907.48  E(vib)   ...       0.03
freq.     942.06  E(vib)   ...       0.03
freq.    1029.59  E(vib)   ...       0.02
freq.    1107.60  E(vib)   ...       0.02
freq.    1142.21  E(vib)   ...       0.01
freq.    1198.56  E(vib)   ...       0.01
freq.    1288.29  E(vib)   ...       0.01
freq.    1298.48  E(vib)   ...       0.01
freq.    1372.11  E(vib)   ...       0.01
freq.    1420.55  E(vib)   ...       0.00
freq.    1479.98  E(vib)   ...       0.00
freq.    1491.71  E(vib)   ...       0.00
freq.    1500.33  E(vib)   ...       0.00
freq.    3038.77  E(vib)   ...       0.00
freq.    3075.52  E(vib)   ...       0.00
freq.    3104.52  E(vib)   ...       0.00
freq.    3116.39  E(vib)   ...       0.00
freq.    3137.69  E(vib)   ...       0.00
freq.    3145.31  E(vib)   ...       0.00

------------
INNER ENERGY
------------

The inner energy is: U= E(el) + E(ZPE) + E(vib) + E(rot) + E(trans)
    E(el)   - is the total energy from the electronic structure calculation
              = E(kin-el) + E(nuc-el) + E(el-el) + E(nuc-nuc)
    E(ZPE)  - the the zero temperature vibrational energy from the frequency calculation
    E(vib)  - the the finite temperature correction to E(ZPE) due to population
              of excited vibrational states
    E(rot)  - is the rotational thermal energy
    E(trans)- is the translational thermal energy

Summary of contributions to the inner energy U:
Electronic energy                ...  -1038.31783655 Eh
Zero point energy                ...      0.08627058 Eh      54.14 kcal/mol
Thermal vibrational correction   ...      0.00317331 Eh       1.99 kcal/mol
Thermal rotational correction    ...      0.00141627 Eh       0.89 kcal/mol
Thermal translational correction ...      0.00141627 Eh       0.89 kcal/mol
-----------------------------------------------------------------------
Total thermal energy                  -1038.22556011 Eh

Summary of corrections to the electronic energy:
(perhaps to be used in another calculation)
Total thermal correction                  0.00600586 Eh       3.77 kcal/mol
Non-thermal (ZPE) correction              0.08627058 Eh      54.14 kcal/mol
-----------------------------------------------------------------------
Total correction                          0.09227644 Eh      57.90 kcal/mol

--------
ENTHALPY
--------

The enthalpy is H = U + kB*T
                kB is Boltzmann's constant
Total thermal energy              ...  -1038.22556011 Eh
Thermal Enthalpy correction       ...      0.00094421 Eh       0.59 kcal/mol
-----------------------------------------------------------------------
Total Enthalpy                    ...  -1038.22461590 Eh

Note: Only C1 symmetry has been detected, increase convergence thresholds
      if your molecule has a higher symmetry. Symmetry factor of 1.0 is
      used for the rotational entropy correction.

Note: Rotational entropy computed according to Herzberg
Infrared and Raman Spectra, Chapter V,1, Van Nostrand Reinhold, 1945
Point Group:  C1, Symmetry Number:   1
Rotational constants in cm-1:     0.146950     0.062990     0.046464

Vibrational entropy computed according to the QRRHO of S. Grimme
Chem.Eur.J. 2012 18 9955 using a reference frequency of 100.0 cm-1

-------
ENTROPY
-------

The entropy contributions are T*S = T*(S(el)+S(vib)+S(rot)+S(trans))
     S(el)   - electronic entropy
     S(vib)  - vibrational entropy
     S(rot)  - rotational entropy
     S(trans)- translational entropy
The entropies will be listed as multiplied by the temperature to get
units of energy

Electronic entropy                ...      0.00000000 Eh      0.00 kcal/mol
Vibrational entropy               ...      0.00518629 Eh      3.25 kcal/mol
Rotational entropy                ...      0.01317023 Eh      8.26 kcal/mol
Translational entropy             ...      0.01904417 Eh     11.95 kcal/mol
-----------------------------------------------------------------------
Final entropy term                ...      0.03740069 Eh     23.47 kcal/mol

In case the symmetry of your molecule has not been determined correctly
or in case you have a reason to use a different symmetry number we print
out the resulting rotational entropy values for sn=1,12:

 non-linear molecules -----------------------------------
|  sn= 1 | S(rot)=       0.01317023 Eh      8.26 kcal/mol|
|  sn= 2 | S(rot)=       0.01251577 Eh      7.85 kcal/mol|
|  sn= 3 | S(rot)=       0.01213294 Eh      7.61 kcal/mol|
|  sn= 4 | S(rot)=       0.01186131 Eh      7.44 kcal/mol|
|  sn= 5 | S(rot)=       0.01165062 Eh      7.31 kcal/mol|
|  sn= 6 | S(rot)=       0.01147848 Eh      7.20 kcal/mol|
|  sn= 7 | S(rot)=       0.01133293 Eh      7.11 kcal/mol|
|  sn= 8 | S(rot)=       0.01120686 Eh      7.03 kcal/mol|
|  sn= 9 | S(rot)=       0.01109565 Eh      6.96 kcal/mol|
|  sn=10 | S(rot)=       0.01099617 Eh      6.90 kcal/mol|
|  sn=11 | S(rot)=       0.01090618 Eh      6.84 kcal/mol|
|  sn=12 | S(rot)=       0.01082402 Eh      6.79 kcal/mol|
 linear molecules ---------------------------------------
|  Dinfh | S(rot)=       0.00822357 Eh      5.16 kcal/mol|
|  Cinfv | S(rot)=       0.00887803 Eh      5.57 kcal/mol|
 --------------------------------------------------------

-------------------
GIBBS FREE ENERGY
-------------------

The Gibbs free energy is G = H - T*S

Total enthalpy                    ...  -1038.22461590 Eh
Total entropy correction          ...     -0.03740069 Eh    -23.47 kcal/mol
-----------------------------------------------------------------------
Final Gibbs free energy         ...  -1038.26201659 Eh

For completeness - the Gibbs free energy minus the electronic energy
G-E(el)                           ...      0.05581996 Eh     35.03 kcal/mol

                             ****ORCA TERMINATED NORMALLY****
TOTAL RUN TIME: 0 days 0 hours 10 minutes 17 seconds 375 msec
