                         Program Version 6.0.0  -   RELEASE  -
|  1> ! M062X DEF2-TZVP FREQ
|  2> * xyzfile 0 1 vacuum_censo.xyz
|  3>
|  4>                          ****END OF INPUT****

CARTESIAN COORDINATES (ANGSTROEM)
---------------------------------
  C      0.400283   -1.717254    0.151330
  C      0.437292   -0.284638   -0.332126
  H      0.308561   -0.222168   -1.415616
  C     -0.536868    0.646993    0.364581
  Cl    -2.249281    0.175518   -0.053110
  Cl     2.104060    0.428892   -0.002210
  H     -0.585032   -2.144262   -0.057277
  H      1.155861   -2.315523   -0.361164
  H      0.584204   -1.766645    1.228123
  H     -0.439060    0.583931    1.450371
  H     -0.407214    1.678115    0.035335

 Total Charge           Charge          ....    0
 Multiplicity           Mult            ....    1
 Number of Electrons    NEL             ....   58
 Basis Dimension        Dim             ....  203

ORBITAL ENERGIES
----------------

  NO   OCC          E(Eh)            E(eV)
   0   2.0000    -102.642658     -2793.0487
   1   2.0000    -102.638949     -2792.9478
   2   2.0000     -10.623895      -289.0909
   3   2.0000     -10.615614      -288.8656
   4   2.0000     -10.548216      -287.0315
   5   2.0000      -9.804586      -266.7963
   6   2.0000      -9.800999      -266.6987
   7   2.0000      -7.526510      -204.8068
   8   2.0000      -7.522827      -204.7065
   9   2.0000      -7.521551      -204.6718
  10   2.0000      -7.521501      -204.6704
  11   2.0000      -7.518008      -204.5754
  12   2.0000      -7.517898      -204.5724
  13   2.0000      -0.989862       -26.9355
  14   2.0000      -0.937707       -25.5163
  15   2.0000      -0.850302       -23.1379
  16   2.0000      -0.788972       -21.4690
  17   2.0000      -0.683820       -18.6077
  18   2.0000      -0.572744       -15.5852
  19   2.0000      -0.539770       -14.6879
  20   2.0000      -0.522927       -14.2296
  21   2.0000      -0.485519       -13.2116
  22   2.0000      -0.459799       -12.5118
  23   2.0000      -0.452055       -12.3010
  24   2.0000      -0.427308       -11.6276
  25   2.0000      -0.383884       -10.4460
  26   2.0000      -0.371938       -10.1210
  27   2.0000      -0.370958       -10.0943
  28   2.0000      -0.364930        -9.9303
  29   0.0000       0.034153         0.9293
  30   0.0000       0.055756         1.5172
  31   0.0000       0.088111         2.3976
  32   0.0000       0.095875         2.6089
  33   0.0000       0.106326         2.8933

MULLIKEN ATOMIC CHARGES
-----------------------
   0 C :   -0.409152
   1 C :   -0.074196
   2 H :    0.167192
   3 C :   -0.188471
   4 Cl:   -0.147765
   5 Cl:   -0.153842
   6 H :    0.156839
   7 H :    0.158189
   8 H :    0.148275
   9 H :    0.168232
  10 H :    0.174699
Sum of atomic charges:   -0.0000000

LOEWDIN ATOMIC CHARGES
----------------------
   0 C :   -0.317953
   1 C :   -0.504657
   2 H :    0.144565
   3 C :   -0.477353
   4 Cl:    0.245524
   5 Cl:    0.260823
   6 H :    0.130781
   7 H :    0.129306
   8 H :    0.128676
   9 H :    0.130821
  10 H :    0.129468

  Mayer bond orders larger than 0.100000
B(  0-C ,  1-C ) :   0.9678 B(  0-C ,  6-H ) :   0.9498 B(  0-C ,  7-H ) :   0.9703
B(  0-C ,  8-H ) :   0.9566 B(  1-C ,  2-H ) :   0.9624 B(  1-C ,  3-C ) :   0.9607
B(  1-C ,  5-Cl) :   1.0495 B(  3-C ,  4-Cl) :   1.0386 B(  3-C ,  9-H ) :   0.9503
B(  3-C , 10-H ) :   0.9634

FINAL SINGLE POINT ENERGY     -1038.321117763214

DIPOLE MOMENT
-------------

Method             : SCF
Type of density    : Electron Density
Multiplicity       :   1
Irrep              :   0
Energy             : -1038.3211177632140334 Eh
Relativity type    :
Basis              : AO
                                X                 Y                 Z
Electronic contribution:     -0.797535168       4.534509467      -0.835928527
Nuclear contribution   :      0.797905614      -4.763319851       0.870104958
                        -----------------------------------------
Total Dipole Moment    :      0.000370446      -0.228810384       0.034176431
                        -----------------------------------------
Magnitude (a.u.)       :      0.231348995
Magnitude (Debye)      :      0.588042413

VIBRATIONAL FREQUENCIES
-----------------------

Scaling factor for frequencies =  1.000000000  (already applied!)

     0:       0.00 cm**-1
     1:       0.00 cm**-1
     2:       0.00 cm**-1
     3:       0.00 cm**-1
     4:       0.00 cm**-1
     5:       0.00 cm**-1
     6:     150.14 cm**-1
     7:     221.27 cm**-1
     8:     277.13 cm**-1
     9:     303.95 cm**-1
    10:     351.20 cm**-1
    11:     428.21 cm**-1
    12:     649.10 cm**-1
    13:     717.53 cm**-1
    14:     887.50 cm**-1
    15:     931.44 cm**-1
    16:    1041.20 cm**-1
    17:    1092.99 cm**-1
    18:    1159.89 cm**-1
    19:    1217.67 cm**-1
    20:    1265.14 cm**-1
    21:    1311.28 cm**-1
    22:    1390.43 cm**-1
    23:    1425.76 cm**-1
    24:    1487.91 cm**-1
    25:    1496.75 cm**-1
    26:    1504.87 cm**-1
    27:    3047.85 cm**-1
    28:    3086.15 cm**-1
    29:    3097.24 cm**-1
    30:    3125.60 cm**-1
    31:    3139.63 cm**-1
    32:    3159.64 cm**-1

IR SPECTRUM
-----------

 Mode   freq       eps      Int      T**2         TX        TY        TZ
       cm**-1   L/(mol*cm) km/mol    a.u.
----------------------------------------------------------------------------
  6:    150.14   0.000905    4.57  0.001880  (-0.000603  0.024510 -0.035767)
  7:    221.27   0.001303    6.59  0.001838  (-0.025643  0.026055  0.022393)
  8:    277.13   0.000097    0.49  0.000109  ( 0.001329 -0.010309 -0.001021)
  9:    303.95   0.000057    0.29  0.000058  (-0.002759 -0.005893  0.003990)
 10:    351.20   0.000524    2.65  0.000466  (-0.008407 -0.019871 -0.000243)
 11:    428.21   0.000245    1.24  0.000178  ( 0.012956 -0.001669 -0.002751)
 12:    649.10   0.015763   79.66  0.007578  (-0.083433 -0.024237 -0.005435)
 13:    717.53   0.004052   20.48  0.001762  (-0.041278  0.002515 -0.007224)
 14:    887.50   0.000396    2.00  0.000139  ( 0.009307  0.004698  0.005525)
 15:    931.44   0.000558    2.82  0.000187  (-0.002288  0.013101  0.003194)
 16:   1041.20   0.003562   18.00  0.001068  (-0.031115 -0.009968 -0.000465)
 17:   1092.99   0.000823    4.16  0.000235  ( 0.012068  0.007161 -0.006167)
 18:   1159.89   0.000204    1.03  0.000055  (-0.002807  0.006492  0.002207)
 19:   1217.67   0.004989   25.21  0.001279  ( 0.033607  0.009735  0.007379)
 20:   1265.14   0.002038   10.30  0.000503  ( 0.019244  0.009954  0.005764)
 21:   1311.28   0.000464    2.34  0.000110  (-0.008865  0.001499 -0.005434)
 22:   1390.43   0.000257    1.30  0.000058  ( 0.005708  0.001724  0.004710)
 23:   1425.76   0.002498   12.62  0.000547  (-0.002897  0.022438 -0.005903)
 24:   1487.91   0.001215    6.14  0.000255  (-0.013253  0.006543  0.006030)
 25:   1496.75   0.001283    6.49  0.000268  ( 0.002565 -0.006119 -0.014952)
 26:   1504.87   0.001539    7.77  0.000319  (-0.002649 -0.009141 -0.015115)
 27:   3047.85   0.001108    5.60  0.000113  (-0.002106 -0.009804  0.003593)
 28:   3086.15   0.000450    2.28  0.000046  ( 0.004454  0.004085  0.003004)
 29:   3097.24   0.000459    2.32  0.000046  (-0.005786 -0.000350 -0.003562)
 30:   3125.60   0.001194    6.03  0.000119  (-0.008167 -0.000648 -0.007215)
 31:   3139.63   0.001209    6.11  0.000120  ( 0.005625 -0.005077 -0.007921)
 32:   3159.64   0.000083    0.42  0.000008  (-0.000201  0.001581 -0.002371)

--------------------------
THERMOCHEMISTRY AT 298.15K
--------------------------

Temperature         ...   298.15 K
Pressure            ...     1.00 atm
Total Mass          ...   112.99 AMU
Quasi RRHO          ...     True
Cut-Off Frequency   ...     1.00 cm^-1

Throughout the following assumptions are being made:
  (1) The electronic state is orbitally nondegenerate
  (2) There are no thermally accessible electronically excited states
  (3) Hindered rotations indicated by low frequency modes are not
      treated as such but are treated as vibrations and this may
      cause some error
  (4) All equations used are the standard statistical mechanics
      equations for an ideal gas
  (5) All vibrations are strictly harmonic

freq.     150.14  E(vib)   ...       0.40
freq.     221.27  E(vib)   ...       0.33
freq.     277.13  E(vib)   ...       0.28
freq.     303.95  E(vib)   ...       0.26
freq.     351.20  E(vib)   ...       0.23
freq.     428.21  E(vib)   ...       0.18
freq.     649.10  E(vib)   ...       0.08
freq.     717.53  E(vib)   ...       0.07
freq.     887.50  E(vib)   ...       0.04
freq.     931.44  E(vib)   ...       0.03
freq.    1041.20  E(vib)   ...       0.02
freq.    1092.99  E(vib)   ...       0.02
freq.    1159.89  E(vib)   ...       0.01
freq.    1217.67  E(vib)   ...       0.01
freq.    1265.14  E(vib)   ...       0.01
freq.    1311.28  E(vib)   ...       0.01
freq.    1390.43  E(vib)   ...       0.00
freq.    1425.76  E(vib)   ...       0.00
freq.    1487.91  E(vib)   ...       0.00
freq.    1496.75  E(vib)   ...       0.00
freq.    1504.87  E(vib)   ...       0.00
freq.    3047.85  E(vib)   ...       0.00
freq.    3086.15  E(vib)   ...       0.00
freq.    3097.24  E(vib)   ...       0.00
freq.    3125.60  E(vib)   ...       0.00
freq.    3139.63  E(vib)   ...       0.00
freq.    3159.64  E(vib)   ...       0.00

------------
INNER ENERGY
------------

The inner energy is: U= E(el) + E(ZPE) + E(vib) + E(rot) + E(trans)
    E(el)   - is the total energy from the electronic structure calculation
              = E(kin-el) + E(nuc-el) + E(el-el) + E(nuc-nuc)
    E(ZPE)  - the the zero temperature vibrational energy from the frequency calculation
    E(vib)  - the the finite temperature correction to E(ZPE) due to population
              of excited vibrational states
    E(rot)  - is the rotational thermal energy
    E(trans)- is the translational thermal energy

Summary of contributions to the inner energy U:
Electronic energy                ...  -1038.32111776 Eh
Zero point energy                ...      0.08649627 Eh      54.28 kcal/mol
Thermal vibrational correction   ...      0.00316955 Eh       1.99 kcal/mol
Thermal rotational correction    ...      0.00141627 Eh       0.89 kcal/mol
Thermal translational correction ...      0.00141627 Eh       0.89 kcal/mol
-----------------------------------------------------------------------
Total thermal energy                  -1038.22861940 Eh

Summary of corrections to the electronic energy:
(perhaps to be used in another calculation)
Total thermal correction                  0.00600209 Eh       3.77 kcal/mol
Non-thermal (ZPE) correction              0.08649627 Eh      54.28 kcal/mol
-----------------------------------------------------------------------
Total correction                          0.09249836 Eh      58.04 kcal/mol

--------
ENTHALPY
--------

The enthalpy is H = U + kB*T
                kB is Boltzmann's constant
Total thermal energy              ...  -1038.22861940 Eh
Thermal Enthalpy correction       ...      0.00094421 Eh       0.59 kcal/mol
-----------------------------------------------------------------------
Total Enthalpy                    ...  -1038.22767519 Eh

Note: Only C1 symmetry has been detected, increase convergence thresholds
      if your molecule has a higher symmetry. Symmetry factor of 1.0 is
      used for the rotational entropy correction.

Note: Rotational entropy computed according to Herzberg
Infrared and Raman Spectra, Chapter V,1, Van Nostrand Reinhold, 1945
Point Group:  C1, Symmetry Number:   1
Rotational constants in cm-1:     0.226201     0.047411     0.040923

Vibrational entropy computed according to the QRRHO of S. Grimme
Chem.Eur.J. 2012 18 9955 using a reference frequency of 100.0 cm-1

-------
ENTROPY
-------

The entropy contributions are T*S = T*(S(el)+S(vib)+S(rot)+S(trans))
     S(el)   - electronic entropy
     S(vib)  - vibrational entropy
     S(rot)  - rotational entropy
     S(trans)- translational entropy
The entropies will be listed as multiplied by the temperature to get
units of energy

Electronic entropy                ...      0.00000000 Eh      0.00 kcal/mol
Vibrational entropy               ...      0.00516059 Eh      3.24 kcal/mol
Rotational entropy                ...      0.01316069 Eh      8.26 kcal/mol
Translational entropy             ...      0.01904417 Eh     11.95 kcal/mol
-----------------------------------------------------------------------
Final entropy term                ...      0.03736545 Eh     23.45 kcal/mol

In case the symmetry of your molecule has not been determined correctly
or in case you have a reason to use a different symmetry number we print
out the resulting rotational entropy values for sn=1,12:

 non-linear molecules -----------------------------------
|  sn= 1 | S(rot)=       0.01316069 Eh      8.26 kcal/mol|
|  sn= 2 | S(rot)=       0.01250623 Eh      7.85 kcal/mol|
|  sn= 3 | S(rot)=       0.01212340 Eh      7.61 kcal/mol|
|  sn= 4 | S(rot)=       0.01185177 Eh      7.44 kcal/mol|
|  sn= 5 | S(rot)=       0.01164108 Eh      7.30 kcal/mol|
|  sn= 6 | S(rot)=       0.01146894 Eh      7.20 kcal/mol|
|  sn= 7 | S(rot)=       0.01132339 Eh      7.11 kcal/mol|
|  sn= 8 | S(rot)=       0.01119732 Eh      7.03 kcal/mol|
|  sn= 9 | S(rot)=       0.01108611 Eh      6.96 kcal/mol|
|  sn=10 | S(rot)=       0.01098663 Eh      6.89 kcal/mol|
|  sn=11 | S(rot)=       0.01089664 Eh      6.84 kcal/mol|
|  sn=12 | S(rot)=       0.01081448 Eh      6.79 kcal/mol|
 linear molecules ---------------------------------------
|  Dinfh | S(rot)=       0.00834347 Eh      5.24 kcal/mol|
|  Cinfv | S(rot)=       0.00899793 Eh      5.65 kcal/mol|
 --------------------------------------------------------

-------------------
GIBBS FREE ENERGY
-------------------

The Gibbs free energy is G = H - T*S

Total enthalpy                    ...  -1038.22767519 Eh
Total entropy correction          ...     -0.03736545 Eh    -23.45 kcal/mol
-----------------------------------------------------------------------
Final Gibbs free energy         ...  -1038.26504064 Eh

For completeness - the Gibbs free energy minus the electronic energy
G-E(el)                           ...      0.05607712 Eh     35.19 kcal/mol

                             ****ORCA TERMINATED NORMALLY****
TOTAL RUN TIME: 0 days 0 hours 10 minutes 38 seconds 617 msec
