                         Program Version 6.0.1  -  RELEASE   -
|  1> ! r2scan-3c def2/J RI DEFGRID2 scfconv6 printgap
|  2> %output
|  3>     printlevel normal
|  4> end
|  5> * xyz 0 1
|  6> C -0.781493389 -1.7131377199 5.12911e-05
|  7> C 0.5381981482 -1.3013617245 1.25335e-05
|  8> C 0.83971263 0.0597666535 -7.98158e-05
|  9> C -0.1899175044 0.9994576715 -8.70995e-05
| 10> C -1.5123605456 0.5813470598 -1.48611e-05
| 11> C -1.8042216733 -0.7829802976 3.52866e-05
| 12> O -2.5504578557 1.4546702248 5.8832e-06
| 13> C 2.2388221906 0.5017162686 -0.0001877922
| 14> O 3.2010523589 -0.2222602649 0.0002143975
| 15> H -1.0200307705 -2.7657631701 7.78919e-05
| 16> H 1.3507303669 -2.0110551798 3.78521e-05
| 17> H 0.0466324195 2.0562535857 -0.000139481
| 18> H -2.8392048835 -1.0858738737 4.59905e-05
| 19> H -2.2239328716 2.3627750982 -1.13623e-05
| 20> H 2.3575825899 1.6050806085 -0.0002846247
| 21> *
| 22>
| 23>                          ****END OF INPUT****

CARTESIAN COORDINATES (ANGSTROEM)
---------------------------------
  C     -0.781493   -1.713138    0.000051
  C      0.538198   -1.301362    0.000013
  C      0.839713    0.059767   -0.000080
  C     -0.189918    0.999458   -0.000087
  C     -1.512361    0.581347   -0.000015
  C     -1.804222   -0.782980    0.000035
  O     -2.550458    1.454670    0.000006
  C      2.238822    0.501716   -0.000188
  O      3.201052   -0.222260    0.000214
  H     -1.020031   -2.765763    0.000078
  H      1.350730   -2.011055    0.000038
  H      0.046632    2.056254   -0.000139
  H     -2.839205   -1.085874    0.000046
  H     -2.223933    2.362775   -0.000011
  H      2.357583    1.605081   -0.000285

 Total Charge           Charge          ....    0
 Multiplicity           Mult            ....    1
 Number of Electrons    NEL             ....   64
 Basis Dimension        Dim             ....  211

ORBITAL ENERGIES
----------------

  NO   OCC          E(Eh)            E(eV)
   0   2.0000     -19.002596      -517.0869
   1   2.0000     -18.949688      -515.6472
   2   2.0000     -10.121081      -275.4086
   3   2.0000     -10.117842      -275.3205
   4   2.0000     -10.059949      -273.7451
   5   2.0000     -10.059033      -273.7202
   6   2.0000     -10.054723      -273.6029
   7   2.0000     -10.053577      -273.5717
   8   2.0000     -10.046677      -273.3840
   9   2.0000      -1.049225       -28.5509
  10   2.0000      -1.016784       -27.6681
  11   2.0000      -0.844375       -22.9766
  12   2.0000      -0.752210       -20.4687
  13   2.0000      -0.729144       -19.8410
  14   2.0000      -0.636190       -17.3116
  15   2.0000      -0.612655       -16.6712
  16   2.0000      -0.558977       -15.2105
  17   2.0000      -0.510177       -13.8826
  18   2.0000      -0.492615       -13.4047
  19   2.0000      -0.467388       -12.7183
  20   2.0000      -0.430495       -11.7144
  21   2.0000      -0.415859       -11.3161
  22   2.0000      -0.406377       -11.0581
  23   2.0000      -0.404628       -11.0105
  24   2.0000      -0.377951       -10.2846
  25   2.0000      -0.374506       -10.1908
  26   2.0000      -0.344576        -9.3764
  27   2.0000      -0.336746        -9.1633
  28   2.0000      -0.324436        -8.8284
  29   2.0000      -0.260193        -7.0802
  30   2.0000      -0.228539        -6.2188
  31   2.0000      -0.225185        -6.1276
  32   0.0000      -0.098447        -2.6789
  33   0.0000      -0.041448        -1.1279
  34   0.0000       0.008718         0.2372
  35   0.0000       0.042759         1.1635
  36   0.0000       0.074496         2.0272

MULLIKEN ATOMIC CHARGES
-----------------------
   0 C :   -0.119511
   1 C :   -0.197336
   2 C :    0.256780
   3 C :   -0.417011
   4 C :    0.395475
   5 C :   -0.249800
   6 O :   -0.400302
   7 C :    0.015380
   8 O :   -0.336562
   9 H :    0.151574
  10 H :    0.179731
  11 H :    0.145688
  12 H :    0.161806
  13 H :    0.315302
  14 H :    0.098784
Sum of atomic charges:    0.0000000

LOEWDIN ATOMIC CHARGES
----------------------
   0 C :   -0.142025
   1 C :   -0.127418
   2 C :   -0.090296
   3 C :   -0.142845
   4 C :    0.183435
   5 C :   -0.117445
   6 O :   -0.486278
   7 C :    0.214760
   8 O :   -0.446265
   9 H :    0.172134
  10 H :    0.187288
  11 H :    0.174393
  12 H :    0.182964
  13 H :    0.283875
  14 H :    0.153722

  Mayer bond orders larger than 0.100000
B(  0-C ,  1-C ) :   1.4017 B(  0-C ,  5-C ) :   1.3765 B(  0-C ,  9-H ) :   0.9593
B(  1-C ,  2-C ) :   1.3833 B(  1-C , 10-H ) :   0.9591 B(  2-C ,  3-C ) :   1.3941
B(  2-C ,  7-C ) :   0.8062 B(  2-C ,  8-O ) :  -0.1087 B(  2-C , 14-H ) :  -0.1252
B(  3-C ,  4-C ) :   1.3778 B(  3-C , 11-H ) :   0.8844 B(  4-C ,  5-C ) :   1.4234
B(  4-C ,  6-O ) :   0.9259 B(  5-C , 12-H ) :   0.9396 B(  6-O , 13-H ) :   0.8826
B(  7-C ,  8-O ) :   1.9633 B(  7-C , 14-H ) :   1.0448

Dispersion correction           -0.004932906
FINAL SINGLE POINT ENERGY      -420.710469762822

DIPOLE MOMENT
-------------

Method             : SCF
Type of density    : Electron Density
Multiplicity       :   1
Irrep              :   0
Energy             :  -420.7104572099541429 Eh
Relativity type    :
Basis              : AO
                                X                 Y                 Z
Electronic contribution:      1.137815520       0.509783891       0.000031271
Nuclear contribution   :     -2.174639368       0.169686259      -0.000253547
                        -----------------------------------------
Total Dipole Moment    :     -1.036823848       0.679470150      -0.000222276
                        -----------------------------------------
Magnitude (a.u.)       :      1.239630359
Magnitude (Debye)      :      3.150889967

Rotational constants in cm-1:             0.123937             0.038116             0.029151
Rotational constants in MHz :          3715.538822          1142.692852           873.922850

                             ****ORCA TERMINATED NORMALLY****
TOTAL RUN TIME: 0 days 0 hours 0 minutes 27 seconds 618 msec
