                         Program Version 6.0.1  -  RELEASE   -
|  1> ! pbe def2-sv(p) def2/J RI DEFGRID1 loosescf d4 GCP(DFT/SV(P)) printgap
|  2> %output
|  3>     printlevel normal
|  4> end
|  5> * xyz 0 1
|  6> C 2.7499494234 -0.813918239 0.1413132248
|  7> C 1.9581034956 0.4573743707 -0.1308100437
|  8> C 0.4750297628 0.2436294706 -0.0615934238
|  9> C -0.423569944 1.2887331773 -0.2988616723
| 10> N -1.7309631699 1.1195171329 -0.2416832385
| 11> C -2.1719560912 -0.0967257313 0.0537114314
| 12> C -1.2907096779 -1.1396640236 0.290765104
| 13> N 0.0213539097 -0.9680132278 0.2328528637
| 14> H 3.8167970007 -0.6130540879 0.0815964616
| 15> H 2.4926547173 -1.5792662454 -0.5853390862
| 16> H 2.5164532872 -1.1970762645 1.1304932773
| 17> H 2.2039340531 0.8488825131 -1.1224085632
| 18> H 2.2282978518 1.2306452057 0.5946396187
| 19> H -0.0797191554 2.2861442611 -0.5408169728
| 20> H -3.2446968006 -0.2218745197 0.097061394
| 21> H -1.6297671048 -2.1380220168 0.5327381493
| 22> *
| 23>
| 24>                          ****END OF INPUT****

CARTESIAN COORDINATES (ANGSTROEM)
---------------------------------
  C      2.749949   -0.813918    0.141313
  C      1.958103    0.457374   -0.130810
  C      0.475030    0.243629   -0.061593
  C     -0.423570    1.288733   -0.298862
  N     -1.730963    1.119517   -0.241683
  C     -2.171956   -0.096726    0.053711
  C     -1.290710   -1.139664    0.290765
  N      0.021354   -0.968013    0.232853
  H      3.816797   -0.613054    0.081596
  H      2.492655   -1.579266   -0.585339
  H      2.516453   -1.197076    1.130493
  H      2.203934    0.848883   -1.122409
  H      2.228298    1.230645    0.594640
  H     -0.079719    2.286144   -0.540817
  H     -3.244697   -0.221875    0.097061
  H     -1.629767   -2.138022    0.532738

 Total Charge           Charge          ....    0
 Multiplicity           Mult            ....    1
 Number of Electrons    NEL             ....   58
 Basis Dimension        Dim             ....  128

ORBITAL ENERGIES
----------------

  NO   OCC          E(Eh)            E(eV)
   0   2.0000     -13.999998      -380.9593
   1   2.0000     -13.998987      -380.9318
   2   2.0000      -9.942988      -270.5624
   3   2.0000      -9.932124      -270.2668
   4   2.0000      -9.930340      -270.2183
   5   2.0000      -9.929466      -270.1945
   6   2.0000      -9.899485      -269.3787
   7   2.0000      -9.875663      -268.7304
   8   2.0000      -0.899351       -24.4726
   9   2.0000      -0.825035       -22.4503
  10   2.0000      -0.728846       -19.8329
  11   2.0000      -0.673242       -18.3199
  12   2.0000      -0.600923       -16.3520
  13   2.0000      -0.592403       -16.1201
  14   2.0000      -0.536276       -14.5928
  15   2.0000      -0.475224       -12.9315
  16   2.0000      -0.464778       -12.6473
  17   2.0000      -0.426544       -11.6069
  18   2.0000      -0.421268       -11.4633
  19   2.0000      -0.391331       -10.6487
  20   2.0000      -0.378091       -10.2884
  21   2.0000      -0.352904        -9.6030
  22   2.0000      -0.332275        -9.0417
  23   2.0000      -0.314579        -8.5601
  24   2.0000      -0.313370        -8.5272
  25   2.0000      -0.300422        -8.1749
  26   2.0000      -0.250507        -6.8166
  27   2.0000      -0.243850        -6.6355
  28   2.0000      -0.198368        -5.3979
  29   0.0000      -0.075474        -2.0538
  30   0.0000      -0.057282        -1.5587
  31   0.0000       0.044658         1.2152
  32   0.0000       0.068107         1.8533
  33   0.0000       0.071126         1.9354

MULLIKEN ATOMIC CHARGES
-----------------------
   0 C :   -0.232706
   1 C :   -0.159261
   2 C :   -0.071535
   3 C :   -0.065368
   4 N :   -0.036346
   5 C :   -0.062151
   6 C :   -0.048996
   7 N :   -0.054903
   8 H :    0.096964
   9 H :    0.104350
  10 H :    0.105015
  11 H :    0.106053
  12 H :    0.106520
  13 H :    0.061159
  14 H :    0.076600
  15 H :    0.074603
Sum of atomic charges:   -0.0000000

LOEWDIN ATOMIC CHARGES
----------------------
   0 C :   -0.336227
   1 C :   -0.233657
   2 C :   -0.025169
   3 C :   -0.093391
   4 N :   -0.049336
   5 C :   -0.104977
   6 C :   -0.095584
   7 N :   -0.051392
   8 H :    0.117878
   9 H :    0.123720
  10 H :    0.123927
  11 H :    0.133771
  12 H :    0.134170
  13 H :    0.117600
  14 H :    0.119465
  15 H :    0.119202

  Mayer bond orders larger than 0.100000
B(  0-C ,  1-C ) :   1.1978 B(  0-C ,  8-H ) :   0.9452 B(  0-C ,  9-H ) :   0.9492
B(  0-C , 10-H ) :   0.9483 B(  1-C ,  2-C ) :   1.0333 B(  1-C , 11-H ) :   0.9050
B(  1-C , 12-H ) :   0.9040 B(  2-C ,  3-C ) :   1.3270 B(  2-C ,  5-C ) :   0.1017
B(  2-C ,  7-N ) :   1.5786 B(  3-C ,  4-N ) :   1.5843 B(  3-C ,  6-C ) :   0.1011
B(  3-C , 13-H ) :   0.9538 B(  4-N ,  5-C ) :   1.5269 B(  5-C ,  6-C ) :   1.3695
B(  5-C , 14-H ) :   0.9478 B(  6-C ,  7-N ) :   1.5162 B(  6-C , 15-H ) :   0.9464

Dispersion correction           -0.015137521
FINAL SINGLE POINT ENERGY      -342.198807941348

DIPOLE MOMENT
-------------

Method             : SCF
Type of density    : Electron Density
Multiplicity       :   1
Irrep              :   0
Energy             :  -342.2472389073643626 Eh
Relativity type    :
Basis              : AO
                                X                 Y                 Z
Electronic contribution:     -7.549618626       1.284960862      -0.174902121
Nuclear contribution   :      7.781137370      -1.297239999       0.176293905
                        -----------------------------------------
Total Dipole Moment    :      0.231518744      -0.012279137       0.001391784
                        -----------------------------------------
Magnitude (a.u.)       :      0.231848319
Magnitude (Debye)      :      0.589311594

Rotational constants in cm-1:             0.171758             0.053015             0.041127
Rotational constants in MHz :          5149.163751          1589.341359          1232.969344

                             ****ORCA TERMINATED NORMALLY****
TOTAL RUN TIME: 0 days 0 hours 0 minutes 4 seconds 786 msec
