                         Program Version 6.0.1  -  RELEASE   -
|  1> ! pbe def2-sv(p) def2/J RI DEFGRID1 loosescf d4 GCP(DFT/SV(P)) printgap
|  2> %output
|  3>     printlevel normal
|  4> end
|  5> * xyz 0 1
|  6> C 1.13081703 -1.5397773304 0.1225657779
|  7> C 0.7160277348 -0.1009700511 0.4058884231
|  8> C 1.6342082294 0.8827220725 -0.3280113115
|  9> C -0.7305803503 0.2499112171 0.0713488381
| 10> O -1.1364752478 1.3768571746 0.2149114159
| 11> C -1.6237063057 -0.854418052 -0.4291100856
| 12> H 2.166431651 -1.6811891517 0.4252722453
| 13> H 0.5212103075 -2.2502766024 0.6747267947
| 14> H 1.0601764597 -1.7661576797 -0.9388298465
| 15> H 0.8170208625 0.0887973832 1.4823264133
| 16> H 1.3086211939 1.9029008117 -0.1427095724
| 17> H 1.6026076984 0.6981310658 -1.4001085867
| 18> H 2.6606511405 0.7723250417 0.0129443219
| 19> H -1.7037102307 -1.6366579293 0.3219583136
| 20> H -1.2077854245 -1.2926328186 -1.332707746
| 21> H -2.6123338959 -0.4543641401 -0.6396348231
| 22> *
| 23>
| 24>                          ****END OF INPUT****

CARTESIAN COORDINATES (ANGSTROEM)
---------------------------------
  C      1.130817   -1.539777    0.122566
  C      0.716028   -0.100970    0.405888
  C      1.634208    0.882722   -0.328011
  C     -0.730580    0.249911    0.071349
  O     -1.136475    1.376857    0.214911
  C     -1.623706   -0.854418   -0.429110
  H      2.166432   -1.681189    0.425272
  H      0.521210   -2.250277    0.674727
  H      1.060176   -1.766158   -0.938830
  H      0.817021    0.088797    1.482326
  H      1.308621    1.902901   -0.142710
  H      1.602608    0.698131   -1.400109
  H      2.660651    0.772325    0.012944
  H     -1.703710   -1.636658    0.321958
  H     -1.207785   -1.292633   -1.332708
  H     -2.612334   -0.454364   -0.639635

 Total Charge           Charge          ....    0
 Multiplicity           Mult            ....    1
 Number of Electrons    NEL             ....   48
 Basis Dimension        Dim             ....  104

ORBITAL ENERGIES
----------------

  NO   OCC          E(Eh)            E(eV)
   0   2.0000     -18.735749      -509.8257
   1   2.0000      -9.969892      -271.2945
   2   2.0000      -9.903715      -269.4938
   3   2.0000      -9.885568      -269.0000
   4   2.0000      -9.885499      -268.9981
   5   2.0000      -9.879488      -268.8345
   6   2.0000      -0.938367       -25.5343
   7   2.0000      -0.730314       -19.8729
   8   2.0000      -0.664214       -18.0742
   9   2.0000      -0.617324       -16.7982
  10   2.0000      -0.556869       -15.1532
  11   2.0000      -0.464975       -12.6526
  12   2.0000      -0.425414       -11.5761
  13   2.0000      -0.417595       -11.3633
  14   2.0000      -0.392556       -10.6820
  15   2.0000      -0.379711       -10.3325
  16   2.0000      -0.359730        -9.7888
  17   2.0000      -0.350936        -9.5494
  18   2.0000      -0.345897        -9.4123
  19   2.0000      -0.331820        -9.0293
  20   2.0000      -0.313180        -8.5221
  21   2.0000      -0.301256        -8.1976
  22   2.0000      -0.289972        -7.8906
  23   2.0000      -0.193505        -5.2655
  24   0.0000      -0.048116        -1.3093
  25   0.0000       0.027663         0.7527
  26   0.0000       0.065566         1.7842
  27   0.0000       0.066423         1.8075
  28   0.0000       0.093229         2.5369

MULLIKEN ATOMIC CHARGES
-----------------------
   0 C :   -0.227332
   1 C :   -0.196290
   2 C :   -0.256039
   3 C :   -0.005558
   4 O :   -0.162760
   5 C :   -0.240303
   6 H :    0.106551
   7 H :    0.100870
   8 H :    0.097663
   9 H :    0.102219
  10 H :    0.122795
  11 H :    0.096289
  12 H :    0.102380
  13 H :    0.122369
  14 H :    0.120645
  15 H :    0.116501
Sum of atomic charges:   -0.0000000

LOEWDIN ATOMIC CHARGES
----------------------
   0 C :   -0.333224
   1 C :   -0.185337
   2 C :   -0.322558
   3 C :    0.046996
   4 O :   -0.123550
   5 C :   -0.362682
   6 H :    0.124313
   7 H :    0.118283
   8 H :    0.118565
   9 H :    0.140124
  10 H :    0.127020
  11 H :    0.117736
  12 H :    0.119231
  13 H :    0.141523
  14 H :    0.140231
  15 H :    0.133330

  Mayer bond orders larger than 0.100000
B(  0-C ,  1-C ) :   1.1307 B(  0-C ,  6-H ) :   0.9427 B(  0-C ,  7-H ) :   0.9386
B(  0-C ,  8-H ) :   0.9407 B(  1-C ,  2-C ) :   1.1063 B(  1-C ,  3-C ) :   0.9171
B(  1-C ,  9-H ) :   0.8732 B(  2-C , 10-H ) :   0.9400 B(  2-C , 11-H ) :   0.9536
B(  2-C , 12-H ) :   0.9516 B(  3-C ,  4-O ) :   2.1795 B(  3-C ,  5-C ) :   1.1213
B(  5-C , 13-H ) :   0.9166 B(  5-C , 14-H ) :   0.9171 B(  5-C , 15-H ) :   0.9304

Dispersion correction           -0.011888527
FINAL SINGLE POINT ENERGY      -271.141085079524

DIPOLE MOMENT
-------------

Method             : SCF
Type of density    : Electron Density
Multiplicity       :   1
Irrep              :   0
Energy             :  -271.1952938495611534 Eh
Relativity type    :
Basis              : AO
                                X                 Y                 Z
Electronic contribution:     -3.925506520       4.343624722       1.361993216
Nuclear contribution   :      4.310796800      -5.251245502      -1.438549790
                        -----------------------------------------
Total Dipole Moment    :      0.385290280      -0.907620780      -0.076556573
                        -----------------------------------------
Magnitude (a.u.)       :      0.988981794
Magnitude (Debye)      :      2.513791947

Rotational constants in cm-1:             0.152827             0.106319             0.070124
Rotational constants in MHz :          4581.649161          3187.371211          2102.254226

                             ****ORCA TERMINATED NORMALLY****
TOTAL RUN TIME: 0 days 0 hours 0 minutes 4 seconds 819 msec
