                         Program Version 6.0.1  -  RELEASE   -
|  1> ! pbe def2-sv(p) def2/J RI DEFGRID1 loosescf d4 GCP(DFT/SV(P)) printgap
|  2> %output
|  3>     printlevel normal
|  4> end
|  5> * xyz 0 1
|  6> C -2.3934455916 -0.8644685602 0.3944795226
|  7> C -0.9439450832 -0.4229630744 0.6358749415
|  8> H -0.7166231171 -0.5065595207 1.7096329666
|  9> C -0.7356425362 1.0429206611 0.2034351947
| 10> H -1.5011327172 1.3077718101 -0.5377374955
| 11> C 0.6463580505 1.2311589598 -0.4593712601
| 12> H 0.9399621469 2.2886620894 -0.3424969179
| 13> C 1.6690679184 0.3476718228 0.2701610023
| 14> H 2.6631283666 0.4475291838 -0.1859998106
| 15> C 1.2566704165 -1.1427371216 0.0875702509
| 16> H 1.5927412608 -1.7043932988 0.9741224556
| 17> O -0.1297487464 -1.300872025 -0.107369823
| 18> O 1.8818531008 -1.7022438995 -1.0149910481
| 19> O 1.8167680696 0.7259218484 1.6103294681
| 20> O 0.5381076898 0.8949368511 -1.8213393994
| 21> O -0.8456275636 1.828032274 1.373003476
| 22> O -2.7653577624 -0.7092629614 -0.9454446577
| 23> H -3.067641192 -0.2423716681 0.9861471841
| 24> H -2.4920649338 -1.9115097467 0.710957165
| 25> H 1.3665467288 -1.4412679947 -1.7914019116
| 26> H 0.956672541 0.9976594396 1.9645567732
| 27> H 1.3878000148 1.0516003061 -2.2494793684
| 28> H -0.9421842801 2.7560004751 1.1317655047
| 29> H -2.0910313855 -1.1435786126 -1.4828765554
| 30> *
| 31>
| 32>                          ****END OF INPUT****

CARTESIAN COORDINATES (ANGSTROEM)
---------------------------------
  C     -2.393446   -0.864469    0.394480
  C     -0.943945   -0.422963    0.635875
  H     -0.716623   -0.506560    1.709633
  C     -0.735643    1.042921    0.203435
  H     -1.501133    1.307772   -0.537737
  C      0.646358    1.231159   -0.459371
  H      0.939962    2.288662   -0.342497
  C      1.669068    0.347672    0.270161
  H      2.663128    0.447529   -0.186000
  C      1.256670   -1.142737    0.087570
  H      1.592741   -1.704393    0.974122
  O     -0.129749   -1.300872   -0.107370
  O      1.881853   -1.702244   -1.014991
  O      1.816768    0.725922    1.610329
  O      0.538108    0.894937   -1.821339
  O     -0.845628    1.828032    1.373003
  O     -2.765358   -0.709263   -0.945445
  H     -3.067641   -0.242372    0.986147
  H     -2.492065   -1.911510    0.710957
  H      1.366547   -1.441268   -1.791402
  H      0.956673    0.997659    1.964557
  H      1.387800    1.051600   -2.249479
  H     -0.942184    2.756000    1.131766
  H     -2.091031   -1.143579   -1.482877

 Total Charge           Charge          ....    0
 Multiplicity           Mult            ....    1
 Number of Electrons    NEL             ....   96
 Basis Dimension        Dim             ....  192

ORBITAL ENERGIES
----------------

  NO   OCC          E(Eh)            E(eV)
   0   2.0000     -18.782826      -511.1067
   1   2.0000     -18.775864      -510.9172
   2   2.0000     -18.775704      -510.9129
   3   2.0000     -18.752325      -510.2767
   4   2.0000     -18.749904      -510.2108
   5   2.0000     -18.747990      -510.1588
   6   2.0000      -9.982645      -271.6416
   7   2.0000      -9.955282      -270.8970
   8   2.0000      -9.953952      -270.8608
   9   2.0000      -9.951924      -270.8056
  10   2.0000      -9.940207      -270.4868
  11   2.0000      -9.935759      -270.3658
  12   2.0000      -0.990082       -26.9415
  13   2.0000      -0.959504       -26.1094
  14   2.0000      -0.948673       -25.8147
  15   2.0000      -0.932705       -25.3802
  16   2.0000      -0.925780       -25.1917
  17   2.0000      -0.911138       -24.7933
  18   2.0000      -0.709537       -19.3075
  19   2.0000      -0.687027       -18.6950
  20   2.0000      -0.626979       -17.0610
  21   2.0000      -0.591853       -16.1051
  22   2.0000      -0.574722       -15.6390
  23   2.0000      -0.528254       -14.3745
  24   2.0000      -0.514160       -13.9910
  25   2.0000      -0.498319       -13.5600
  26   2.0000      -0.473191       -12.8762
  27   2.0000      -0.463499       -12.6125
  28   2.0000      -0.458923       -12.4879
  29   2.0000      -0.446701       -12.1554
  30   2.0000      -0.422061       -11.4849
  31   2.0000      -0.398020       -10.8307
  32   2.0000      -0.381023       -10.3682
  33   2.0000      -0.377136       -10.2624
  34   2.0000      -0.367654       -10.0044
  35   2.0000      -0.362712        -9.8699
  36   2.0000      -0.337201        -9.1757
  37   2.0000      -0.322644        -8.7796
  38   2.0000      -0.309164        -8.4128
  39   2.0000      -0.304596        -8.2885
  40   2.0000      -0.293525        -7.9872
  41   2.0000      -0.281687        -7.6651
  42   2.0000      -0.257898        -7.0178
  43   2.0000      -0.253809        -6.9065
  44   2.0000      -0.236956        -6.4479
  45   2.0000      -0.233044        -6.3415
  46   2.0000      -0.223236        -6.0746
  47   2.0000      -0.194835        -5.3017
  48   0.0000      -0.000150        -0.0041
  49   0.0000       0.009646         0.2625
  50   0.0000       0.041842         1.1386
  51   0.0000       0.047440         1.2909
  52   0.0000       0.061542         1.6747

MULLIKEN ATOMIC CHARGES
-----------------------
   0 C :    0.080241
   1 C :   -0.009007
   2 H :    0.063075
   3 C :    0.011210
   4 H :    0.083509
   5 C :    0.045933
   6 H :    0.059728
   7 C :   -0.029348
   8 H :    0.072591
   9 C :    0.256090
  10 H :    0.068492
  11 O :   -0.313402
  12 O :   -0.401002
  13 O :   -0.419703
  14 O :   -0.410197
  15 O :   -0.412471
  16 O :   -0.430731
  17 H :    0.092544
  18 H :    0.085720
  19 H :    0.284930
  20 H :    0.302627
  21 H :    0.305669
  22 H :    0.311318
  23 H :    0.302185
Sum of atomic charges:   -0.0000000

LOEWDIN ATOMIC CHARGES
----------------------
   0 C :   -0.121226
   1 C :   -0.077016
   2 H :    0.107396
   3 C :   -0.076336
   4 H :    0.116041
   5 C :   -0.082932
   6 H :    0.098066
   7 C :   -0.101568
   8 H :    0.113209
   9 C :    0.008540
  10 H :    0.101082
  11 O :   -0.149833
  12 O :   -0.302948
  13 O :   -0.314945
  14 O :   -0.313692
  15 O :   -0.307382
  16 O :   -0.326480
  17 H :    0.119132
  18 H :    0.105000
  19 H :    0.271264
  20 H :    0.271056
  21 H :    0.288095
  22 H :    0.292861
  23 H :    0.282616

  Mayer bond orders larger than 0.100000
B(  0-C ,  1-C ) :   1.0570 B(  0-C , 16-O ) :   1.0696 B(  0-C , 17-H ) :   0.9221
B(  0-C , 18-H ) :   0.9107 B(  1-C ,  2-H ) :   0.8698 B(  1-C ,  3-C ) :   0.9947
B(  1-C , 11-O ) :   1.0349 B(  3-C ,  4-H ) :   0.8662 B(  3-C ,  5-C ) :   0.9912
B(  3-C , 15-O ) :   1.0390 B(  5-C ,  6-H ) :   0.8974 B(  5-C ,  7-C ) :   1.0050
B(  5-C , 14-O ) :   1.0445 B(  7-C ,  8-H ) :   0.8968 B(  7-C ,  9-C ) :   0.9175
B(  7-C , 13-O ) :   1.0748 B(  9-C , 10-H ) :   0.9000 B(  9-C , 11-O ) :   1.0071
B(  9-C , 12-O ) :   1.1129 B( 12-O , 19-H ) :   0.8372 B( 13-O , 20-H ) :   0.8120
B( 14-O , 21-H ) :   0.8398 B( 15-O , 22-H ) :   0.8409 B( 16-O , 23-H ) :   0.8389

Dispersion correction           -0.025405043
FINAL SINGLE POINT ENERGY      -685.692169646983

DIPOLE MOMENT
-------------

Method             : SCF
Type of density    : Electron Density
Multiplicity       :   1
Irrep              :   0
Energy             :  -685.8249599651481958 Eh
Relativity type    :
Basis              : AO
                                X                 Y                 Z
Electronic contribution:      1.701535071      -0.772552754      -1.173229331
Nuclear contribution   :     -1.778765284       1.778190537       0.818915994
                        -----------------------------------------
Total Dipole Moment    :     -0.077230213       1.005637782      -0.354313338
                        -----------------------------------------
Magnitude (a.u.)       :      1.069022823
Magnitude (Debye)      :      2.717240074

Rotational constants in cm-1:             0.039182             0.029156             0.023570
Rotational constants in MHz :          1174.632085           874.089638           706.612734

                             ****ORCA TERMINATED NORMALLY****
TOTAL RUN TIME: 0 days 0 hours 0 minutes 8 seconds 139 msec
