                         Program Version 6.0.1  -  RELEASE   -
|  1> ! r2scan-3c def2/J RI DEFGRID2 scfconv6 printgap
|  2> %output
|  3>     printlevel normal
|  4> end
|  5> * xyz 0 1
|  6> C -2.0359178749 -0.592565567 -0.6491879494
|  7> C -1.2073899763 -0.071716362 0.5532257245
|  8> H -1.8536688249 -0.0082185515 1.4371191208
|  9> C -0.6300898602 1.3360797897 0.2989309927
| 10> H -1.3738219551 1.9099980171 -0.2652559028
| 11> C 0.6808776132 1.2956290613 -0.5241011933
| 12> H 1.1358582137 2.2912828931 -0.442532174
| 13> C 1.6467105134 0.2638537455 0.0817292065
| 14> H 2.5082671416 0.1484502132 -0.5930806
| 15> C 0.9325296883 -1.0989541096 0.1824433165
| 16> H 1.5699402905 -1.8100793208 0.7423115899
| 17> O -0.2251117611 -1.0250005678 0.954421534
| 18> O 0.7106985633 -1.5808060254 -1.1133445671
| 19> O 2.0497854379 0.718077278 1.3520871967
| 20> O 0.4650494347 1.0511983717 -1.8856485082
| 21> O -0.4379523844 2.0223882631 1.505313072
| 22> O -2.0022162698 -2.0012064373 -0.732216556
| 23> H -1.6337596755 -0.2263345882 -1.5951890858
| 24> H -3.06737811 -0.2334660155 -0.549734768
| 25> H -0.1240757705 -2.0890199417 -1.1099607108
| 26> H 2.6186717016 0.0580551462 1.7644731589
| 27> H 0.513400561 0.0908606458 -2.0311369472
| 28> H 0.3716926686 1.681821395 1.915108988
| 29> H -2.2502114084 -2.364275197 0.1270230921
| 30> *
| 31>
| 32>                          ****END OF INPUT****

CARTESIAN COORDINATES (ANGSTROEM)
---------------------------------
  C     -2.035918   -0.592566   -0.649188
  C     -1.207390   -0.071716    0.553226
  H     -1.853669   -0.008219    1.437119
  C     -0.630090    1.336080    0.298931
  H     -1.373822    1.909998   -0.265256
  C      0.680878    1.295629   -0.524101
  H      1.135858    2.291283   -0.442532
  C      1.646711    0.263854    0.081729
  H      2.508267    0.148450   -0.593081
  C      0.932530   -1.098954    0.182443
  H      1.569940   -1.810079    0.742312
  O     -0.225112   -1.025001    0.954422
  O      0.710699   -1.580806   -1.113345
  O      2.049785    0.718077    1.352087
  O      0.465049    1.051198   -1.885649
  O     -0.437952    2.022388    1.505313
  O     -2.002216   -2.001206   -0.732217
  H     -1.633760   -0.226335   -1.595189
  H     -3.067378   -0.233466   -0.549735
  H     -0.124076   -2.089020   -1.109961
  H      2.618672    0.058055    1.764473
  H      0.513401    0.090861   -2.031137
  H      0.371693    1.681821    1.915109
  H     -2.250211   -2.364275    0.127023

 Total Charge           Charge          ....    0
 Multiplicity           Mult            ....    1
 Number of Electrons    NEL             ....   96
 Basis Dimension        Dim             ....  318

ORBITAL ENERGIES
----------------

  NO   OCC          E(Eh)            E(eV)
   0   2.0000     -18.984105      -516.5838
   1   2.0000     -18.980043      -516.4732
   2   2.0000     -18.979184      -516.4499
   3   2.0000     -18.972289      -516.2622
   4   2.0000     -18.948104      -515.6041
   5   2.0000     -18.942370      -515.4481
   6   2.0000     -10.148503      -276.1548
   7   2.0000     -10.102037      -274.8904
   8   2.0000     -10.095463      -274.7115
   9   2.0000     -10.092198      -274.6227
  10   2.0000     -10.091705      -274.6092
  11   2.0000     -10.087555      -274.4963
  12   2.0000      -1.063605       -28.9422
  13   2.0000      -1.023100       -27.8400
  14   2.0000      -1.012714       -27.5573
  15   2.0000      -0.994937       -27.0736
  16   2.0000      -0.992439       -27.0056
  17   2.0000      -0.978535       -26.6273
  18   2.0000      -0.750713       -20.4279
  19   2.0000      -0.741687       -20.1823
  20   2.0000      -0.666603       -18.1392
  21   2.0000      -0.630550       -17.1581
  22   2.0000      -0.616502       -16.7759
  23   2.0000      -0.556681       -15.1481
  24   2.0000      -0.524881       -14.2827
  25   2.0000      -0.518266       -14.1027
  26   2.0000      -0.495499       -13.4832
  27   2.0000      -0.485807       -13.2195
  28   2.0000      -0.467287       -12.7155
  29   2.0000      -0.454080       -12.3562
  30   2.0000      -0.447470       -12.1763
  31   2.0000      -0.438702       -11.9377
  32   2.0000      -0.412683       -11.2297
  33   2.0000      -0.402064       -10.9407
  34   2.0000      -0.394692       -10.7401
  35   2.0000      -0.381859       -10.3909
  36   2.0000      -0.365535        -9.9467
  37   2.0000      -0.356546        -9.7021
  38   2.0000      -0.336808        -9.1650
  39   2.0000      -0.326358        -8.8807
  40   2.0000      -0.315723        -8.5912
  41   2.0000      -0.289541        -7.8788
  42   2.0000      -0.280794        -7.6408
  43   2.0000      -0.272365        -7.4114
  44   2.0000      -0.270093        -7.3496
  45   2.0000      -0.250503        -6.8165
  46   2.0000      -0.242540        -6.5998
  47   2.0000      -0.218895        -5.9564
  48   0.0000       0.023262         0.6330
  49   0.0000       0.033110         0.9010
  50   0.0000       0.067149         1.8272
  51   0.0000       0.076393         2.0788
  52   0.0000       0.085156         2.3172

MULLIKEN ATOMIC CHARGES
-----------------------
   0 C :   -0.223693
   1 C :    0.011681
   2 H :    0.167100
   3 C :   -0.133318
   4 H :    0.165898
   5 C :   -0.003781
   6 H :    0.169326
   7 C :   -0.069814
   8 H :    0.160902
   9 C :   -0.054127
  10 H :    0.132350
  11 O :   -0.199913
  12 O :   -0.428318
  13 O :   -0.401335
  14 O :   -0.413075
  15 O :   -0.401478
  16 O :   -0.437974
  17 H :    0.184452
  18 H :    0.144516
  19 H :    0.352327
  20 H :    0.296893
  21 H :    0.335169
  22 H :    0.333200
  23 H :    0.313012
Sum of atomic charges:   -0.0000000

LOEWDIN ATOMIC CHARGES
----------------------
   0 C :    0.021843
   1 C :    0.101541
   2 H :    0.202717
   3 C :    0.105833
   4 H :    0.199386
   5 C :    0.121128
   6 H :    0.201959
   7 C :    0.125934
   8 H :    0.188833
   9 C :    0.287113
  10 H :    0.193601
  11 O :   -0.656223
  12 O :   -0.538490
  13 O :   -0.578009
  14 O :   -0.579878
  15 O :   -0.572369
  16 O :   -0.602794
  17 H :    0.195261
  18 H :    0.169844
  19 H :    0.297003
  20 H :    0.275471
  21 H :    0.282591
  22 H :    0.283280
  23 H :    0.274426

  Mayer bond orders larger than 0.100000
B(  0-C ,  1-C ) :   0.8641 B(  0-C , 16-O ) :   0.9445 B(  0-C , 17-H ) :   0.9674
B(  0-C , 18-H ) :   0.9611 B(  1-C ,  2-H ) :   0.9377 B(  1-C ,  3-C ) :   0.9016
B(  1-C , 11-O ) :   0.9597 B(  3-C ,  4-H ) :   0.9792 B(  3-C ,  5-C ) :   0.8514
B(  3-C , 15-O ) :   0.9750 B(  5-C ,  6-H ) :   0.9744 B(  5-C ,  7-C ) :   0.8940
B(  5-C , 14-O ) :   0.9934 B(  7-C ,  8-H ) :   0.9622 B(  7-C ,  9-C ) :   0.9310
B(  7-C , 13-O ) :   0.9378 B(  9-C , 10-H ) :   0.9601 B(  9-C , 11-O ) :   0.9785
B(  9-C , 12-O ) :   0.9131 B( 12-O , 19-H ) :   0.8125 B( 13-O , 20-H ) :   0.8954
B( 14-O , 21-H ) :   0.8214 B( 15-O , 22-H ) :   0.8366 B( 16-O , 23-H ) :   0.8848

Dispersion correction           -0.008833408
FINAL SINGLE POINT ENERGY      -687.073341112083

DIPOLE MOMENT
-------------

Method             : SCF
Type of density    : Electron Density
Multiplicity       :   1
Irrep              :   0
Energy             :  -687.0869209879838309 Eh
Relativity type    :
Basis              : AO
                                X                 Y                 Z
Electronic contribution:      1.576783609      -0.480824320       1.135699650
Nuclear contribution   :     -1.478779675      -0.528940640      -0.562509264
                        -----------------------------------------
Total Dipole Moment    :      0.098003933      -1.009764960       0.573190386
                        -----------------------------------------
Magnitude (a.u.)       :      1.165236999
Magnitude (Debye)      :      2.961797073

Rotational constants in cm-1:             0.042949             0.029432             0.026259
Rotational constants in MHz :          1287.579476           882.350964           787.220276

                             ****ORCA TERMINATED NORMALLY****
TOTAL RUN TIME: 0 days 0 hours 0 minutes 41 seconds 244 msec
