                         Program Version 6.0.1  -  RELEASE   -
|  1> ! pbe def2-sv(p) def2/J RI DEFGRID1 loosescf d4 GCP(DFT/SV(P)) printgap
|  2> %output
|  3>     printlevel normal
|  4> end
|  5> * xyz 0 1
|  6> C 1.4843220296 0.580571411 0.0017127118
|  7> C 0.8273379565 -0.5619570744 -0.0212666087
|  8> C -0.6671441548 -0.6818090819 -0.0110285408
|  9> O -1.277267618 0.5874695662 0.025440985
| 10> H 2.5597595033 0.6187623088 -0.0068928609
| 11> H 0.9565858729 1.5175667801 0.0297533187
| 12> H 1.3403714958 -1.5141692751 -0.0493899196
| 13> H -0.9652765448 -1.2806911908 0.8660110221
| 14> H -0.9810814244 -1.2372011064 -0.9109221524
| 15> H -2.2324782811 0.4734401022 0.0320370439
| 16> *
| 17>
| 18>                          ****END OF INPUT****

CARTESIAN COORDINATES (ANGSTROEM)
---------------------------------
  C      1.484322    0.580571    0.001713
  C      0.827338   -0.561957   -0.021267
  C     -0.667144   -0.681809   -0.011029
  O     -1.277268    0.587470    0.025441
  H      2.559760    0.618762   -0.006893
  H      0.956586    1.517567    0.029753
  H      1.340371   -1.514169   -0.049390
  H     -0.965277   -1.280691    0.866011
  H     -0.981081   -1.237201   -0.910922
  H     -2.232478    0.473440    0.032037

 Total Charge           Charge          ....    0
 Multiplicity           Mult            ....    1
 Number of Electrons    NEL             ....   32
 Basis Dimension        Dim             ....   68

ORBITAL ENERGIES
----------------

  NO   OCC          E(Eh)            E(eV)
   0   2.0000     -18.746215      -510.1104
   1   2.0000      -9.936385      -270.3828
   2   2.0000      -9.884545      -268.9721
   3   2.0000      -9.871671      -268.6218
   4   2.0000      -0.923950       -25.1419
   5   2.0000      -0.696995       -18.9662
   6   2.0000      -0.603556       -16.4236
   7   2.0000      -0.495424       -13.4812
   8   2.0000      -0.462149       -12.5757
   9   2.0000      -0.403000       -10.9662
  10   2.0000      -0.398899       -10.8546
  11   2.0000      -0.367134        -9.9902
  12   2.0000      -0.305595        -8.3157
  13   2.0000      -0.283291        -7.7087
  14   2.0000      -0.233292        -6.3482
  15   2.0000      -0.211720        -5.7612
  16   0.0000      -0.007433        -0.2023
  17   0.0000       0.024180         0.6580
  18   0.0000       0.070840         1.9277
  19   0.0000       0.090807         2.4710
  20   0.0000       0.110247         3.0000

MULLIKEN ATOMIC CHARGES
-----------------------
   0 C :   -0.185129
   1 C :   -0.180009
   2 C :    0.045626
   3 O :   -0.427423
   4 H :    0.095337
   5 H :    0.110513
   6 H :    0.075529
   7 H :    0.082191
   8 H :    0.082218
   9 H :    0.301146
Sum of atomic charges:    0.0000000

LOEWDIN ATOMIC CHARGES
----------------------
   0 C :   -0.252920
   1 C :   -0.158895
   2 C :   -0.116903
   3 O :   -0.339770
   4 H :    0.121112
   5 H :    0.128081
   6 H :    0.121337
   7 H :    0.104948
   8 H :    0.104936
   9 H :    0.288076

  Mayer bond orders larger than 0.100000
B(  0-C ,  1-C ) :   2.0889 B(  0-C ,  4-H ) :   0.9238 B(  0-C ,  5-H ) :   0.9075
B(  1-C ,  2-C ) :   1.0721 B(  1-C ,  6-H ) :   0.9279 B(  2-C ,  3-O ) :   1.1047
B(  2-C ,  7-H ) :   0.9084 B(  2-C ,  8-H ) :   0.9084 B(  3-O ,  9-H ) :   0.8508

Dispersion correction           -0.005387272
FINAL SINGLE POINT ENERGY      -192.662330650647

DIPOLE MOMENT
-------------

Method             : SCF
Type of density    : Electron Density
Multiplicity       :   1
Irrep              :   0
Energy             :  -192.7019073114298067 Eh
Relativity type    :
Basis              : AO
                                X                 Y                 Z
Electronic contribution:     -1.141423458       0.811958916       0.029372706
Nuclear contribution   :      0.617025487      -1.325636251      -0.036589854
                        -----------------------------------------
Total Dipole Moment    :     -0.524397971      -0.513677335      -0.007217148
                        -----------------------------------------
Magnitude (a.u.)       :      0.734104709
Magnitude (Debye)      :      1.865945881

Rotational constants in cm-1:             0.581537             0.200667             0.153515
Rotational constants in MHz :         17434.052722          6015.848919          4602.259767

                             ****ORCA TERMINATED NORMALLY****
TOTAL RUN TIME: 0 days 0 hours 2 minutes 33 seconds 693 msec
