                         Program Version 6.0.1  -  RELEASE   -
|  1> ! r2scan-3c def2/J RI DEFGRID2 scfconv6 printgap
|  2> %output
|  3>     printlevel normal
|  4> end
|  5> * xyz 0 1
|  6> C -4.4432730957 -1.2135517538 -0.367845938
|  7> N -3.3445996924 -0.7413021221 0.4353895305
|  8> C -2.2336556131 -0.198901453 -0.1073325402
|  9> O -2.006976316 -0.0883039161 -1.2830121227
| 10> O -1.3941438243 0.2033690741 0.8880821392
| 11> C -0.1838697342 0.7716568305 0.4851442119
| 12> C -0.0914286595 2.1303413514 0.3542290235
| 13> C 1.12745093 2.7189599482 -0.0115175938
| 14> C 2.2260832863 1.9430537506 -0.2489739613
| 15> C 2.1573465858 0.5394199573 -0.1288214713
| 16> C 0.9304011491 -0.0687439319 0.2465790019
| 17> C 0.8653304684 -1.4718400609 0.3656096738
| 18> C 1.9666540115 -2.2420805748 0.1176069405
| 19> C 3.1804480028 -1.6453356378 -0.2554309825
| 20> C 3.2736436212 -0.2870771315 -0.3743353847
| 21> H -4.6467871592 -2.2659039069 -0.1614803702
| 22> H -4.1544480716 -1.0994230292 -1.4112096897
| 23> H -5.3462325986 -0.6294208648 -0.1774170046
| 24> H -3.4270482009 -0.7505570529 1.4389107705
| 25> H -0.9621529402 2.743376776 0.5308967203
| 26> H 1.1817117815 3.7927332355 -0.1102149016
| 27> H 3.1649379834 2.3929886952 -0.5377786104
| 28> H -0.0698956809 -1.9281317102 0.6551931349
| 29> H 1.909738605 -3.3169363068 0.207721807
| 30> H 4.0405278445 -2.2699900298 -0.4478369781
| 31> H 4.2066503343 0.1768565146 -0.6609425682
| 32> *
| 33>
| 34>                          ****END OF INPUT****

CARTESIAN COORDINATES (ANGSTROEM)
---------------------------------
  C     -4.443273   -1.213552   -0.367846
  N     -3.344600   -0.741302    0.435390
  C     -2.233656   -0.198901   -0.107333
  O     -2.006976   -0.088304   -1.283012
  O     -1.394144    0.203369    0.888082
  C     -0.183870    0.771657    0.485144
  C     -0.091429    2.130341    0.354229
  C      1.127451    2.718960   -0.011518
  C      2.226083    1.943054   -0.248974
  C      2.157347    0.539420   -0.128821
  C      0.930401   -0.068744    0.246579
  C      0.865330   -1.471840    0.365610
  C      1.966654   -2.242081    0.117607
  C      3.180448   -1.645336   -0.255431
  C      3.273644   -0.287077   -0.374335
  H     -4.646787   -2.265904   -0.161480
  H     -4.154448   -1.099423   -1.411210
  H     -5.346233   -0.629421   -0.177417
  H     -3.427048   -0.750557    1.438911
  H     -0.962153    2.743377    0.530897
  H      1.181712    3.792733   -0.110215
  H      3.164938    2.392989   -0.537779
  H     -0.069896   -1.928132    0.655193
  H      1.909739   -3.316936    0.207722
  H      4.040528   -2.269990   -0.447837
  H      4.206650    0.176857   -0.660943

 Total Charge           Charge          ....    0
 Multiplicity           Mult            ....    1
 Number of Electrons    NEL             ....  106
 Basis Dimension        Dim             ....  355

ORBITAL ENERGIES
----------------

  NO   OCC          E(Eh)            E(eV)
   0   2.0000     -19.001963      -517.0697
   1   2.0000     -18.918962      -514.8111
   2   2.0000     -14.192805      -386.2058
   3   2.0000     -10.173774      -276.8425
   4   2.0000     -10.099639      -274.8251
   5   2.0000     -10.068698      -273.9832
   6   2.0000     -10.049238      -273.4537
   7   2.0000     -10.048763      -273.4407
   8   2.0000     -10.040150      -273.2064
   9   2.0000     -10.038847      -273.1709
  10   2.0000     -10.038204      -273.1534
  11   2.0000     -10.038161      -273.1522
  12   2.0000     -10.037372      -273.1308
  13   2.0000     -10.037045      -273.1219
  14   2.0000     -10.037006      -273.1208
  15   2.0000      -1.080452       -29.4006
  16   2.0000      -0.986885       -26.8545
  17   2.0000      -0.902761       -24.5654
  18   2.0000      -0.847886       -23.0721
  19   2.0000      -0.796434       -21.6721
  20   2.0000      -0.747679       -20.3454
  21   2.0000      -0.717492       -19.5239
  22   2.0000      -0.705217       -19.1899
  23   2.0000      -0.676820       -18.4172
  24   2.0000      -0.607767       -16.5382
  25   2.0000      -0.591123       -16.0853
  26   2.0000      -0.587773       -15.9941
  27   2.0000      -0.554895       -15.0995
  28   2.0000      -0.529325       -14.4037
  29   2.0000      -0.491630       -13.3779
  30   2.0000      -0.474469       -12.9110
  31   2.0000      -0.466893       -12.7048
  32   2.0000      -0.454997       -12.3811
  33   2.0000      -0.442102       -12.0302
  34   2.0000      -0.419989       -11.4285
  35   2.0000      -0.419138       -11.4053
  36   2.0000      -0.401551       -10.9268
  37   2.0000      -0.398176       -10.8349
  38   2.0000      -0.390346       -10.6218
  39   2.0000      -0.382751       -10.4152
  40   2.0000      -0.371376       -10.1057
  41   2.0000      -0.367249        -9.9934
  42   2.0000      -0.360242        -9.8027
  43   2.0000      -0.348362        -9.4794
  44   2.0000      -0.317937        -8.6515
  45   2.0000      -0.311307        -8.4711
  46   2.0000      -0.307514        -8.3679
  47   2.0000      -0.278161        -7.5692
  48   2.0000      -0.264645        -7.2014
  49   2.0000      -0.247542        -6.7360
  50   2.0000      -0.236469        -6.4346
  51   2.0000      -0.233560        -6.3555
  52   2.0000      -0.202776        -5.5178
  53   0.0000      -0.068687        -1.8691
  54   0.0000      -0.038588        -1.0500
  55   0.0000      -0.000939        -0.0256
  56   0.0000       0.027172         0.7394
  57   0.0000       0.056207         1.5295

MULLIKEN ATOMIC CHARGES
-----------------------
   0 C :   -0.395373
   1 N :   -0.161385
   2 C :    0.351262
   3 O :   -0.467728
   4 O :   -0.197427
   5 C :    0.299171
   6 C :   -0.245045
   7 C :   -0.130108
   8 C :   -0.270517
   9 C :    0.191021
  10 C :    0.023672
  11 C :   -0.239815
  12 C :   -0.159693
  13 C :   -0.142874
  14 C :   -0.220135
  15 H :    0.143488
  16 H :    0.196762
  17 H :    0.142812
  18 H :    0.248496
  19 H :    0.155137
  20 H :    0.146840
  21 H :    0.144447
  22 H :    0.152678
  23 H :    0.145210
  24 H :    0.145333
  25 H :    0.143772
Sum of atomic charges:    0.0000000

LOEWDIN ATOMIC CHARGES
----------------------
   0 C :   -0.110133
   1 N :   -0.612482
   2 C :    0.451121
   3 O :   -0.390581
   4 O :   -0.516153
   5 C :    0.218766
   6 C :   -0.116300
   7 C :   -0.154188
   8 C :   -0.145719
   9 C :   -0.051714
  10 C :   -0.017359
  11 C :   -0.123357
  12 C :   -0.159673
  13 C :   -0.160996
  14 C :   -0.141646
  15 H :    0.168676
  16 H :    0.206635
  17 H :    0.167845
  18 H :    0.276300
  19 H :    0.181091
  20 H :    0.169858
  21 H :    0.171272
  22 H :    0.181209
  23 H :    0.168264
  24 H :    0.168049
  25 H :    0.171215

  Mayer bond orders larger than 0.100000
B(  0-C ,  1-N ) :   0.9007 B(  0-C , 15-H ) :   0.9628 B(  0-C , 16-H ) :   0.9588
B(  0-C , 17-H ) :   0.9605 B(  1-N ,  2-C ) :   1.2490 B(  1-N , 18-H ) :   0.9130
B(  2-C ,  3-O ) :   1.8459 B(  2-C ,  4-O ) :   1.0505 B(  4-O ,  5-C ) :   0.9657
B(  5-C ,  6-C ) :   1.5122 B(  5-C , 10-C ) :   1.2969 B(  6-C ,  7-C ) :   1.2252
B(  6-C , 19-H ) :   0.9286 B(  7-C ,  8-C ) :   1.5082 B(  7-C , 20-H ) :   0.9523
B(  8-C ,  9-C ) :   1.1757 B(  8-C , 21-H ) :   0.9436 B(  9-C , 10-C ) :   1.4073
B(  9-C , 14-C ) :   1.1833 B( 10-C , 11-C ) :   1.2652 B( 11-C , 12-C ) :   1.4988
B( 11-C , 22-H ) :   0.9535 B( 12-C , 13-C ) :   1.2655 B( 12-C , 23-H ) :   0.9502
B( 13-C , 14-C ) :   1.5141 B( 13-C , 24-H ) :   0.9487 B( 14-C , 25-H ) :   0.9501

Dispersion correction           -0.010740346
FINAL SINGLE POINT ENERGY      -668.978714275462

DIPOLE MOMENT
-------------

Method             : SCF
Type of density    : Electron Density
Multiplicity       :   1
Irrep              :   0
Energy             :  -668.9827539749835523 Eh
Relativity type    :
Basis              : AO
                                X                 Y                 Z
Electronic contribution:      3.440716359       2.717913236       1.362173387
Nuclear contribution   :     -3.918051047      -2.961741208      -0.635933425
                        -----------------------------------------
Total Dipole Moment    :     -0.477334688      -0.243827973       0.726239962
                        -----------------------------------------
Magnitude (a.u.)       :      0.902621165
Magnitude (Debye)      :      2.294280671

Rotational constants in cm-1:             0.037210             0.014124             0.011031
Rotational constants in MHz :          1115.535147           423.413521           330.694079

                             ****ORCA TERMINATED NORMALLY****
TOTAL RUN TIME: 0 days 0 hours 0 minutes 42 seconds 930 msec
