                         Program Version 6.0.1  -  RELEASE   -
|  1> ! r2scan-3c def2/J RI DEFGRID2 scfconv6 printgap
|  2> %output
|  3>     printlevel normal
|  4> end
|  5> * xyz 0 1
|  6> C -2.3374561577 0.094802752 -0.2242771294
|  7> C -0.9359077368 0.4447362351 0.2651962415
|  8> C 0.002368677 -0.7177756173 0.1514139755
|  9> C 1.3123398194 -0.6294255641 -0.0227166528
| 10> C 2.0733816096 0.6557449981 -0.1379674798
| 11> H -3.0005700845 0.9522549413 -0.1314747784
| 12> H -2.7532371716 -0.7247823138 0.3581675964
| 13> H -2.309531317 -0.2066096596 -1.2692988097
| 14> H -0.5492206442 1.2924745928 -0.3041931116
| 15> H -0.988969616 0.7563811831 1.3142438579
| 16> H -0.458665008 -1.6929369252 0.2359877462
| 17> H 1.8990557774 -1.5359070554 -0.0817740265
| 18> H 1.6836038422 1.2645135378 -0.953898524
| 19> H 3.1269626231 0.4666099399 -0.3236575574
| 20> H 1.9833957609 1.238377237 0.7787415425
| 21> *
| 22>
| 23>                          ****END OF INPUT****

CARTESIAN COORDINATES (ANGSTROEM)
---------------------------------
  C     -2.337456    0.094803   -0.224277
  C     -0.935908    0.444736    0.265196
  C      0.002369   -0.717776    0.151414
  C      1.312340   -0.629426   -0.022717
  C      2.073382    0.655745   -0.137967
  H     -3.000570    0.952255   -0.131475
  H     -2.753237   -0.724782    0.358168
  H     -2.309531   -0.206610   -1.269299
  H     -0.549221    1.292475   -0.304193
  H     -0.988970    0.756381    1.314244
  H     -0.458665   -1.692937    0.235988
  H      1.899056   -1.535907   -0.081774
  H      1.683604    1.264514   -0.953899
  H      3.126963    0.466610   -0.323658
  H      1.983396    1.238377    0.778742

 Total Charge           Charge          ....    0
 Multiplicity           Mult            ....    1
 Number of Electrons    NEL             ....   40
 Basis Dimension        Dim             ....  145

ORBITAL ENERGIES
----------------

  NO   OCC          E(Eh)            E(eV)
   0   2.0000     -10.028275      -272.8832
   1   2.0000     -10.022018      -272.7130
   2   2.0000     -10.021549      -272.7002
   3   2.0000     -10.018851      -272.6268
   4   2.0000     -10.017907      -272.6011
   5   2.0000      -0.772655       -21.0250
   6   2.0000      -0.718047       -19.5390
   7   2.0000      -0.646264       -17.5857
   8   2.0000      -0.581827       -15.8323
   9   2.0000      -0.495229       -13.4759
  10   2.0000      -0.442344       -12.0368
  11   2.0000      -0.411724       -11.2036
  12   2.0000      -0.397607       -10.8194
  13   2.0000      -0.379075       -10.3152
  14   2.0000      -0.349405        -9.5078
  15   2.0000      -0.338775        -9.2185
  16   2.0000      -0.325858        -8.8670
  17   2.0000      -0.313006        -8.5173
  18   2.0000      -0.290916        -7.9162
  19   2.0000      -0.217019        -5.9054
  20   0.0000      -0.005334        -0.1452
  21   0.0000       0.094696         2.5768
  22   0.0000       0.112936         3.0731
  23   0.0000       0.129604         3.5267
  24   0.0000       0.145156         3.9499

MULLIKEN ATOMIC CHARGES
-----------------------
   0 C :   -0.466005
   1 C :   -0.237395
   2 C :   -0.158102
   3 C :   -0.144656
   4 C :   -0.488383
   5 H :    0.144164
   6 H :    0.139884
   7 H :    0.150502
   8 H :    0.138600
   9 H :    0.155761
  10 H :    0.148751
  11 H :    0.152727
  12 H :    0.159635
  13 H :    0.145869
  14 H :    0.158647
Sum of atomic charges:   -0.0000000

LOEWDIN ATOMIC CHARGES
----------------------
   0 C :   -0.420140
   1 C :   -0.306564
   2 C :   -0.211053
   3 C :   -0.215566
   4 C :   -0.420830
   5 H :    0.149872
   6 H :    0.150257
   7 H :    0.152652
   8 H :    0.157963
   9 H :    0.162931
  10 H :    0.163406
  11 H :    0.160291
  12 H :    0.160216
  13 H :    0.154963
  14 H :    0.161601

  Mayer bond orders larger than 0.100000
B(  0-C ,  1-C ) :   0.8929 B(  0-C ,  5-H ) :   0.9747 B(  0-C ,  6-H ) :   0.9739
B(  0-C ,  7-H ) :   0.9853 B(  1-C ,  2-C ) :   0.9270 B(  1-C ,  8-H ) :   0.9828
B(  1-C ,  9-H ) :   0.9642 B(  2-C ,  3-C ) :   1.9458 B(  2-C , 10-H ) :   0.9443
B(  3-C ,  4-C ) :   0.8962 B(  3-C , 11-H ) :   0.9517 B(  4-C , 12-H ) :   0.9811
B(  4-C , 13-H ) :   0.9738 B(  4-C , 14-H ) :   0.9749

Dispersion correction           -0.003243092
FINAL SINGLE POINT ENERGY      -196.458728193427

DIPOLE MOMENT
-------------

Method             : SCF
Type of density    : Electron Density
Multiplicity       :   1
Irrep              :   0
Energy             :  -196.4616268185563683 Eh
Relativity type    :
Basis              : AO
                                X                 Y                 Z
Electronic contribution:      1.272600705      -1.547453610       0.377602775
Nuclear contribution   :     -1.282633840       1.698427361      -0.353833880
                        -----------------------------------------
Total Dipole Moment    :     -0.010033135       0.150973751       0.023768895
                        -----------------------------------------
Magnitude (a.u.)       :      0.153162325
Magnitude (Debye)      :      0.389307691

Rotational constants in cm-1:             0.440826             0.084468             0.075450
Rotational constants in MHz :         13215.622944          2532.290129          2261.939564

                             ****ORCA TERMINATED NORMALLY****
TOTAL RUN TIME: 0 days 0 hours 0 minutes 9 seconds 702 msec
