                         Program Version 6.0.1  -  RELEASE   -
|  1> ! r2scan-3c def2/J RI DEFGRID2 scfconv6 printgap
|  2> %output
|  3>     printlevel normal
|  4> end
|  5> * xyz 0 1
|  6> C -2.0609341479 0.4489763706 -0.3298438445
|  7> C -0.8259047159 0.2794986837 0.5476866861
|  8> C 0.4180789432 -0.1472047087 -0.2583365122
|  9> C 1.5160786602 0.9118514673 -0.1808674414
| 10> C 0.9534914954 -1.4939899193 0.224004788
| 11> H -2.9175719345 0.7520898695 0.2687903198
| 12> H -2.306574194 -0.4863181227 -0.8285032588
| 13> H -1.8891983865 1.208565113 -1.0895981114
| 14> H -0.625477482 1.2219901921 1.0606309578
| 15> H -1.0393592857 -0.4659679431 1.3159944747
| 16> H 0.1294892021 -0.2567406597 -1.3094228805
| 17> H 1.1505146439 1.8701091625 -0.543506769
| 18> H 2.372046389 0.6214921553 -0.7868095932
| 19> H 1.8516237033 1.0362560185 0.8469450069
| 20> H 1.2717413229 -1.4262880954 1.2625238668
| 21> H 1.8071310964 -1.8037774664 -0.375508565
| 22> H 0.1859794708 -2.2610651236 0.1469602434
| 23> *
| 24>
| 25>                          ****END OF INPUT****

CARTESIAN COORDINATES (ANGSTROEM)
---------------------------------
  C     -2.060934    0.448976   -0.329844
  C     -0.825905    0.279499    0.547687
  C      0.418079   -0.147205   -0.258337
  C      1.516079    0.911851   -0.180867
  C      0.953491   -1.493990    0.224005
  H     -2.917572    0.752090    0.268790
  H     -2.306574   -0.486318   -0.828503
  H     -1.889198    1.208565   -1.089598
  H     -0.625477    1.221990    1.060631
  H     -1.039359   -0.465968    1.315994
  H      0.129489   -0.256741   -1.309423
  H      1.150515    1.870109   -0.543507
  H      2.372046    0.621492   -0.786810
  H      1.851624    1.036256    0.846945
  H      1.271741   -1.426288    1.262524
  H      1.807131   -1.803777   -0.375509
  H      0.185979   -2.261065    0.146960

 Total Charge           Charge          ....    0
 Multiplicity           Mult            ....    1
 Number of Electrons    NEL             ....   42
 Basis Dimension        Dim             ....  155

ORBITAL ENERGIES
----------------

  NO   OCC          E(Eh)            E(eV)
   0   2.0000     -10.028873      -272.8995
   1   2.0000     -10.019251      -272.6377
   2   2.0000     -10.014569      -272.5103
   3   2.0000     -10.012439      -272.4523
   4   2.0000     -10.012394      -272.4511
   5   2.0000      -0.774105       -21.0645
   6   2.0000      -0.699581       -19.0366
   7   2.0000      -0.647004       -17.6059
   8   2.0000      -0.585338       -15.9278
   9   2.0000      -0.524496       -14.2723
  10   2.0000      -0.419104       -11.4044
  11   2.0000      -0.417851       -11.3703
  12   2.0000      -0.406857       -11.0712
  13   2.0000      -0.368284       -10.0215
  14   2.0000      -0.359603        -9.7853
  15   2.0000      -0.350449        -9.5362
  16   2.0000      -0.328414        -8.9366
  17   2.0000      -0.312584        -8.5058
  18   2.0000      -0.286619        -7.7993
  19   2.0000      -0.284241        -7.7346
  20   2.0000      -0.280000        -7.6192
  21   0.0000       0.083899         2.2830
  22   0.0000       0.111419         3.0319
  23   0.0000       0.125415         3.4127
  24   0.0000       0.126890         3.4529
  25   0.0000       0.140710         3.8289

MULLIKEN ATOMIC CHARGES
-----------------------
   0 C :   -0.482084
   1 C :   -0.282670
   2 C :    0.032060
   3 C :   -0.506871
   4 C :   -0.505456
   5 H :    0.141671
   6 H :    0.144906
   7 H :    0.144483
   8 H :    0.147793
   9 H :    0.147923
  10 H :    0.146905
  11 H :    0.146053
  12 H :    0.140567
  13 H :    0.149232
  14 H :    0.148901
  15 H :    0.140506
  16 H :    0.146080
Sum of atomic charges:   -0.0000000

LOEWDIN ATOMIC CHARGES
----------------------
   0 C :   -0.421903
   1 C :   -0.310817
   2 C :   -0.250065
   3 C :   -0.418905
   4 C :   -0.418966
   5 H :    0.148441
   6 H :    0.148529
   7 H :    0.148563
   8 H :    0.155030
   9 H :    0.154924
  10 H :    0.154185
  11 H :    0.151993
  12 H :    0.151197
  13 H :    0.152290
  14 H :    0.152364
  15 H :    0.151202
  16 H :    0.151938

  Mayer bond orders larger than 0.100000
B(  0-C ,  1-C ) :   0.8932 B(  0-C ,  5-H ) :   0.9727 B(  0-C ,  6-H ) :   0.9824
B(  0-C ,  7-H ) :   0.9816 B(  1-C ,  2-C ) :   0.8233 B(  1-C ,  8-H ) :   0.9791
B(  1-C ,  9-H ) :   0.9803 B(  2-C ,  3-C ) :   0.9038 B(  2-C ,  4-C ) :   0.9038
B(  2-C , 10-H ) :   0.9624 B(  3-C , 11-H ) :   0.9746 B(  3-C , 12-H ) :   0.9744
B(  3-C , 13-H ) :   0.9865 B(  4-C , 14-H ) :   0.9860 B(  4-C , 15-H ) :   0.9746
B(  4-C , 16-H ) :   0.9750

Dispersion correction           -0.003834815
FINAL SINGLE POINT ENERGY      -197.684826456276

DIPOLE MOMENT
-------------

Method             : SCF
Type of density    : Electron Density
Multiplicity       :   1
Irrep              :   0
Energy             :  -197.6890985178393407 Eh
Relativity type    :
Basis              : AO
                                X                 Y                 Z
Electronic contribution:     -0.010449643      -0.007885524       0.015687462
Nuclear contribution   :     -0.009058369       0.009705367      -0.029556108
                        -----------------------------------------
Total Dipole Moment    :     -0.019508012       0.001819843      -0.013868646
                        -----------------------------------------
Magnitude (a.u.)       :      0.024004452
Magnitude (Debye)      :      0.061014467

Rotational constants in cm-1:             0.233840             0.109218             0.086242
Rotational constants in MHz :          7010.335943          3274.260980          2585.482659

                             ****ORCA TERMINATED NORMALLY****
TOTAL RUN TIME: 0 days 0 hours 0 minutes 20 seconds 518 msec
