                         Program Version 6.0.0  -   RELEASE  -
|  1> ! r2SCAN-3c DEF2-TZVP FREQ
|  2> * xyzfile 0 1 censo.xyz
|  3>
|  4>                          ****END OF INPUT****

CARTESIAN COORDINATES (ANGSTROEM)
---------------------------------
  C     -3.401525    0.605877    0.000909
  O     -1.961353    0.777639    0.001265
  C     -1.238215   -0.356850   -0.000645
  O     -1.744964   -1.468958   -0.002275
  C      0.222680   -0.106458   -0.000161
  C      1.081597   -1.211205    0.000336
  C      2.457451   -1.023156    0.000573
  C      2.985191    0.266862    0.000238
  C      2.133284    1.369457   -0.000285
  C      0.755476    1.188281   -0.000429
  H     -3.810064    1.615571    0.006009
  H     -3.716023    0.061142    0.894119
  H     -3.716405    0.070058   -0.897572
  H      0.664859   -2.212242    0.000546
  H      3.119914   -1.882369    0.001005
  H      4.060590    0.412867    0.000377
  H      2.543396    2.373894   -0.000597
  H      0.098180    2.049357   -0.000870

 Total Charge           Charge          ....    0
 Multiplicity           Mult            ....    1
 Number of Electrons    NEL             ....   72
 Basis Dimension        Dim             ....  358

ORBITAL ENERGIES
----------------

  NO   OCC          E(Eh)            E(eV)
   0   2.0000     -19.002991      -517.0977
   1   2.0000     -18.932698      -515.1849
   2   2.0000     -10.156271      -276.3662
   3   2.0000     -10.089767      -274.5565
   4   2.0000     -10.057135      -273.6686
   5   2.0000     -10.051710      -273.5209
   6   2.0000     -10.050323      -273.4832
   7   2.0000     -10.048155      -273.4242
   8   2.0000     -10.048058      -273.4216
   9   2.0000     -10.047491      -273.4061
  10   2.0000      -1.066235       -29.0137
  11   2.0000      -0.973292       -26.4846
  12   2.0000      -0.835344       -22.7309
  13   2.0000      -0.745429       -20.2842
  14   2.0000      -0.725654       -19.7461
  15   2.0000      -0.691607       -18.8196
  16   2.0000      -0.603680       -16.4270
  17   2.0000      -0.582820       -15.8593
  18   2.0000      -0.537966       -14.6388
  19   2.0000      -0.507064       -13.7979
  20   2.0000      -0.460721       -12.5368
  21   2.0000      -0.450824       -12.2675
  22   2.0000      -0.445212       -12.1148
  23   2.0000      -0.424165       -11.5421
  24   2.0000      -0.413321       -11.2470
  25   2.0000      -0.399865       -10.8809
  26   2.0000      -0.388117       -10.5612
  27   2.0000      -0.380246       -10.3470
  28   2.0000      -0.344957        -9.3868
  29   2.0000      -0.336481        -9.1561
  30   2.0000      -0.329978        -8.9792
  31   2.0000      -0.318385        -8.6637
  32   2.0000      -0.278717        -7.5843
  33   2.0000      -0.248991        -6.7754
  34   2.0000      -0.247564        -6.7366
  35   2.0000      -0.242733        -6.6051
  36   0.0000      -0.078590        -2.1386
  37   0.0000      -0.043520        -1.1842
  38   0.0000       0.022577         0.6143
  39   0.0000       0.048852         1.3293
  40   0.0000       0.065715         1.7882

MULLIKEN ATOMIC CHARGES
-----------------------
   0 C :   -0.159251
   1 O :   -0.251117
   2 C :    0.353843
   3 O :   -0.374736
   4 C :    0.090509
   5 C :   -0.178305
   6 C :   -0.077711
   7 C :   -0.104157
   8 C :   -0.084250
   9 C :   -0.189938
  10 H :    0.118792
  11 H :    0.124645
  12 H :    0.124520
  13 H :    0.138390
  14 H :    0.114850
  15 H :    0.116199
  16 H :    0.112714
  17 H :    0.125003
Sum of atomic charges:   -0.0000000

LOEWDIN ATOMIC CHARGES
----------------------
   0 C :   -0.287908
   1 O :    0.237834
   2 C :   -0.439091
   3 O :    0.091053
   4 C :   -0.124464
   5 C :   -0.075634
   6 C :   -0.133415
   7 C :   -0.125498
   8 C :   -0.135678
   9 C :   -0.088974
  10 H :    0.110850
  11 H :    0.113653
  12 H :    0.113613
  13 H :    0.157179
  14 H :    0.145343
  15 H :    0.144575
  16 H :    0.144743
  17 H :    0.151818

  Mayer bond orders larger than 0.100000
B(  0-C ,  1-O ) :   0.8841 B(  0-C , 10-H ) :   0.9713 B(  0-C , 11-H ) :   0.9717
B(  0-C , 12-H ) :   0.9718 B(  1-O ,  2-C ) :   1.1954 B(  2-C ,  3-O ) :   1.9474
B(  2-C ,  4-C ) :   0.9684 B(  4-C ,  5-C ) :   1.3570 B(  4-C ,  9-C ) :   1.3331
B(  5-C ,  6-C ) :   1.4052 B(  5-C , 13-H ) :   0.9584 B(  6-C ,  7-C ) :   1.3741
B(  6-C , 14-H ) :   0.9738 B(  7-C ,  8-C ) :   1.3804 B(  7-C , 15-H ) :   0.9671
B(  8-C ,  9-C ) :   1.4166 B(  8-C , 16-H ) :   0.9730 B(  9-C , 17-H ) :   0.9643

Dispersion correction           -0.005857385
FINAL SINGLE POINT ENERGY      -460.059593350821

DIPOLE MOMENT
-------------

Method             : SCF
Type of density    : Electron Density
Multiplicity       :   1
Irrep              :   0
Energy             :  -460.0619239766600685 Eh
Relativity type    :
Basis              : AO
                                X                 Y                 Z
Electronic contribution:      1.015639390      -1.545431034      -0.002037427
Nuclear contribution   :     -0.760739316       2.310411349       0.003187185
                        -----------------------------------------
Total Dipole Moment    :      0.254900075       0.764980315       0.001149758
                        -----------------------------------------
Magnitude (a.u.)       :      0.806331354
Magnitude (Debye)      :      2.049531424

VIBRATIONAL FREQUENCIES
-----------------------

Scaling factor for frequencies =  1.000000000  (already applied!)

     0:       0.00 cm**-1
     1:       0.00 cm**-1
     2:       0.00 cm**-1
     3:       0.00 cm**-1
     4:       0.00 cm**-1
     5:       0.00 cm**-1
     6:      70.00 cm**-1
     7:     123.31 cm**-1
     8:     156.06 cm**-1
     9:     173.24 cm**-1
    10:     211.82 cm**-1
    11:     331.98 cm**-1
    12:     360.79 cm**-1
    13:     408.13 cm**-1
    14:     452.51 cm**-1
    15:     483.74 cm**-1
    16:     633.08 cm**-1
    17:     689.87 cm**-1
    18:     696.89 cm**-1
    19:     718.44 cm**-1
    20:     820.14 cm**-1
    21:     831.60 cm**-1
    22:     856.90 cm**-1
    23:     947.47 cm**-1
    24:     958.93 cm**-1
    25:     973.16 cm**-1
    26:     990.99 cm**-1
    27:    1022.25 cm**-1
    28:    1046.33 cm**-1
    29:    1100.90 cm**-1
    30:    1126.15 cm**-1
    31:    1165.00 cm**-1
    32:    1182.98 cm**-1
    33:    1198.85 cm**-1
    34:    1204.06 cm**-1
    35:    1297.42 cm**-1
    36:    1336.68 cm**-1
    37:    1355.73 cm**-1
    38:    1459.12 cm**-1
    39:    1475.75 cm**-1
    40:    1476.54 cm**-1
    41:    1483.26 cm**-1
    42:    1518.03 cm**-1
    43:    1612.11 cm**-1
    44:    1632.11 cm**-1
    45:    1702.76 cm**-1
    46:    3031.92 cm**-1
    47:    3121.84 cm**-1
    48:    3147.90 cm**-1
    49:    3161.83 cm**-1
    50:    3172.74 cm**-1
    51:    3182.43 cm**-1
    52:    3194.55 cm**-1
    53:    3202.23 cm**-1

IR SPECTRUM
-----------

 Mode   freq       eps      Int      T**2         TX        TY        TZ
       cm**-1   L/(mol*cm) km/mol    a.u.
----------------------------------------------------------------------------
  6:     70.00   0.000353    1.78  0.001574  (-0.000029 -0.000047 -0.039673)
  7:    123.31   0.000264    1.34  0.000669  ( 0.000122  0.000073  0.025859)
  8:    156.06   0.000000    0.00  0.000000  ( 0.000075  0.000496 -0.000136)
  9:    173.24   0.000430    2.17  0.000774  (-0.007590 -0.026771  0.000003)
 10:    211.82   0.000489    2.47  0.000721  (-0.000052  0.000125  0.026842)
 11:    331.98   0.003060   15.46  0.002876  (-0.043156  0.031843  0.000026)
 12:    360.79   0.000085    0.43  0.000074  ( 0.007944 -0.003277 -0.000011)
 13:    408.13   0.000000    0.00  0.000000  (-0.000173  0.000027 -0.000258)
 14:    452.51   0.000077    0.39  0.000053  ( 0.000155 -0.000064  0.007283)
 15:    483.74   0.000894    4.52  0.000577  ( 0.021966  0.009703 -0.000075)
 16:    633.08   0.000088    0.44  0.000043  (-0.005588  0.003477 -0.000001)
 17:    689.87   0.001135    5.73  0.000513  ( 0.022379  0.003531 -0.000001)
 18:    696.89   0.005504   27.82  0.002465  ( 0.000007 -0.000026  0.049646)
 19:    718.44   0.012807   64.72  0.005563  (-0.000004  0.000080 -0.074585)
 20:    820.14   0.000224    1.13  0.000085  ( 0.000064 -0.000033  0.009226)
 21:    831.60   0.001077    5.44  0.000404  ( 0.009297  0.017821 -0.000004)
 22:    856.90   0.000010    0.05  0.000004  (-0.000050 -0.000017 -0.001898)
 23:    947.47   0.000261    1.32  0.000086  (-0.000130  0.000063 -0.009271)
 24:    958.93   0.004154   20.99  0.001352  ( 0.035741  0.008630 -0.000013)
 25:    973.16   0.000020    0.10  0.000006  (-0.000021  0.000022 -0.002521)
 26:    990.99   0.000031    0.15  0.000010  (-0.000023 -0.000074  0.003107)
 27:   1022.25   0.000009    0.05  0.000003  ( 0.000819 -0.001481 -0.000001)
 28:   1046.33   0.003638   18.38  0.001085  (-0.032882  0.001916  0.000003)
 29:   1100.90   0.006889   34.81  0.001953  ( 0.033722 -0.028557 -0.000018)
 30:   1126.15   0.017658   89.24  0.004893  ( 0.066315 -0.022261 -0.000051)
 31:   1165.00   0.000152    0.77  0.000041  (-0.000026  0.000017  0.006379)
 32:   1182.98   0.000063    0.32  0.000017  ( 0.002129  0.003483  0.000001)
 33:   1198.85   0.008859   44.77  0.002306  (-0.046855  0.010519  0.000015)
 34:   1204.06   0.006090   30.78  0.001578  (-0.033652  0.021118  0.000027)
 35:   1297.42   0.076843  388.33  0.018483  ( 0.129367 -0.041795 -0.000062)
 36:   1336.68   0.005049   25.52  0.001179  ( 0.032775 -0.010224 -0.000009)
 37:   1355.73   0.000705    3.56  0.000162  (-0.008348 -0.009621  0.000003)
 38:   1459.12   0.005829   29.46  0.001247  (-0.035080 -0.003992  0.000143)
 39:   1475.75   0.003244   16.40  0.000686  ( 0.021074 -0.015551 -0.000289)
 40:   1476.54   0.001735    8.77  0.000367  (-0.000425  0.000232 -0.019145)
 41:   1483.26   0.001700    8.59  0.000358  (-0.010552  0.015696 -0.000004)
 42:   1518.03   0.000308    1.55  0.000063  ( 0.001639 -0.007780 -0.000008)
 43:   1612.11   0.002188   11.06  0.000424  ( 0.012432  0.016402  0.000020)
 44:   1632.11   0.002669   13.49  0.000510  (-0.022047 -0.004930 -0.000006)
 45:   1702.76   0.046045  232.69  0.008439  ( 0.038773  0.083278  0.000148)
 46:   3031.92   0.006793   34.33  0.000699  ( 0.026281 -0.002909  0.000051)
 47:   3121.84   0.003244   16.39  0.000324  ( 0.000029 -0.000002 -0.018008)
 48:   3147.90   0.002797   14.14  0.000277  ( 0.006345 -0.015396 -0.000034)
 49:   3161.83   0.000044    0.22  0.000004  (-0.002063  0.000235 -0.000000)
 50:   3172.74   0.002169   10.96  0.000213  (-0.000540  0.014597 -0.000004)
 51:   3182.43   0.002910   14.71  0.000285  (-0.016653 -0.002830 -0.000002)
 52:   3194.55   0.001235    6.24  0.000121  (-0.008971  0.006335 -0.000007)
 53:   3202.23   0.000609    3.08  0.000059  ( 0.003239  0.006991 -0.000004)

--------------------------
THERMOCHEMISTRY AT 298.15K
--------------------------

Temperature         ...   298.15 K
Pressure            ...     1.00 atm
Total Mass          ...   136.15 AMU
Quasi RRHO          ...     True
Cut-Off Frequency   ...     1.00 cm^-1

Throughout the following assumptions are being made:
  (1) The electronic state is orbitally nondegenerate
  (2) There are no thermally accessible electronically excited states
  (3) Hindered rotations indicated by low frequency modes are not
      treated as such but are treated as vibrations and this may
      cause some error
  (4) All equations used are the standard statistical mechanics
      equations for an ideal gas
  (5) All vibrations are strictly harmonic

freq.      70.00  E(vib)   ...       0.50
freq.     123.31  E(vib)   ...       0.43
freq.     156.06  E(vib)   ...       0.40
freq.     173.24  E(vib)   ...       0.38
freq.     211.82  E(vib)   ...       0.34
freq.     331.98  E(vib)   ...       0.24
freq.     360.79  E(vib)   ...       0.22
freq.     408.13  E(vib)   ...       0.19
freq.     452.51  E(vib)   ...       0.16
freq.     483.74  E(vib)   ...       0.15
freq.     633.08  E(vib)   ...       0.09
freq.     689.87  E(vib)   ...       0.07
freq.     696.89  E(vib)   ...       0.07
freq.     718.44  E(vib)   ...       0.07
freq.     820.14  E(vib)   ...       0.05
freq.     831.60  E(vib)   ...       0.04
freq.     856.90  E(vib)   ...       0.04
freq.     947.47  E(vib)   ...       0.03
freq.     958.93  E(vib)   ...       0.03
freq.     973.16  E(vib)   ...       0.03
freq.     990.99  E(vib)   ...       0.02
freq.    1022.25  E(vib)   ...       0.02
freq.    1046.33  E(vib)   ...       0.02
freq.    1100.90  E(vib)   ...       0.02
freq.    1126.15  E(vib)   ...       0.01
freq.    1165.00  E(vib)   ...       0.01
freq.    1182.98  E(vib)   ...       0.01
freq.    1198.85  E(vib)   ...       0.01
freq.    1204.06  E(vib)   ...       0.01
freq.    1297.42  E(vib)   ...       0.01
freq.    1336.68  E(vib)   ...       0.01
freq.    1355.73  E(vib)   ...       0.01
freq.    1459.12  E(vib)   ...       0.00
freq.    1475.75  E(vib)   ...       0.00
freq.    1476.54  E(vib)   ...       0.00
freq.    1483.26  E(vib)   ...       0.00
freq.    1518.03  E(vib)   ...       0.00
freq.    1612.11  E(vib)   ...       0.00
freq.    1632.11  E(vib)   ...       0.00
freq.    1702.76  E(vib)   ...       0.00
freq.    3031.92  E(vib)   ...       0.00
freq.    3121.84  E(vib)   ...       0.00
freq.    3147.90  E(vib)   ...       0.00
freq.    3161.83  E(vib)   ...       0.00
freq.    3172.74  E(vib)   ...       0.00
freq.    3182.43  E(vib)   ...       0.00
freq.    3194.55  E(vib)   ...       0.00
freq.    3202.23  E(vib)   ...       0.00

------------
INNER ENERGY
------------

The inner energy is: U= E(el) + E(ZPE) + E(vib) + E(rot) + E(trans)
    E(el)   - is the total energy from the electronic structure calculation
              = E(kin-el) + E(nuc-el) + E(el-el) + E(nuc-nuc)
    E(ZPE)  - the the zero temperature vibrational energy from the frequency calculation
    E(vib)  - the the finite temperature correction to E(ZPE) due to population
              of excited vibrational states
    E(rot)  - is the rotational thermal energy
    E(trans)- is the translational thermal energy

Summary of contributions to the inner energy U:
Electronic energy                ...   -460.05959335 Eh
Zero point energy                ...      0.14238667 Eh      89.35 kcal/mol
Thermal vibrational correction   ...      0.00589389 Eh       3.70 kcal/mol
Thermal rotational correction    ...      0.00141627 Eh       0.89 kcal/mol
Thermal translational correction ...      0.00141627 Eh       0.89 kcal/mol
-----------------------------------------------------------------------
Total thermal energy                   -459.90848025 Eh

Summary of corrections to the electronic energy:
(perhaps to be used in another calculation)
Total thermal correction                  0.00872643 Eh       5.48 kcal/mol
Non-thermal (ZPE) correction              0.14238667 Eh      89.35 kcal/mol
-----------------------------------------------------------------------
Total correction                          0.15111310 Eh      94.82 kcal/mol

--------
ENTHALPY
--------

The enthalpy is H = U + kB*T
                kB is Boltzmann's constant
Total thermal energy              ...   -459.90848025 Eh
Thermal Enthalpy correction       ...      0.00094421 Eh       0.59 kcal/mol
-----------------------------------------------------------------------
Total Enthalpy                    ...   -459.90753604 Eh

Note: Only C1 symmetry has been detected, increase convergence thresholds
      if your molecule has a higher symmetry. Symmetry factor of 1.0 is
      used for the rotational entropy correction.

Note: Rotational entropy computed according to Herzberg
Infrared and Raman Spectra, Chapter V,1, Van Nostrand Reinhold, 1945
Point Group:  C1, Symmetry Number:   1
Rotational constants in cm-1:     0.117348     0.028055     0.022741

Vibrational entropy computed according to the QRRHO of S. Grimme
Chem.Eur.J. 2012 18 9955 using a reference frequency of 100.0 cm-1

-------
ENTROPY
-------

The entropy contributions are T*S = T*(S(el)+S(vib)+S(rot)+S(trans))
     S(el)   - electronic entropy
     S(vib)  - vibrational entropy
     S(rot)  - rotational entropy
     S(trans)- translational entropy
The entropies will be listed as multiplied by the temperature to get
units of energy

Electronic entropy                ...      0.00000000 Eh      0.00 kcal/mol
Vibrational entropy               ...      0.00997911 Eh      6.26 kcal/mol
Rotational entropy                ...      0.01399558 Eh      8.78 kcal/mol
Translational entropy             ...      0.01930829 Eh     12.12 kcal/mol
-----------------------------------------------------------------------
Final entropy term                ...      0.04328298 Eh     27.16 kcal/mol

In case the symmetry of your molecule has not been determined correctly
or in case you have a reason to use a different symmetry number we print
out the resulting rotational entropy values for sn=1,12:

 non-linear molecules -----------------------------------
|  sn= 1 | S(rot)=       0.01399558 Eh      8.78 kcal/mol|
|  sn= 2 | S(rot)=       0.01334112 Eh      8.37 kcal/mol|
|  sn= 3 | S(rot)=       0.01295829 Eh      8.13 kcal/mol|
|  sn= 4 | S(rot)=       0.01268667 Eh      7.96 kcal/mol|
|  sn= 5 | S(rot)=       0.01247598 Eh      7.83 kcal/mol|
|  sn= 6 | S(rot)=       0.01230383 Eh      7.72 kcal/mol|
|  sn= 7 | S(rot)=       0.01215829 Eh      7.63 kcal/mol|
|  sn= 8 | S(rot)=       0.01203221 Eh      7.55 kcal/mol|
|  sn= 9 | S(rot)=       0.01192100 Eh      7.48 kcal/mol|
|  sn=10 | S(rot)=       0.01182152 Eh      7.42 kcal/mol|
|  sn=11 | S(rot)=       0.01173153 Eh      7.36 kcal/mol|
|  sn=12 | S(rot)=       0.01164938 Eh      7.31 kcal/mol|

                             ****ORCA TERMINATED NORMALLY****
TOTAL RUN TIME: 0 days 0 hours 15 minutes 7 seconds 835 msec
