                         Program Version 6.0.0  -   RELEASE  -
|  1> ! r2SCAN-3c DEF2-TZVP FREQ
|  2> * xyzfile 0 1 vacuum_censo.xyz
|  3>
|  4>                          ****END OF INPUT****

CARTESIAN COORDINATES (ANGSTROEM)
---------------------------------
  C     -3.390471    0.597221    0.001052
  O     -1.960916    0.786816    0.000503
  C     -1.239373   -0.360335   -0.000330
  O     -1.744427   -1.461967   -0.000517
  C      0.223822   -0.102793   -0.000146
  C      0.758719    1.188949   -0.000505
  C      2.136771    1.367058   -0.000296
  C      2.985017    0.262744    0.000339
  C      2.453887   -1.025214    0.000662
  C      1.078041   -1.209013    0.000416
  H     -3.700539    0.043229    0.890872
  H     -3.701463    0.045240   -0.889702
  H     -3.816181    1.600467    0.002392
  H      0.094974    2.044780   -0.000963
  H      2.550707    2.370058   -0.000592
  H      4.060916    0.405798    0.000595
  H      3.114772   -1.885769    0.001128
  H      0.642304   -2.201924    0.000602

 Total Charge           Charge          ....    0
 Multiplicity           Mult            ....    1
 Number of Electrons    NEL             ....   72
 Basis Dimension        Dim             ....  358

ORBITAL ENERGIES
----------------

  NO   OCC          E(Eh)            E(eV)
   0   2.0000     -19.001975      -517.0700
   1   2.0000     -18.935634      -515.2648
   2   2.0000     -10.156581      -276.3746
   3   2.0000     -10.087755      -274.5018
   4   2.0000     -10.056488      -273.6510
   5   2.0000     -10.051650      -273.5193
   6   2.0000     -10.050066      -273.4762
   7   2.0000     -10.048131      -273.4235
   8   2.0000     -10.047872      -273.4165
   9   2.0000     -10.047421      -273.4042
  10   2.0000      -1.066832       -29.0300
  11   2.0000      -0.979134       -26.6436
  12   2.0000      -0.835849       -22.7446
  13   2.0000      -0.745338       -20.2817
  14   2.0000      -0.725720       -19.7478
  15   2.0000      -0.689556       -18.7638
  16   2.0000      -0.602930       -16.4065
  17   2.0000      -0.583438       -15.8762
  18   2.0000      -0.537572       -14.6281
  19   2.0000      -0.507457       -13.8086
  20   2.0000      -0.461310       -12.5529
  21   2.0000      -0.450368       -12.2551
  22   2.0000      -0.445533       -12.1236
  23   2.0000      -0.424228       -11.5438
  24   2.0000      -0.414689       -11.2843
  25   2.0000      -0.400108       -10.8875
  26   2.0000      -0.387915       -10.5557
  27   2.0000      -0.380112       -10.3434
  28   2.0000      -0.345484        -9.4011
  29   2.0000      -0.336885        -9.1671
  30   2.0000      -0.331045        -9.0082
  31   2.0000      -0.318626        -8.6703
  32   2.0000      -0.279184        -7.5970
  33   2.0000      -0.249131        -6.7792
  34   2.0000      -0.247947        -6.7470
  35   2.0000      -0.245908        -6.6915
  36   0.0000      -0.078126        -2.1259
  37   0.0000      -0.043578        -1.1858
  38   0.0000       0.022569         0.6141
  39   0.0000       0.049480         1.3464
  40   0.0000       0.066153         1.8001

MULLIKEN ATOMIC CHARGES
-----------------------
   0 C :   -0.158567
   1 O :   -0.254651
   2 C :    0.350129
   3 O :   -0.360786
   4 C :    0.085931
   5 C :   -0.189661
   6 C :   -0.086026
   7 C :   -0.100653
   8 C :   -0.082697
   9 C :   -0.173572
  10 H :    0.122325
  11 H :    0.122302
  12 H :    0.118056
  13 H :    0.125628
  14 H :    0.112649
  15 H :    0.116356
  16 H :    0.114427
  17 H :    0.138809
Sum of atomic charges:    0.0000000

LOEWDIN ATOMIC CHARGES
----------------------
   0 C :   -0.296988
   1 O :    0.232881
   2 C :   -0.438367
   3 O :    0.106866
   4 C :   -0.125246
   5 C :   -0.089359
   6 C :   -0.135265
   7 C :   -0.125669
   8 C :   -0.133201
   9 C :   -0.076907
  10 H :    0.113093
  11 H :    0.113084
  12 H :    0.110789
  13 H :    0.151978
  14 H :    0.144904
  15 H :    0.144755
  16 H :    0.145410
  17 H :    0.157240

  Mayer bond orders larger than 0.100000
B(  0-C ,  1-O ) :   0.8897 B(  0-C , 10-H ) :   0.9724 B(  0-C , 11-H ) :   0.9724
B(  0-C , 12-H ) :   0.9713 B(  1-O ,  2-C ) :   1.1824 B(  2-C ,  3-O ) :   1.9586
B(  2-C ,  4-C ) :   0.9673 B(  4-C ,  5-C ) :   1.3372 B(  4-C ,  9-C ) :   1.3592
B(  5-C ,  6-C ) :   1.4157 B(  5-C , 13-H ) :   0.9636 B(  6-C ,  7-C ) :   1.3806
B(  6-C , 14-H ) :   0.9733 B(  7-C ,  8-C ) :   1.3744 B(  7-C , 15-H ) :   0.9671
B(  8-C ,  9-C ) :   1.4043 B(  8-C , 16-H ) :   0.9744 B(  9-C , 17-H ) :   0.9572

Dispersion correction           -0.005863727
FINAL SINGLE POINT ENERGY      -460.059959260581

DIPOLE MOMENT
-------------

Method             : SCF
Type of density    : Electron Density
Multiplicity       :   1
Irrep              :   0
Energy             :  -460.0623398205524950 Eh
Relativity type    :
Basis              : AO
                                X                 Y                 Z
Electronic contribution:      1.037553982      -1.527422687      -0.002537304
Nuclear contribution   :     -0.767626050       2.247178317       0.003042757
                        -----------------------------------------
Total Dipole Moment    :      0.269927932       0.719755629       0.000505453
                        -----------------------------------------
Magnitude (a.u.)       :      0.768706387
Magnitude (Debye)      :      1.953896358

VIBRATIONAL FREQUENCIES
-----------------------

Scaling factor for frequencies =  1.000000000  (already applied!)

     0:       0.00 cm**-1
     1:       0.00 cm**-1
     2:       0.00 cm**-1
     3:       0.00 cm**-1
     4:       0.00 cm**-1
     5:       0.00 cm**-1
     6:      61.87 cm**-1
     7:     114.94 cm**-1
     8:     166.40 cm**-1
     9:     171.86 cm**-1
    10:     209.21 cm**-1
    11:     334.67 cm**-1
    12:     361.11 cm**-1
    13:     407.29 cm**-1
    14:     448.73 cm**-1
    15:     483.75 cm**-1
    16:     633.55 cm**-1
    17:     689.11 cm**-1
    18:     696.83 cm**-1
    19:     716.25 cm**-1
    20:     818.34 cm**-1
    21:     827.07 cm**-1
    22:     858.15 cm**-1
    23:     947.59 cm**-1
    24:     973.37 cm**-1
    25:     976.99 cm**-1
    26:     991.22 cm**-1
    27:    1023.66 cm**-1
    28:    1049.51 cm**-1
    29:    1099.30 cm**-1
    30:    1121.47 cm**-1
    31:    1169.14 cm**-1
    32:    1183.54 cm**-1
    33:    1197.78 cm**-1
    34:    1207.62 cm**-1
    35:    1282.54 cm**-1
    36:    1338.92 cm**-1
    37:    1360.14 cm**-1
    38:    1462.23 cm**-1
    39:    1474.85 cm**-1
    40:    1478.00 cm**-1
    41:    1488.62 cm**-1
    42:    1518.82 cm**-1
    43:    1617.31 cm**-1
    44:    1634.45 cm**-1
    45:    1752.85 cm**-1
    46:    3026.74 cm**-1
    47:    3110.20 cm**-1
    48:    3142.84 cm**-1
    49:    3160.83 cm**-1
    50:    3171.75 cm**-1
    51:    3181.63 cm**-1
    52:    3193.85 cm**-1
    53:    3204.00 cm**-1

IR SPECTRUM
-----------

 Mode   freq       eps      Int      T**2         TX        TY        TZ
       cm**-1   L/(mol*cm) km/mol    a.u.
----------------------------------------------------------------------------
  6:     61.87   0.000369    1.86  0.001859  ( 0.000067 -0.000028  0.043120)
  7:    114.94   0.000263    1.33  0.000715  ( 0.000058 -0.000082  0.026734)
  8:    166.40   0.000016    0.08  0.000029  ( 0.000079  0.000267 -0.005409)
  9:    171.86   0.000398    2.01  0.000722  (-0.008764 -0.025397 -0.000037)
 10:    209.21   0.000416    2.10  0.000620  (-0.000036 -0.000030  0.024910)
 11:    334.67   0.003178   16.06  0.002963  ( 0.044002 -0.032050 -0.000016)
 12:    361.11   0.000109    0.55  0.000094  ( 0.008832 -0.004023 -0.000016)
 13:    407.29   0.000001    0.00  0.000001  ( 0.000146 -0.000044  0.000785)
 14:    448.73   0.000076    0.38  0.000053  ( 0.000017 -0.000099  0.007255)
 15:    483.75   0.000776    3.92  0.000501  ( 0.020102  0.009836 -0.000038)
 16:    633.55   0.000098    0.50  0.000048  ( 0.005917 -0.003669  0.000006)
 17:    689.11   0.001080    5.46  0.000489  (-0.021777 -0.003839 -0.000008)
 18:    696.83   0.004741   23.96  0.002123  (-0.000061  0.000046 -0.046079)
 19:    716.25   0.013563   68.54  0.005909  (-0.000026  0.000031 -0.076872)
 20:    818.34   0.000293    1.48  0.000112  (-0.000014  0.000034 -0.010563)
 21:    827.07   0.001236    6.24  0.000466  (-0.003149 -0.021361  0.000006)
 22:    858.15   0.000010    0.05  0.000004  ( 0.000025  0.000015  0.001924)
 23:    947.59   0.000253    1.28  0.000083  (-0.000005  0.000049 -0.009125)
 24:    973.37   0.000021    0.11  0.000007  (-0.000020  0.000008 -0.002587)
 25:    976.99   0.002354   11.90  0.000752  (-0.023446 -0.014221  0.000016)
 26:    991.22   0.000027    0.14  0.000009  (-0.000008 -0.000029  0.002940)
 27:   1023.66   0.000031    0.16  0.000009  ( 0.001714 -0.002537  0.000002)
 28:   1049.51   0.004152   20.98  0.001235  ( 0.035068 -0.002192 -0.000003)
 29:   1099.30   0.011785   59.56  0.003346  ( 0.047806 -0.032561 -0.000012)
 30:   1121.47   0.021974  111.05  0.006115  ( 0.074837 -0.022671 -0.000039)
 31:   1169.14   0.000138    0.70  0.000037  ( 0.000004  0.000024 -0.006066)
 32:   1183.54   0.000071    0.36  0.000019  ( 0.003266  0.002820 -0.000001)
 33:   1197.78   0.011163   56.41  0.002908  (-0.052430  0.012628  0.000014)
 34:   1207.62   0.006274   31.71  0.001621  ( 0.034018 -0.021543 -0.000018)
 35:   1282.54   0.071696  362.32  0.017445  (-0.126636  0.037527  0.000032)
 36:   1338.92   0.001727    8.73  0.000402  (-0.018645  0.007404  0.000001)
 37:   1360.14   0.000619    3.13  0.000142  (-0.005821 -0.010398  0.000004)
 38:   1462.23   0.003692   18.66  0.000788  (-0.027752 -0.004217  0.000043)
 39:   1474.85   0.001760    8.89  0.000372  (-0.000024 -0.000016 -0.019298)
 40:   1478.00   0.002871   14.51  0.000606  (-0.018197  0.016582 -0.000016)
 41:   1488.62   0.001783    9.01  0.000374  (-0.010522  0.016218  0.000003)
 42:   1518.82   0.000167    0.84  0.000034  ( 0.000688  0.005814  0.000005)
 43:   1617.31   0.001137    5.75  0.000219  ( 0.009656  0.011232  0.000002)
 44:   1634.45   0.002420   12.23  0.000462  (-0.020989 -0.004642 -0.000004)
 45:   1752.85   0.047938  242.26  0.008535  (-0.041745 -0.082413 -0.000050)
 46:   3026.74   0.007284   36.81  0.000751  ( 0.027287 -0.002533  0.000003)
 47:   3110.20   0.003678   18.59  0.000369  (-0.000003  0.000015 -0.019209)
 48:   3142.84   0.002844   14.37  0.000282  (-0.006161  0.015636  0.000010)
 49:   3160.83   0.000040    0.20  0.000004  (-0.001979  0.000189 -0.000001)
 50:   3171.75   0.002207   11.15  0.000217  ( 0.000742 -0.014716  0.000006)
 51:   3181.63   0.002916   14.74  0.000286  ( 0.016633  0.003064  0.000002)
 52:   3193.85   0.001269    6.41  0.000124  (-0.009223  0.006236 -0.000005)
 53:   3204.00   0.000565    2.85  0.000055  (-0.002677 -0.006916  0.000004)

--------------------------
THERMOCHEMISTRY AT 298.15K
--------------------------

Temperature         ...   298.15 K
Pressure            ...     1.00 atm
Total Mass          ...   136.15 AMU
Quasi RRHO          ...     True
Cut-Off Frequency   ...     1.00 cm^-1

Throughout the following assumptions are being made:
  (1) The electronic state is orbitally nondegenerate
  (2) There are no thermally accessible electronically excited states
  (3) Hindered rotations indicated by low frequency modes are not
      treated as such but are treated as vibrations and this may
      cause some error
  (4) All equations used are the standard statistical mechanics
      equations for an ideal gas
  (5) All vibrations are strictly harmonic

freq.      61.87  E(vib)   ...       0.51
freq.     114.94  E(vib)   ...       0.44
freq.     166.40  E(vib)   ...       0.39
freq.     171.86  E(vib)   ...       0.38
freq.     209.21  E(vib)   ...       0.34
freq.     334.67  E(vib)   ...       0.24
freq.     361.11  E(vib)   ...       0.22
freq.     407.29  E(vib)   ...       0.19
freq.     448.73  E(vib)   ...       0.17
freq.     483.75  E(vib)   ...       0.15
freq.     633.55  E(vib)   ...       0.09
freq.     689.11  E(vib)   ...       0.07
freq.     696.83  E(vib)   ...       0.07
freq.     716.25  E(vib)   ...       0.07
freq.     818.34  E(vib)   ...       0.05
freq.     827.07  E(vib)   ...       0.04
freq.     858.15  E(vib)   ...       0.04
freq.     947.59  E(vib)   ...       0.03
freq.     973.37  E(vib)   ...       0.03
freq.     976.99  E(vib)   ...       0.03
freq.     991.22  E(vib)   ...       0.02
freq.    1023.66  E(vib)   ...       0.02
freq.    1049.51  E(vib)   ...       0.02
freq.    1099.30  E(vib)   ...       0.02
freq.    1121.47  E(vib)   ...       0.01
freq.    1169.14  E(vib)   ...       0.01
freq.    1183.54  E(vib)   ...       0.01
freq.    1197.78  E(vib)   ...       0.01
freq.    1207.62  E(vib)   ...       0.01
freq.    1282.54  E(vib)   ...       0.01
freq.    1338.92  E(vib)   ...       0.01
freq.    1360.14  E(vib)   ...       0.01
freq.    1462.23  E(vib)   ...       0.00
freq.    1474.85  E(vib)   ...       0.00
freq.    1478.00  E(vib)   ...       0.00
freq.    1488.62  E(vib)   ...       0.00
freq.    1518.82  E(vib)   ...       0.00
freq.    1617.31  E(vib)   ...       0.00
freq.    1634.45  E(vib)   ...       0.00
freq.    1752.85  E(vib)   ...       0.00
freq.    3026.74  E(vib)   ...       0.00
freq.    3110.20  E(vib)   ...       0.00
freq.    3142.84  E(vib)   ...       0.00
freq.    3160.83  E(vib)   ...       0.00
freq.    3171.75  E(vib)   ...       0.00
freq.    3181.63  E(vib)   ...       0.00
freq.    3193.85  E(vib)   ...       0.00
freq.    3204.00  E(vib)   ...       0.00

------------
INNER ENERGY
------------

The inner energy is: U= E(el) + E(ZPE) + E(vib) + E(rot) + E(trans)
    E(el)   - is the total energy from the electronic structure calculation
              = E(kin-el) + E(nuc-el) + E(el-el) + E(nuc-nuc)
    E(ZPE)  - the the zero temperature vibrational energy from the frequency calculation
    E(vib)  - the the finite temperature correction to E(ZPE) due to population
              of excited vibrational states
    E(rot)  - is the rotational thermal energy
    E(trans)- is the translational thermal energy

Summary of contributions to the inner energy U:
Electronic energy                ...   -460.05995926 Eh
Zero point energy                ...      0.14247855 Eh      89.41 kcal/mol
Thermal vibrational correction   ...      0.00591375 Eh       3.71 kcal/mol
Thermal rotational correction    ...      0.00141627 Eh       0.89 kcal/mol
Thermal translational correction ...      0.00141627 Eh       0.89 kcal/mol
-----------------------------------------------------------------------
Total thermal energy                   -459.90873442 Eh

Summary of corrections to the electronic energy:
(perhaps to be used in another calculation)
Total thermal correction                  0.00874629 Eh       5.49 kcal/mol
Non-thermal (ZPE) correction              0.14247855 Eh      89.41 kcal/mol
-----------------------------------------------------------------------
Total correction                          0.15122484 Eh      94.89 kcal/mol

--------
ENTHALPY
--------

The enthalpy is H = U + kB*T
                kB is Boltzmann's constant
Total thermal energy              ...   -459.90873442 Eh
Thermal Enthalpy correction       ...      0.00094421 Eh       0.59 kcal/mol
-----------------------------------------------------------------------
Total Enthalpy                    ...   -459.90779021 Eh

Note: Only C1 symmetry has been detected, increase convergence thresholds
      if your molecule has a higher symmetry. Symmetry factor of 1.0 is
      used for the rotational entropy correction.

Note: Rotational entropy computed according to Herzberg
Infrared and Raman Spectra, Chapter V,1, Van Nostrand Reinhold, 1945
Point Group:  C1, Symmetry Number:   1
Rotational constants in cm-1:     0.117718     0.028112     0.022791

Vibrational entropy computed according to the QRRHO of S. Grimme
Chem.Eur.J. 2012 18 9955 using a reference frequency of 100.0 cm-1

-------
ENTROPY
-------

The entropy contributions are T*S = T*(S(el)+S(vib)+S(rot)+S(trans))
     S(el)   - electronic entropy
     S(vib)  - vibrational entropy
     S(rot)  - rotational entropy
     S(trans)- translational entropy
The entropies will be listed as multiplied by the temperature to get
units of energy

Electronic entropy                ...      0.00000000 Eh      0.00 kcal/mol
Vibrational entropy               ...      0.01002017 Eh      6.29 kcal/mol
Rotational entropy                ...      0.01399209 Eh      8.78 kcal/mol
Translational entropy             ...      0.01930829 Eh     12.12 kcal/mol
-----------------------------------------------------------------------
Final entropy term                ...      0.04332055 Eh     27.18 kcal/mol

In case the symmetry of your molecule has not been determined correctly
or in case you have a reason to use a different symmetry number we print
out the resulting rotational entropy values for sn=1,12:

 non-linear molecules -----------------------------------
|  sn= 1 | S(rot)=       0.01399209 Eh      8.78 kcal/mol|
|  sn= 2 | S(rot)=       0.01333764 Eh      8.37 kcal/mol|
|  sn= 3 | S(rot)=       0.01295481 Eh      8.13 kcal/mol|
|  sn= 4 | S(rot)=       0.01268318 Eh      7.96 kcal/mol|
|  sn= 5 | S(rot)=       0.01247249 Eh      7.83 kcal/mol|
|  sn= 6 | S(rot)=       0.01230035 Eh      7.72 kcal/mol|
|  sn= 7 | S(rot)=       0.01215480 Eh      7.63 kcal/mol|
|  sn= 8 | S(rot)=       0.01202873 Eh      7.55 kcal/mol|
|  sn= 9 | S(rot)=       0.01191752 Eh      7.48 kcal/mol|
|  sn=10 | S(rot)=       0.01181804 Eh      7.42 kcal/mol|
|  sn=11 | S(rot)=       0.01172805 Eh      7.36 kcal/mol|
|  sn=12 | S(rot)=       0.01164589 Eh      7.31 kcal/mol|

                             ****ORCA TERMINATED NORMALLY****
TOTAL RUN TIME: 0 days 0 hours 15 minutes 8 seconds 804 msec
