                         Program Version 6.0.0  -   RELEASE  -
|  1> ! r2SCAN-3c DEF2-TZVP FREQ
|  2> * xyzfile 0 1 censo.xyz
|  3>
|  4>                          ****END OF INPUT****

CARTESIAN COORDINATES (ANGSTROEM)
---------------------------------
  C     -3.012518    0.253185   -0.000120
  C     -1.646832   -0.430685    0.000014
  C     -0.505964    0.586353   -0.000364
  C      0.931868    0.024893    0.000009
  C      1.187288   -0.822231   -1.252347
  C      1.901583    1.213898    0.000496
  C      1.186498   -0.822577    1.252305
  H     -3.827222   -0.478450    0.000261
  H     -3.134077    0.889094    0.884246
  H     -3.134285    0.888410   -0.884945
  H     -1.570062   -1.081274    0.879629
  H     -1.570164   -1.081884   -0.879164
  H     -0.617527    1.236890    0.879455
  H     -0.617393    1.236175   -0.880729
  H      0.569172   -1.725904   -1.265244
  H      0.971974   -0.250443   -2.162892
  H      2.236174   -1.138091   -1.292923
  H      1.751701    1.841019   -0.886017
  H      2.942296    0.870215    0.000242
  H      1.751846    1.840140    0.887654
  H      0.969329   -0.251471    2.162842
  H      0.569346   -1.726930    1.263928
  H      2.235670   -1.137326    1.294138

 Total Charge           Charge          ....    0
 Multiplicity           Mult            ....    1
 Number of Electrons    NEL             ....   58
 Basis Dimension        Dim             ....  313

ORBITAL ENERGIES
----------------

  NO   OCC          E(Eh)            E(eV)
   0   2.0000     -10.042981      -273.2834
   1   2.0000     -10.023556      -272.7548
   2   2.0000     -10.021134      -272.6889
   3   2.0000     -10.015897      -272.5464
   4   2.0000     -10.014347      -272.5042
   5   2.0000     -10.014343      -272.5041
   6   2.0000     -10.013702      -272.4867
   7   2.0000      -0.791531       -21.5386
   8   2.0000      -0.732345       -19.9281
   9   2.0000      -0.648228       -17.6392
  10   2.0000      -0.647975       -17.6323
  11   2.0000      -0.639372       -17.3982
  12   2.0000      -0.557206       -15.1624
  13   2.0000      -0.495586       -13.4856
  14   2.0000      -0.434314       -11.8183
  15   2.0000      -0.425312       -11.5733
  16   2.0000      -0.405594       -11.0368
  17   2.0000      -0.402466       -10.9517
  18   2.0000      -0.373595       -10.1660
  19   2.0000      -0.359158        -9.7732
  20   2.0000      -0.356455        -9.6996
  21   2.0000      -0.333214        -9.0672
  22   2.0000      -0.331128        -9.0105
  23   2.0000      -0.328378        -8.9356
  24   2.0000      -0.314094        -8.5469
  25   2.0000      -0.299732        -8.1561
  26   2.0000      -0.284584        -7.7439
  27   2.0000      -0.281720        -7.6660
  28   2.0000      -0.275621        -7.5000
  29   0.0000       0.033137         0.9017
  30   0.0000       0.062024         1.6878
  31   0.0000       0.073861         2.0099
  32   0.0000       0.078190         2.1277
  33   0.0000       0.090902         2.4736

MULLIKEN ATOMIC CHARGES
-----------------------
   0 C :   -0.321817
   1 C :   -0.160140
   2 C :   -0.208813
   3 C :    0.192861
   4 C :   -0.373382
   5 C :   -0.340117
   6 C :   -0.373395
   7 H :    0.106509
   8 H :    0.098407
   9 H :    0.098411
  10 H :    0.085629
  11 H :    0.085588
  12 H :    0.081776
  13 H :    0.081755
  14 H :    0.108765
  15 H :    0.105015
  16 H :    0.104663
  17 H :    0.103142
  18 H :    0.103522
  19 H :    0.103144
  20 H :    0.105024
  21 H :    0.108785
  22 H :    0.104669
Sum of atomic charges:    0.0000000

LOEWDIN ATOMIC CHARGES
----------------------
   0 C :   -0.311051
   1 C :   -0.290291
   2 C :   -0.228592
   3 C :   -0.367277
   4 C :   -0.262687
   5 C :   -0.263032
   6 C :   -0.262697
   7 H :    0.116418
   8 H :    0.117014
   9 H :    0.117013
  10 H :    0.132114
  11 H :    0.132098
  12 H :    0.138988
  13 H :    0.138981
  14 H :    0.119770
  15 H :    0.122632
  16 H :    0.122442
  17 H :    0.121390
  18 H :    0.120519
  19 H :    0.121391
  20 H :    0.122635
  21 H :    0.119779
  22 H :    0.122443

  Mayer bond orders larger than 0.100000
B(  0-C ,  1-C ) :   0.9717 B(  0-C ,  7-H ) :   0.9799 B(  0-C ,  8-H ) :   0.9779
B(  0-C ,  9-H ) :   0.9779 B(  1-C ,  2-C ) :   0.9831 B(  1-C , 10-H ) :   0.9655
B(  1-C , 11-H ) :   0.9655 B(  2-C ,  3-C ) :   0.9262 B(  2-C , 12-H ) :   0.9664
B(  2-C , 13-H ) :   0.9664 B(  3-C ,  4-C ) :   0.9489 B(  3-C ,  5-C ) :   0.9425
B(  3-C ,  6-C ) :   0.9488 B(  4-C , 14-H ) :   0.9732 B(  4-C , 15-H ) :   0.9723
B(  4-C , 16-H ) :   0.9735 B(  5-C , 17-H ) :   0.9727 B(  5-C , 18-H ) :   0.9753
B(  5-C , 19-H ) :   0.9727 B(  6-C , 20-H ) :   0.9723 B(  6-C , 21-H ) :   0.9732
B(  6-C , 22-H ) :   0.9735

Dispersion correction           -0.006421175
FINAL SINGLE POINT ENERGY      -276.311521670728

DIPOLE MOMENT
-------------

Method             : SCF
Type of density    : Electron Density
Multiplicity       :   1
Irrep              :   0
Energy             :  -276.3161334974545866 Eh
Relativity type    :
Basis              : AO
                                X                 Y                 Z
Electronic contribution:      0.438217445       0.032748842      -0.000369688
Nuclear contribution   :     -0.447940140      -0.060071666       0.000390597
                        -----------------------------------------
Total Dipole Moment    :     -0.009722695      -0.027322824       0.000020909
                        -----------------------------------------
Magnitude (a.u.)       :      0.029001171
Magnitude (Debye)      :      0.073715119

VIBRATIONAL FREQUENCIES
-----------------------

Scaling factor for frequencies =  1.000000000  (already applied!)

     0:       0.00 cm**-1
     1:       0.00 cm**-1
     2:       0.00 cm**-1
     3:       0.00 cm**-1
     4:       0.00 cm**-1
     5:       0.00 cm**-1
     6:      73.63 cm**-1
     7:     113.86 cm**-1
     8:     191.01 cm**-1
     9:     246.19 cm**-1
    10:     266.72 cm**-1
    11:     288.95 cm**-1
    12:     298.67 cm**-1
    13:     325.03 cm**-1
    14:     343.87 cm**-1
    15:     349.30 cm**-1
    16:     423.20 cm**-1
    17:     432.89 cm**-1
    18:     502.16 cm**-1
    19:     751.15 cm**-1
    20:     751.91 cm**-1
    21:     870.91 cm**-1
    22:     889.12 cm**-1
    23:     933.95 cm**-1
    24:     939.11 cm**-1
    25:     955.17 cm**-1
    26:     957.79 cm**-1
    27:    1015.03 cm**-1
    28:    1032.04 cm**-1
    29:    1052.18 cm**-1
    30:    1111.38 cm**-1
    31:    1118.09 cm**-1
    32:    1227.38 cm**-1
    33:    1237.04 cm**-1
    34:    1268.59 cm**-1
    35:    1296.83 cm**-1
    36:    1318.08 cm**-1
    37:    1346.34 cm**-1
    38:    1379.93 cm**-1
    39:    1388.18 cm**-1
    40:    1388.90 cm**-1
    41:    1404.76 cm**-1
    42:    1421.75 cm**-1
    43:    1465.33 cm**-1
    44:    1473.05 cm**-1
    45:    1480.65 cm**-1
    46:    1481.13 cm**-1
    47:    1486.54 cm**-1
    48:    1495.96 cm**-1
    49:    1500.85 cm**-1
    50:    1503.55 cm**-1
    51:    1504.04 cm**-1
    52:    1515.10 cm**-1
    53:    2972.80 cm**-1
    54:    2990.23 cm**-1
    55:    2992.43 cm**-1
    56:    2997.43 cm**-1
    57:    2999.06 cm**-1
    58:    3007.90 cm**-1
    59:    3013.69 cm**-1
    60:    3047.18 cm**-1
    61:    3066.27 cm**-1
    62:    3066.86 cm**-1
    63:    3070.52 cm**-1
    64:    3073.12 cm**-1
    65:    3074.50 cm**-1
    66:    3077.10 cm**-1
    67:    3079.10 cm**-1
    68:    3080.27 cm**-1

IR SPECTRUM
-----------

 Mode   freq       eps      Int      T**2         TX        TY        TZ
       cm**-1   L/(mol*cm) km/mol    a.u.
----------------------------------------------------------------------------
  6:     73.63   0.000006    0.03  0.000025  ( 0.000000  0.000004  0.004996)
  7:    113.86   0.000001    0.00  0.000002  ( 0.000006 -0.000001  0.001532)
  8:    191.01   0.000009    0.04  0.000014  (-0.002684  0.002598 -0.000003)
  9:    246.19   0.000001    0.00  0.000001  ( 0.000003  0.000002  0.000797)
 10:    266.72   0.000000    0.00  0.000001  ( 0.000002  0.000000 -0.000764)
 11:    288.95   0.000013    0.07  0.000014  ( 0.003320 -0.001699  0.000001)
 12:    298.67   0.000000    0.00  0.000000  ( 0.000006 -0.000006  0.000520)
 13:    325.03   0.000000    0.00  0.000000  ( 0.000451 -0.000249 -0.000000)
 14:    343.87   0.000001    0.00  0.000001  ( 0.000005  0.000000  0.000770)
 15:    349.30   0.000011    0.05  0.000010  ( 0.002968 -0.000924 -0.000001)
 16:    423.20   0.000019    0.10  0.000014  (-0.000002  0.000002  0.003770)
 17:    432.89   0.000055    0.28  0.000040  ( 0.005100 -0.003739  0.000000)
 18:    502.16   0.000007    0.04  0.000004  ( 0.002078 -0.000076 -0.000004)
 19:    751.15   0.000043    0.22  0.000018  ( 0.003809  0.001836 -0.000061)
 20:    751.91   0.000513    2.59  0.000213  (-0.000015 -0.000013 -0.014598)
 21:    870.91   0.000013    0.06  0.000005  (-0.000001 -0.000001 -0.002142)
 22:    889.12   0.000076    0.38  0.000027  (-0.001509 -0.004939 -0.000001)
 23:    933.95   0.000388    1.96  0.000130  (-0.009643 -0.006055 -0.000002)
 24:    939.11   0.000036    0.18  0.000012  (-0.000016 -0.000007  0.003469)
 25:    955.17   0.000003    0.01  0.000001  ( 0.000083  0.000012  0.000942)
 26:    957.79   0.000425    2.15  0.000139  ( 0.011585  0.002090 -0.000007)
 27:   1015.03   0.000006    0.03  0.000002  (-0.000003  0.000002 -0.001324)
 28:   1032.04   0.000046    0.23  0.000014  ( 0.003650  0.000668  0.000002)
 29:   1052.18   0.000030    0.15  0.000009  (-0.000061  0.002967 -0.000000)
 30:   1111.38   0.000000    0.00  0.000000  (-0.000009 -0.000001  0.000012)
 31:   1118.09   0.000121    0.61  0.000034  ( 0.005798 -0.000531  0.000001)
 32:   1227.38   0.001048    5.30  0.000267  (-0.012688 -0.010273  0.000000)
 33:   1237.04   0.000264    1.33  0.000067  ( 0.000000  0.000005  0.008160)
 34:   1268.59   0.001333    6.74  0.000328  (-0.016473  0.007520 -0.000004)
 35:   1296.83   0.000260    1.31  0.000063  (-0.000003  0.000006  0.007907)
 36:   1318.08   0.000061    0.31  0.000015  ( 0.002892  0.002488 -0.000005)
 37:   1346.34   0.000097    0.49  0.000022  (-0.000005 -0.000005 -0.004741)
 38:   1379.93   0.000595    3.01  0.000134  (-0.007924 -0.008467 -0.000008)
 39:   1388.18   0.002283   11.54  0.000513  (-0.000010  0.000012  0.022656)
 40:   1388.90   0.001343    6.79  0.000302  (-0.000476 -0.017366  0.000013)
 41:   1404.76   0.000359    1.81  0.000080  (-0.001752  0.008754  0.000003)
 42:   1421.75   0.001082    5.47  0.000237  (-0.014235  0.005899 -0.000003)
 43:   1465.33   0.000038    0.19  0.000008  ( 0.002788 -0.000485  0.000000)
 44:   1473.05   0.000001    0.01  0.000000  (-0.000001  0.000005 -0.000492)
 45:   1480.65   0.000070    0.35  0.000015  (-0.000005  0.000024 -0.003828)
 46:   1481.13   0.000052    0.26  0.000011  (-0.000931 -0.003186 -0.000031)
 47:   1486.54   0.000125    0.63  0.000026  ( 0.005032 -0.000999 -0.000015)
 48:   1495.96   0.002436   12.31  0.000508  ( 0.000005 -0.000001 -0.022544)
 49:   1500.85   0.000046    0.23  0.000010  ( 0.002890 -0.001133  0.000019)
 50:   1503.55   0.002486   12.56  0.000516  ( 0.011060  0.019842  0.000006)
 51:   1504.04   0.000466    2.35  0.000097  (-0.000001  0.000016  0.009830)
 52:   1515.10   0.003670   18.55  0.000756  (-0.021432  0.017222 -0.000010)
 53:   2972.80   0.005224   26.40  0.000548  (-0.006877  0.022384 -0.000006)
 54:   2990.23   0.007059   35.67  0.000737  (-0.013232 -0.023697  0.000036)
 55:   2992.43   0.008809   44.52  0.000919  ( 0.000020  0.000024  0.030310)
 56:   2997.43   0.008652   43.72  0.000901  ( 0.028315 -0.009951 -0.000004)
 57:   2999.06   0.000618    3.12  0.000064  (-0.006696 -0.004407  0.000030)
 58:   3007.90   0.008000   40.43  0.000830  ( 0.010982 -0.026635  0.000005)
 59:   3013.69   0.002299   11.62  0.000238  ( 0.000013 -0.000037 -0.015430)
 60:   3047.18   0.002024   10.23  0.000207  ( 0.000004  0.000003 -0.014397)
 61:   3066.27   0.000526    2.66  0.000054  (-0.000061  0.000014  0.007319)
 62:   3066.86   0.001093    5.52  0.000111  ( 0.009598 -0.004364  0.000022)
 63:   3070.52   0.003191   16.13  0.000324  ( 0.000039  0.000013 -0.018009)
 64:   3073.12   0.016939   85.61  0.001720  (-0.034175  0.023499 -0.000075)
 65:   3074.50   0.016939   85.60  0.001719  (-0.000015  0.000092  0.041464)
 66:   3077.10   0.004273   21.59  0.000433  ( 0.004569  0.020310  0.000035)
 67:   3079.10   0.004675   23.63  0.000474  ( 0.000235  0.000311 -0.021764)
 68:   3080.27   0.017652   89.21  0.001788  ( 0.029327  0.030467  0.000137)

--------------------------
THERMOCHEMISTRY AT 298.15K
--------------------------

Temperature         ...   298.15 K
Pressure            ...     1.00 atm
Total Mass          ...   100.20 AMU
Quasi RRHO          ...     True
Cut-Off Frequency   ...     1.00 cm^-1

Throughout the following assumptions are being made:
  (1) The electronic state is orbitally nondegenerate
  (2) There are no thermally accessible electronically excited states
  (3) Hindered rotations indicated by low frequency modes are not
      treated as such but are treated as vibrations and this may
      cause some error
  (4) All equations used are the standard statistical mechanics
      equations for an ideal gas
  (5) All vibrations are strictly harmonic

freq.      73.63  E(vib)   ...       0.49
freq.     113.86  E(vib)   ...       0.44
freq.     191.01  E(vib)   ...       0.36
freq.     246.19  E(vib)   ...       0.31
freq.     266.72  E(vib)   ...       0.29
freq.     288.95  E(vib)   ...       0.27
freq.     298.67  E(vib)   ...       0.26
freq.     325.03  E(vib)   ...       0.24
freq.     343.87  E(vib)   ...       0.23
freq.     349.30  E(vib)   ...       0.23
freq.     423.20  E(vib)   ...       0.18
freq.     432.89  E(vib)   ...       0.17
freq.     502.16  E(vib)   ...       0.14
freq.     751.15  E(vib)   ...       0.06
freq.     751.91  E(vib)   ...       0.06
freq.     870.91  E(vib)   ...       0.04
freq.     889.12  E(vib)   ...       0.04
freq.     933.95  E(vib)   ...       0.03
freq.     939.11  E(vib)   ...       0.03
freq.     955.17  E(vib)   ...       0.03
freq.     957.79  E(vib)   ...       0.03
freq.    1015.03  E(vib)   ...       0.02
freq.    1032.04  E(vib)   ...       0.02
freq.    1052.18  E(vib)   ...       0.02
freq.    1111.38  E(vib)   ...       0.01
freq.    1118.09  E(vib)   ...       0.01
freq.    1227.38  E(vib)   ...       0.01
freq.    1237.04  E(vib)   ...       0.01
freq.    1268.59  E(vib)   ...       0.01
freq.    1296.83  E(vib)   ...       0.01
freq.    1318.08  E(vib)   ...       0.01
freq.    1346.34  E(vib)   ...       0.01
freq.    1379.93  E(vib)   ...       0.01
freq.    1388.18  E(vib)   ...       0.00
freq.    1388.90  E(vib)   ...       0.00
freq.    1404.76  E(vib)   ...       0.00
freq.    1421.75  E(vib)   ...       0.00
freq.    1465.33  E(vib)   ...       0.00
freq.    1473.05  E(vib)   ...       0.00
freq.    1480.65  E(vib)   ...       0.00
freq.    1481.13  E(vib)   ...       0.00
freq.    1486.54  E(vib)   ...       0.00
freq.    1495.96  E(vib)   ...       0.00
freq.    1500.85  E(vib)   ...       0.00
freq.    1503.55  E(vib)   ...       0.00
freq.    1504.04  E(vib)   ...       0.00
freq.    1515.10  E(vib)   ...       0.00
freq.    2972.80  E(vib)   ...       0.00
freq.    2990.23  E(vib)   ...       0.00
freq.    2992.43  E(vib)   ...       0.00
freq.    2997.43  E(vib)   ...       0.00
freq.    2999.06  E(vib)   ...       0.00
freq.    3007.90  E(vib)   ...       0.00
freq.    3013.69  E(vib)   ...       0.00
freq.    3047.18  E(vib)   ...       0.00
freq.    3066.27  E(vib)   ...       0.00
freq.    3066.86  E(vib)   ...       0.00
freq.    3070.52  E(vib)   ...       0.00
freq.    3073.12  E(vib)   ...       0.00
freq.    3074.50  E(vib)   ...       0.00
freq.    3077.10  E(vib)   ...       0.00
freq.    3079.10  E(vib)   ...       0.00
freq.    3080.27  E(vib)   ...       0.00

------------
INNER ENERGY
------------

The inner energy is: U= E(el) + E(ZPE) + E(vib) + E(rot) + E(trans)
    E(el)   - is the total energy from the electronic structure calculation
              = E(kin-el) + E(nuc-el) + E(el-el) + E(nuc-nuc)
    E(ZPE)  - the the zero temperature vibrational energy from the frequency calculation
    E(vib)  - the the finite temperature correction to E(ZPE) due to population
              of excited vibrational states
    E(rot)  - is the rotational thermal energy
    E(trans)- is the translational thermal energy

Summary of contributions to the inner energy U:
Electronic energy                ...   -276.31152167 Eh
Zero point energy                ...      0.21511778 Eh     134.99 kcal/mol
Thermal vibrational correction   ...      0.00658143 Eh       4.13 kcal/mol
Thermal rotational correction    ...      0.00141627 Eh       0.89 kcal/mol
Thermal translational correction ...      0.00141627 Eh       0.89 kcal/mol
-----------------------------------------------------------------------
Total thermal energy                   -276.08698992 Eh

Summary of corrections to the electronic energy:
(perhaps to be used in another calculation)
Total thermal correction                  0.00941397 Eh       5.91 kcal/mol
Non-thermal (ZPE) correction              0.21511778 Eh     134.99 kcal/mol
-----------------------------------------------------------------------
Total correction                          0.22453176 Eh     140.90 kcal/mol

--------
ENTHALPY
--------

The enthalpy is H = U + kB*T
                kB is Boltzmann's constant
Total thermal energy              ...   -276.08698992 Eh
Thermal Enthalpy correction       ...      0.00094421 Eh       0.59 kcal/mol
-----------------------------------------------------------------------
Total Enthalpy                    ...   -276.08604571 Eh

Note: Only C1 symmetry has been detected, increase convergence thresholds
      if your molecule has a higher symmetry. Symmetry factor of 1.0 is
      used for the rotational entropy correction.

Note: Rotational entropy computed according to Herzberg
Infrared and Raman Spectra, Chapter V,1, Van Nostrand Reinhold, 1945
Point Group:  C1, Symmetry Number:   1
Rotational constants in cm-1:     0.135219     0.046802     0.046199

Vibrational entropy computed according to the QRRHO of S. Grimme
Chem.Eur.J. 2012 18 9955 using a reference frequency of 100.0 cm-1

-------
ENTROPY
-------

The entropy contributions are T*S = T*(S(el)+S(vib)+S(rot)+S(trans))
     S(el)   - electronic entropy
     S(vib)  - vibrational entropy
     S(rot)  - rotational entropy
     S(trans)- translational entropy
The entropies will be listed as multiplied by the temperature to get
units of energy

Electronic entropy                ...      0.00000000 Eh      0.00 kcal/mol
Vibrational entropy               ...      0.01091560 Eh      6.85 kcal/mol
Rotational entropy                ...      0.01335243 Eh      8.38 kcal/mol
Translational entropy             ...      0.01887414 Eh     11.84 kcal/mol
-----------------------------------------------------------------------
Final entropy term                ...      0.04314217 Eh     27.07 kcal/mol

In case the symmetry of your molecule has not been determined correctly
or in case you have a reason to use a different symmetry number we print

                             ****ORCA TERMINATED NORMALLY****
TOTAL RUN TIME: 0 days 0 hours 17 minutes 46 seconds 113 msec
