                         Program Version 6.0.0  -   RELEASE  -
|  1> ! r2SCAN-3c DEF2-TZVP FREQ
|  2> * xyzfile 0 1 vacuum_censo.xyz
|  3>
|  4>                          ****END OF INPUT****

CARTESIAN COORDINATES (ANGSTROEM)
---------------------------------
  C     -3.014744   -0.253908   -0.000034
  C     -1.648245    0.430582    0.000002
  C     -0.505807   -0.585160   -0.000545
  C      0.932755   -0.024311    0.000008
  C      1.188234    0.824108   -1.252621
  C      1.187891    0.822467    1.253821
  C      1.902233   -1.214917   -0.000645
  H     -3.135309   -0.889669   -0.883902
  H     -3.135189   -0.889968    0.883635
  H     -3.829174    0.476922    0.000146
  H     -1.572244    1.082272   -0.878673
  H     -1.571985    1.081626    0.879131
  H     -0.617855   -1.236681   -0.879544
  H     -0.618040   -1.237848    0.877566
  H      2.236552    1.139570   -1.294155
  H      0.971987    0.253790   -2.163228
  H      0.571571    1.728177   -1.263562
  H      0.571558    1.726750    1.265547
  H      2.236304    1.137484    1.296302
  H      0.970940    0.251102    2.163606
  H      1.752329   -1.840771   -0.887324
  H      2.942731   -0.872333   -0.000519
  H      1.752418   -1.841698    0.885396

 Total Charge           Charge          ....    0
 Multiplicity           Mult            ....    1
 Number of Electrons    NEL             ....   58
 Basis Dimension        Dim             ....  313

ORBITAL ENERGIES
----------------

  NO   OCC          E(Eh)            E(eV)
   0   2.0000     -10.043309      -273.2923
   1   2.0000     -10.023616      -272.7565
   2   2.0000     -10.021175      -272.6900
   3   2.0000     -10.015789      -272.5435
   4   2.0000     -10.014241      -272.5014
   5   2.0000     -10.014238      -272.5013
   6   2.0000     -10.013601      -272.4839
   7   2.0000      -0.791169       -21.5288
   8   2.0000      -0.732162       -19.9231
   9   2.0000      -0.648278       -17.6405
  10   2.0000      -0.648049       -17.6343
  11   2.0000      -0.639411       -17.3993
  12   2.0000      -0.557348       -15.1662
  13   2.0000      -0.495724       -13.4893
  14   2.0000      -0.434040       -11.8108
  15   2.0000      -0.425119       -11.5681
  16   2.0000      -0.405578       -11.0363
  17   2.0000      -0.402344       -10.9483
  18   2.0000      -0.373730       -10.1697
  19   2.0000      -0.359111        -9.7719
  20   2.0000      -0.356518        -9.7014
  21   2.0000      -0.333236        -9.0678
  22   2.0000      -0.331277        -9.0145
  23   2.0000      -0.328369        -8.9354
  24   2.0000      -0.314145        -8.5483
  25   2.0000      -0.299752        -8.1567
  26   2.0000      -0.284417        -7.7394
  27   2.0000      -0.281755        -7.6669
  28   2.0000      -0.275731        -7.5030
  29   0.0000       0.033248         0.9047
  30   0.0000       0.062127         1.6906
  31   0.0000       0.073940         2.0120
  32   0.0000       0.078362         2.1323
  33   0.0000       0.091125         2.4796

MULLIKEN ATOMIC CHARGES
-----------------------
   0 C :   -0.321627
   1 C :   -0.160340
   2 C :   -0.209905
   3 C :    0.193288
   4 C :   -0.373539
   5 C :   -0.373537
   6 C :   -0.340639
   7 H :    0.098424
   8 H :    0.098428
   9 H :    0.106669
  10 H :    0.085666
  11 H :    0.085661
  12 H :    0.081903
  13 H :    0.081905
  14 H :    0.104784
  15 H :    0.105150
  16 H :    0.108802
  17 H :    0.108796
  18 H :    0.104783
  19 H :    0.105153
  20 H :    0.103272
  21 H :    0.103628
  22 H :    0.103272
Sum of atomic charges:   -0.0000000

LOEWDIN ATOMIC CHARGES
----------------------
   0 C :   -0.310710
   1 C :   -0.289985
   2 C :   -0.228880
   3 C :   -0.365629
   4 C :   -0.262633
   5 C :   -0.262636
   6 C :   -0.262969
   7 H :    0.116883
   8 H :    0.116882
   9 H :    0.116284
  10 H :    0.131983
  11 H :    0.131986
  12 H :    0.138876
  13 H :    0.138879
  14 H :    0.122249
  15 H :    0.122505
  16 H :    0.119663
  17 H :    0.119661
  18 H :    0.122249
  19 H :    0.122505
  20 H :    0.121229
  21 H :    0.120378
  22 H :    0.121229

  Mayer bond orders larger than 0.100000
B(  0-C ,  1-C ) :   0.9715 B(  0-C ,  7-H ) :   0.9780 B(  0-C ,  8-H ) :   0.9780
B(  0-C ,  9-H ) :   0.9798 B(  1-C ,  2-C ) :   0.9829 B(  1-C , 10-H ) :   0.9656
B(  1-C , 11-H ) :   0.9656 B(  2-C ,  3-C ) :   0.9265 B(  2-C , 12-H ) :   0.9665
B(  2-C , 13-H ) :   0.9665 B(  3-C ,  4-C ) :   0.9490 B(  3-C ,  5-C ) :   0.9490
B(  3-C ,  6-C ) :   0.9425 B(  4-C , 14-H ) :   0.9736 B(  4-C , 15-H ) :   0.9723
B(  4-C , 16-H ) :   0.9732 B(  5-C , 17-H ) :   0.9732 B(  5-C , 18-H ) :   0.9736
B(  5-C , 19-H ) :   0.9723 B(  6-C , 20-H ) :   0.9728 B(  6-C , 21-H ) :   0.9754
B(  6-C , 22-H ) :   0.9728

Dispersion correction           -0.006417864
FINAL SINGLE POINT ENERGY      -276.311526390742

DIPOLE MOMENT
-------------

Method             : SCF
Type of density    : Electron Density
Multiplicity       :   1
Irrep              :   0
Energy             :  -276.3161393905062937 Eh
Relativity type    :
Basis              : AO
                                X                 Y                 Z
Electronic contribution:      0.439486051      -0.029161398      -0.000348536
Nuclear contribution   :     -0.448792647       0.056149575       0.000356088
                        -----------------------------------------
Total Dipole Moment    :     -0.009306596       0.026988177       0.000007552
                        -----------------------------------------
Magnitude (a.u.)       :      0.028547758
Magnitude (Debye)      :      0.072562633

VIBRATIONAL FREQUENCIES
-----------------------

Scaling factor for frequencies =  1.000000000  (already applied!)

     0:       0.00 cm**-1
     1:       0.00 cm**-1
     2:       0.00 cm**-1
     3:       0.00 cm**-1
     4:       0.00 cm**-1
     5:       0.00 cm**-1
     6:      66.51 cm**-1
     7:     111.26 cm**-1
     8:     190.42 cm**-1
     9:     236.35 cm**-1
    10:     258.44 cm**-1
    11:     281.29 cm**-1
    12:     290.83 cm**-1
    13:     323.13 cm**-1
    14:     342.00 cm**-1
    15:     348.06 cm**-1
    16:     421.95 cm**-1
    17:     431.91 cm**-1
    18:     500.58 cm**-1
    19:     749.48 cm**-1
    20:     749.91 cm**-1
    21:     868.73 cm**-1
    22:     886.93 cm**-1
    23:     931.30 cm**-1
    24:     936.53 cm**-1
    25:     952.85 cm**-1
    26:     955.67 cm**-1
    27:    1012.79 cm**-1
    28:    1029.92 cm**-1
    29:    1050.40 cm**-1
    30:    1109.72 cm**-1
    31:    1117.02 cm**-1
    32:    1225.90 cm**-1
    33:    1235.60 cm**-1
    34:    1267.13 cm**-1
    35:    1295.70 cm**-1
    36:    1317.54 cm**-1
    37:    1345.61 cm**-1
    38:    1379.22 cm**-1
    39:    1386.60 cm**-1
    40:    1387.56 cm**-1
    41:    1402.88 cm**-1
    42:    1420.32 cm**-1
    43:    1465.61 cm**-1
    44:    1472.47 cm**-1
    45:    1479.91 cm**-1
    46:    1480.58 cm**-1
    47:    1486.42 cm**-1
    48:    1494.94 cm**-1
    49:    1500.44 cm**-1
    50:    1503.11 cm**-1
    51:    1503.33 cm**-1
    52:    1514.34 cm**-1
    53:    2973.79 cm**-1
    54:    2995.18 cm**-1
    55:    2997.27 cm**-1
    56:    3002.55 cm**-1
    57:    3003.81 cm**-1
    58:    3009.72 cm**-1
    59:    3013.28 cm**-1
    60:    3049.24 cm**-1
    61:    3071.61 cm**-1
    62:    3072.11 cm**-1
    63:    3075.84 cm**-1
    64:    3078.27 cm**-1
    65:    3079.24 cm**-1
    66:    3083.32 cm**-1
    67:    3083.62 cm**-1
    68:    3085.25 cm**-1

IR SPECTRUM
-----------

 Mode   freq       eps      Int      T**2         TX        TY        TZ
       cm**-1   L/(mol*cm) km/mol    a.u.
----------------------------------------------------------------------------
  6:     66.51   0.000006    0.03  0.000027  (-0.000000  0.000002  0.005226)
  7:    111.26   0.000001    0.00  0.000002  (-0.000000  0.000000 -0.001438)
  8:    190.42   0.000008    0.04  0.000013  ( 0.002585  0.002599  0.000002)
  9:    236.35   0.000001    0.00  0.000001  (-0.000001  0.000001  0.000835)
 10:    258.44   0.000001    0.00  0.000001  (-0.000003 -0.000001 -0.000834)
 11:    281.29   0.000012    0.06  0.000014  ( 0.003315  0.001696  0.000002)
 12:    290.83   0.000000    0.00  0.000000  (-0.000000  0.000002  0.000571)
 13:    323.13   0.000000    0.00  0.000000  ( 0.000249  0.000148  0.000000)
 14:    342.00   0.000001    0.00  0.000001  (-0.000002 -0.000003  0.000726)
 15:    348.06   0.000011    0.06  0.000010  (-0.002972 -0.000962 -0.000000)
 16:    421.95   0.000018    0.09  0.000014  (-0.000003 -0.000006  0.003691)
 17:    431.91   0.000054    0.28  0.000039  (-0.005049 -0.003721 -0.000006)
 18:    500.58   0.000008    0.04  0.000005  (-0.002186 -0.000111 -0.000000)
 19:    749.48   0.000044    0.22  0.000018  (-0.003815  0.001807 -0.000585)
 20:    749.91   0.000522    2.64  0.000217  ( 0.000151 -0.000067 -0.014739)
 21:    868.73   0.000012    0.06  0.000004  (-0.000001 -0.000002 -0.002103)
 22:    886.93   0.000076    0.38  0.000027  ( 0.001460 -0.004944 -0.000003)
 23:    931.30   0.000381    1.93  0.000128  (-0.009562  0.006024  0.000003)
 24:    936.53   0.000036    0.18  0.000012  (-0.000002 -0.000002  0.003446)
 25:    952.85   0.000002    0.01  0.000001  (-0.000031  0.000007 -0.000898)
 26:    955.67   0.000432    2.18  0.000141  ( 0.011679 -0.002176 -0.000001)
 27:   1012.79   0.000006    0.03  0.000002  (-0.000000  0.000000  0.001332)
 28:   1029.92   0.000044    0.22  0.000013  (-0.003611  0.000652 -0.000000)
 29:   1050.40   0.000029    0.15  0.000009  ( 0.000185  0.002933  0.000003)
 30:   1109.72   0.000000    0.00  0.000000  ( 0.000002 -0.000002 -0.000047)
 31:   1117.02   0.000118    0.60  0.000033  (-0.005718 -0.000562 -0.000002)
 32:   1225.90   0.001085    5.48  0.000276  (-0.012941  0.010426 -0.000002)
 33:   1235.60   0.000280    1.41  0.000071  (-0.000011 -0.000001  0.008405)
 34:   1267.13   0.001372    6.94  0.000338  (-0.016694 -0.007700 -0.000008)
 35:   1295.70   0.000268    1.35  0.000065  ( 0.000002  0.000004 -0.008034)
 36:   1317.54   0.000058    0.29  0.000014  (-0.002753  0.002484 -0.000002)
 37:   1345.61   0.000100    0.51  0.000023  (-0.000002  0.000007 -0.004821)
 38:   1379.22   0.000664    3.36  0.000150  (-0.007989  0.009300  0.000013)
 39:   1386.60   0.002266   11.45  0.000510  (-0.000001  0.000014  0.022585)
 40:   1387.56   0.001269    6.41  0.000285  ( 0.000045  0.016894 -0.000029)
 41:   1402.88   0.000358    1.81  0.000080  (-0.001715 -0.008759 -0.000001)
 42:   1420.32   0.001066    5.39  0.000234  ( 0.014119  0.005903  0.000004)
 43:   1465.61   0.000039    0.20  0.000008  (-0.002862 -0.000200 -0.000002)
 44:   1472.47   0.000001    0.00  0.000000  ( 0.000001 -0.000000  0.000437)
 45:   1479.91   0.000066    0.33  0.000014  ( 0.000004 -0.000003 -0.003733)
 46:   1480.58   0.000049    0.25  0.000010  ( 0.000934 -0.003077  0.000006)
 47:   1486.42   0.000126    0.64  0.000027  (-0.005082 -0.000824 -0.000004)
 48:   1494.94   0.002425   12.25  0.000506  ( 0.000002 -0.000006  0.022498)
 49:   1500.44   0.000049    0.25  0.000010  (-0.002391 -0.002105  0.000003)
 50:   1503.11   0.002477   12.52  0.000514  ( 0.011441 -0.019581 -0.000064)
 51:   1503.33   0.000497    2.51  0.000103  ( 0.000065 -0.000118  0.010153)
 52:   1514.34   0.003688   18.64  0.000760  (-0.021318 -0.017479 -0.000013)
 53:   2973.79   0.005370   27.14  0.000564  (-0.006729 -0.022765 -0.000014)
 54:   2995.18   0.006788   34.31  0.000707  ( 0.013165 -0.023108 -0.000020)
 55:   2997.27   0.008855   44.75  0.000922  (-0.000001 -0.000025  0.030364)
 56:   3002.55   0.007793   39.38  0.000810  (-0.027792 -0.006126  0.000000)
 57:   3003.81   0.000466    2.36  0.000048  ( 0.000977 -0.006891 -0.000003)
 58:   3009.72   0.009188   46.43  0.000953  (-0.013274 -0.027865 -0.000027)
 59:   3013.28   0.002372   11.98  0.000246  ( 0.000021  0.000058 -0.015672)
 60:   3049.24   0.002741   13.85  0.000281  (-0.000002 -0.000004  0.016749)
 61:   3071.61   0.000529    2.68  0.000054  ( 0.000031  0.000026 -0.007334)
 62:   3072.11   0.000974    4.92  0.000099  (-0.009096 -0.004022 -0.000037)
 63:   3075.84   0.002538   12.83  0.000257  (-0.000045 -0.000044  0.016046)
 64:   3078.27   0.017175   86.79  0.001741  (-0.033729 -0.024566  0.000038)
 65:   3079.24   0.018140   91.67  0.001838  (-0.000052 -0.000035 -0.042876)
 66:   3083.32   0.003239   16.37  0.000328  (-0.000038 -0.000028 -0.018106)
 67:   3083.62   0.001058    5.35  0.000107  (-0.002818 -0.009955  0.000088)
 68:   3085.25   0.020503  103.61  0.002074  ( 0.030209 -0.034077 -0.000018)

--------------------------
THERMOCHEMISTRY AT 298.15K
--------------------------

Temperature         ...   298.15 K
Pressure            ...     1.00 atm
Total Mass          ...   100.20 AMU
Quasi RRHO          ...     True
Cut-Off Frequency   ...     1.00 cm^-1

Throughout the following assumptions are being made:
  (1) The electronic state is orbitally nondegenerate
  (2) There are no thermally accessible electronically excited states
  (3) Hindered rotations indicated by low frequency modes are not
      treated as such but are treated as vibrations and this may
      cause some error
  (4) All equations used are the standard statistical mechanics
      equations for an ideal gas
  (5) All vibrations are strictly harmonic

freq.      66.51  E(vib)   ...       0.50
freq.     111.26  E(vib)   ...       0.45
freq.     190.42  E(vib)   ...       0.36
freq.     236.35  E(vib)   ...       0.32
freq.     258.44  E(vib)   ...       0.30
freq.     281.29  E(vib)   ...       0.28
freq.     290.83  E(vib)   ...       0.27
freq.     323.13  E(vib)   ...       0.25
freq.     342.00  E(vib)   ...       0.23
freq.     348.06  E(vib)   ...       0.23
freq.     421.95  E(vib)   ...       0.18
freq.     431.91  E(vib)   ...       0.18
freq.     500.58  E(vib)   ...       0.14
freq.     749.48  E(vib)   ...       0.06
freq.     749.91  E(vib)   ...       0.06
freq.     868.73  E(vib)   ...       0.04
freq.     886.93  E(vib)   ...       0.04
freq.     931.30  E(vib)   ...       0.03
freq.     936.53  E(vib)   ...       0.03
freq.     952.85  E(vib)   ...       0.03
freq.     955.67  E(vib)   ...       0.03
freq.    1012.79  E(vib)   ...       0.02
freq.    1029.92  E(vib)   ...       0.02
freq.    1050.40  E(vib)   ...       0.02
freq.    1109.72  E(vib)   ...       0.02
freq.    1117.02  E(vib)   ...       0.01
freq.    1225.90  E(vib)   ...       0.01
freq.    1235.60  E(vib)   ...       0.01
freq.    1267.13  E(vib)   ...       0.01
freq.    1295.70  E(vib)   ...       0.01
freq.    1317.54  E(vib)   ...       0.01
freq.    1345.61  E(vib)   ...       0.01
freq.    1379.22  E(vib)   ...       0.01
freq.    1386.60  E(vib)   ...       0.00
freq.    1387.56  E(vib)   ...       0.00
freq.    1402.88  E(vib)   ...       0.00
freq.    1420.32  E(vib)   ...       0.00
freq.    1465.61  E(vib)   ...       0.00
freq.    1472.47  E(vib)   ...       0.00
freq.    1479.91  E(vib)   ...       0.00
freq.    1480.58  E(vib)   ...       0.00
freq.    1486.42  E(vib)   ...       0.00
freq.    1494.94  E(vib)   ...       0.00
freq.    1500.44  E(vib)   ...       0.00
freq.    1503.11  E(vib)   ...       0.00
freq.    1503.33  E(vib)   ...       0.00
freq.    1514.34  E(vib)   ...       0.00
freq.    2973.79  E(vib)   ...       0.00
freq.    2995.18  E(vib)   ...       0.00
freq.    2997.27  E(vib)   ...       0.00
freq.    3002.55  E(vib)   ...       0.00
freq.    3003.81  E(vib)   ...       0.00
freq.    3009.72  E(vib)   ...       0.00
freq.    3013.28  E(vib)   ...       0.00
freq.    3049.24  E(vib)   ...       0.00
freq.    3071.61  E(vib)   ...       0.00
freq.    3072.11  E(vib)   ...       0.00
freq.    3075.84  E(vib)   ...       0.00
freq.    3078.27  E(vib)   ...       0.00
freq.    3079.24  E(vib)   ...       0.00
freq.    3083.32  E(vib)   ...       0.00
freq.    3083.62  E(vib)   ...       0.00
freq.    3085.25  E(vib)   ...       0.00

------------
INNER ENERGY
------------

The inner energy is: U= E(el) + E(ZPE) + E(vib) + E(rot) + E(trans)
    E(el)   - is the total energy from the electronic structure calculation
              = E(kin-el) + E(nuc-el) + E(el-el) + E(nuc-nuc)
    E(ZPE)  - the the zero temperature vibrational energy from the frequency calculation
    E(vib)  - the the finite temperature correction to E(ZPE) due to population
              of excited vibrational states
    E(rot)  - is the rotational thermal energy
    E(trans)- is the translational thermal energy

Summary of contributions to the inner energy U:
Electronic energy                ...   -276.31152639 Eh
Zero point energy                ...      0.21504379 Eh     134.94 kcal/mol
Thermal vibrational correction   ...      0.00666136 Eh       4.18 kcal/mol
Thermal rotational correction    ...      0.00141627 Eh       0.89 kcal/mol
Thermal translational correction ...      0.00141627 Eh       0.89 kcal/mol
-----------------------------------------------------------------------
Total thermal energy                   -276.08698870 Eh

Summary of corrections to the electronic energy:
(perhaps to be used in another calculation)
Total thermal correction                  0.00949390 Eh       5.96 kcal/mol
Non-thermal (ZPE) correction              0.21504379 Eh     134.94 kcal/mol
-----------------------------------------------------------------------
Total correction                          0.22453769 Eh     140.90 kcal/mol

--------
ENTHALPY
--------

The enthalpy is H = U + kB*T
                kB is Boltzmann's constant
Total thermal energy              ...   -276.08698870 Eh
Thermal Enthalpy correction       ...      0.00094421 Eh       0.59 kcal/mol
-----------------------------------------------------------------------
Total Enthalpy                    ...   -276.08604449 Eh

Note: Only C1 symmetry has been detected, increase convergence thresholds
      if your molecule has a higher symmetry. Symmetry factor of 1.0 is
      used for the rotational entropy correction.

Note: Rotational entropy computed according to Herzberg
Infrared and Raman Spectra, Chapter V,1, Van Nostrand Reinhold, 1945
Point Group:  C1, Symmetry Number:   1
Rotational constants in cm-1:     0.135073     0.046744     0.046140

Vibrational entropy computed according to the QRRHO of S. Grimme
Chem.Eur.J. 2012 18 9955 using a reference frequency of 100.0 cm-1

-------
ENTROPY
-------

The entropy contributions are T*S = T*(S(el)+S(vib)+S(rot)+S(trans))
     S(el)   - electronic entropy
     S(vib)  - vibrational entropy
     S(rot)  - rotational entropy
     S(trans)- translational entropy
The entropies will be listed as multiplied by the temperature to get
units of energy

Electronic entropy                ...      0.00000000 Eh      0.00 kcal/mol
Vibrational entropy               ...      0.01108684 Eh      6.96 kcal/mol
Rotational entropy                ...      0.01335415 Eh      8.38 kcal/mol
Translational entropy             ...      0.01887414 Eh     11.84 kcal/mol
-----------------------------------------------------------------------
Final entropy term                ...      0.04331513 Eh     27.18 kcal/mol

In case the symmetry of your molecule has not been determined correctly
or in case you have a reason to use a different symmetry number we print

                             ****ORCA TERMINATED NORMALLY****
TOTAL RUN TIME: 0 days 0 hours 17 minutes 49 seconds 704 msec
