                         Program Version 6.0.1  -  RELEASE   -
|  1> ! r2scan-3c def2/J RI DEFGRID2 scfconv6 printgap
|  2> %output
|  3>     printlevel normal
|  4> end
|  5> * xyz 0 1
|  6> C -2.1112356723 0.4024552228 -0.4011997994
|  7> C -1.0079965174 0.0755426219 0.6060767666
|  8> C 0.0052188332 -0.8465233555 0.0023102477
|  9> C 1.2736784533 -0.5594237193 -0.2463002559
| 10> C 1.9468339084 0.7469684134 0.0507326455
| 11> H -2.6047968514 -0.5076257948 -0.7354896279
| 12> H -1.691242828 0.9027122594 -1.271102027
| 13> H -2.8568838014 1.0550579275 0.0475188422
| 14> H -0.5356069112 0.9996518166 0.9381196417
| 15> H -1.4569097571 -0.4100819266 1.4777004069
| 16> H -0.3770936979 -1.8239561977 -0.2637097564
| 17> H 1.8985412972 -1.3132763969 -0.706442186
| 18> H 3.0154571453 0.6768554672 -0.1331567438
| 19> H 1.7956392397 1.0386879179 1.0889808559
| 20> H 1.5437627654 1.5386974096 -0.5808885684
| 21> *
| 22>
| 23>                          ****END OF INPUT****

CARTESIAN COORDINATES (ANGSTROEM)
---------------------------------
  C     -2.111236    0.402455   -0.401200
  C     -1.007997    0.075543    0.606077
  C      0.005219   -0.846523    0.002310
  C      1.273678   -0.559424   -0.246300
  C      1.946834    0.746968    0.050733
  H     -2.604797   -0.507626   -0.735490
  H     -1.691243    0.902712   -1.271102
  H     -2.856884    1.055058    0.047519
  H     -0.535607    0.999652    0.938120
  H     -1.456910   -0.410082    1.477700
  H     -0.377094   -1.823956   -0.263710
  H      1.898541   -1.313276   -0.706442
  H      3.015457    0.676855   -0.133157
  H      1.795639    1.038688    1.088981
  H      1.543763    1.538697   -0.580889

 Total Charge           Charge          ....    0
 Multiplicity           Mult            ....    1
 Number of Electrons    NEL             ....   40
 Basis Dimension        Dim             ....  145

ORBITAL ENERGIES
----------------

  NO   OCC          E(Eh)            E(eV)
   0   2.0000     -10.027905      -272.8732
   1   2.0000     -10.022661      -272.7305
   2   2.0000     -10.021646      -272.7029
   3   2.0000     -10.019320      -272.6396
   4   2.0000     -10.018571      -272.6192
   5   2.0000      -0.772554       -21.0223
   6   2.0000      -0.717117       -19.5137
   7   2.0000      -0.646929       -17.6038
   8   2.0000      -0.582491       -15.8504
   9   2.0000      -0.492714       -13.4074
  10   2.0000      -0.449879       -12.2418
  11   2.0000      -0.403043       -10.9674
  12   2.0000      -0.395205       -10.7541
  13   2.0000      -0.380299       -10.3485
  14   2.0000      -0.350261        -9.5311
  15   2.0000      -0.337617        -9.1870
  16   2.0000      -0.335863        -9.1393
  17   2.0000      -0.307656        -8.3717
  18   2.0000      -0.289390        -7.8747
  19   2.0000      -0.217859        -5.9282
  20   0.0000      -0.004064        -0.1106
  21   0.0000       0.089792         2.4434
  22   0.0000       0.124003         3.3743
  23   0.0000       0.126616         3.4454
  24   0.0000       0.141137         3.8405

MULLIKEN ATOMIC CHARGES
-----------------------
   0 C :   -0.453945
   1 C :   -0.242304
   2 C :   -0.139039
   3 C :   -0.150013
   4 C :   -0.498437
   5 H :    0.144062
   6 H :    0.146333
   7 H :    0.143880
   8 H :    0.138496
   9 H :    0.144442
  10 H :    0.146625
  11 H :    0.152507
  12 H :    0.145832
  13 H :    0.161111
  14 H :    0.160449
Sum of atomic charges:   -0.0000000

LOEWDIN ATOMIC CHARGES
----------------------
   0 C :   -0.413140
   1 C :   -0.304571
   2 C :   -0.208763
   3 C :   -0.217520
   4 C :   -0.422959
   5 H :    0.150456
   6 H :    0.152509
   7 H :    0.148797
   8 H :    0.156711
   9 H :    0.159390
  10 H :    0.162119
  11 H :    0.159943
  12 H :    0.155529
  13 H :    0.159944
  14 H :    0.161555

  Mayer bond orders larger than 0.100000
B(  0-C ,  1-C ) :   0.8899 B(  0-C ,  5-H ) :   0.9838 B(  0-C ,  6-H ) :   0.9773
B(  0-C ,  7-H ) :   0.9706 B(  1-C ,  2-C ) :   0.9421 B(  1-C ,  8-H ) :   0.9763
B(  1-C ,  9-H ) :   0.9725 B(  2-C ,  3-C ) :   1.9417 B(  2-C , 10-H ) :   0.9369
B(  3-C ,  4-C ) :   0.8929 B(  3-C , 11-H ) :   0.9470 B(  4-C , 12-H ) :   0.9736
B(  4-C , 13-H ) :   0.9854 B(  4-C , 14-H ) :   0.9728

Dispersion correction           -0.003294980
FINAL SINGLE POINT ENERGY      -196.459272438285

DIPOLE MOMENT
-------------

Method             : SCF
Type of density    : Electron Density
Multiplicity       :   1
Irrep              :   0
Energy             :  -196.4621152795690762 Eh
Relativity type    :
Basis              : AO
                                X                 Y                 Z
Electronic contribution:      1.154943385      -1.895754069       0.164924622
Nuclear contribution   :     -1.190654047       2.023357319      -0.129906651
                        -----------------------------------------
Total Dipole Moment    :     -0.035710663       0.127603251       0.035017972
                        -----------------------------------------
Magnitude (a.u.)       :      0.137055096
Magnitude (Debye)      :      0.348366369

Rotational constants in cm-1:             0.351398             0.091597             0.082879
Rotational constants in MHz :         10534.634726          2746.014370          2484.642221

                             ****ORCA TERMINATED NORMALLY****
TOTAL RUN TIME: 0 days 0 hours 0 minutes 9 seconds 726 msec
