                         Program Version 6.0.1  -  RELEASE   -
|  1> ! r2scan-3c def2/J RI DEFGRID2 scfconv6 printgap
|  2> %output
|  3>     printlevel normal
|  4> end
|  5> * xyz 0 1
|  6> C 3.3142176062 -0.3263191845 0.8799297395
|  7> C 1.9440152604 -0.1735460976 0.3072143485
|  8> C 1.4374854113 1.016956885 -0.0288145535
|  9> C 0.0859271569 1.2230624675 -0.5405453895
| 10> O -0.3627383535 2.3385214599 -0.7184932216
| 11> C -0.7652877649 -0.0081988076 -0.8204013183
| 12> H -1.2194642668 0.16672435 -1.8040356688
| 13> C 0.0675251014 -1.2883807559 -0.9191268766
| 14> C 1.1464017017 -1.4288069526 0.1517744426
| 15> C -1.9533063659 -0.0120125029 0.1725762556
| 16> C -3.0403886714 -0.9958863943 -0.2540482533
| 17> C -1.5497364224 -0.2707202419 1.6220910112
| 18> H 3.7819329874 0.6390510977 1.0524642074
| 19> H 3.9404009645 -0.9021016818 0.198232435
| 20> H 3.2681642624 -0.8729047747 1.8215002734
| 21> H 2.016508406 1.9213308722 0.1018827474
| 22> H -0.5880086766 -2.1599344277 -0.8976048517
| 23> H 0.5659354483 -1.2812405919 -1.892586387
| 24> H 0.7057368727 -1.6765848376 1.1202652585
| 25> H 1.8118950415 -2.2553724612 -0.1118343992
| 26> H -2.3736307389 0.9990973857 0.1180765662
| 27> H -3.3574530807 -0.8051688114 -1.2766895823
| 28> H -3.9059303332 -0.894164916 0.3967104788
| 29> H -2.6899828556 -2.0236690239 -0.186662964
| 30> H -1.302275557 -1.318179453 1.7780134677
| 31> H -2.3806772713 -0.0265419598 2.2811307105
| 32> H -0.7001732591 0.3459754752 1.9061485536
| 33> *
| 34>
| 35>                          ****END OF INPUT****

CARTESIAN COORDINATES (ANGSTROEM)
---------------------------------
  C      3.314218   -0.326319    0.879930
  C      1.944015   -0.173546    0.307214
  C      1.437485    1.016957   -0.028815
  C      0.085927    1.223062   -0.540545
  O     -0.362738    2.338521   -0.718493
  C     -0.765288   -0.008199   -0.820401
  H     -1.219464    0.166724   -1.804036
  C      0.067525   -1.288381   -0.919127
  C      1.146402   -1.428807    0.151774
  C     -1.953306   -0.012013    0.172576
  C     -3.040389   -0.995886   -0.254048
  C     -1.549736   -0.270720    1.622091
  H      3.781933    0.639051    1.052464
  H      3.940401   -0.902102    0.198232
  H      3.268164   -0.872905    1.821500
  H      2.016508    1.921331    0.101883
  H     -0.588009   -2.159934   -0.897605
  H      0.565935   -1.281241   -1.892586
  H      0.705737   -1.676585    1.120265
  H      1.811895   -2.255372   -0.111834
  H     -2.373631    0.999097    0.118077
  H     -3.357453   -0.805169   -1.276690
  H     -3.905930   -0.894165    0.396710
  H     -2.689983   -2.023669   -0.186663
  H     -1.302276   -1.318179    1.778013
  H     -2.380677   -0.026542    2.281131
  H     -0.700173    0.345975    1.906149

 Total Charge           Charge          ....    0
 Multiplicity           Mult            ....    1
 Number of Electrons    NEL             ....   84
 Basis Dimension        Dim             ....  294

ORBITAL ENERGIES
----------------

  NO   OCC          E(Eh)            E(eV)
   0   2.0000     -18.921949      -514.8924
   1   2.0000     -10.102763      -274.9102
   2   2.0000     -10.068071      -273.9661
   3   2.0000     -10.046109      -273.3685
   4   2.0000     -10.041957      -273.2555
   5   2.0000     -10.038492      -273.1613
   6   2.0000     -10.038308      -273.1562
   7   2.0000     -10.036472      -273.1063
   8   2.0000     -10.029228      -272.9092
   9   2.0000     -10.018760      -272.6243
  10   2.0000     -10.018302      -272.6118
  11   2.0000      -0.991952       -26.9924
  12   2.0000      -0.822480       -22.3808
  13   2.0000      -0.779553       -21.2127
  14   2.0000      -0.728146       -19.8139
  15   2.0000      -0.698623       -19.0105
  16   2.0000      -0.667849       -18.1731
  17   2.0000      -0.653091       -17.7715
  18   2.0000      -0.595609       -16.2073
  19   2.0000      -0.551737       -15.0135
  20   2.0000      -0.526385       -14.3237
  21   2.0000      -0.476278       -12.9602
  22   2.0000      -0.458489       -12.4761
  23   2.0000      -0.442327       -12.0363
  24   2.0000      -0.421154       -11.4602
  25   2.0000      -0.418130       -11.3779
  26   2.0000      -0.410605       -11.1731
  27   2.0000      -0.390771       -10.6334
  28   2.0000      -0.387630       -10.5480
  29   2.0000      -0.377468       -10.2714
  30   2.0000      -0.364977        -9.9315
  31   2.0000      -0.358889        -9.7659
  32   2.0000      -0.354962        -9.6590
  33   2.0000      -0.350388        -9.5345
  34   2.0000      -0.339029        -9.2254
  35   2.0000      -0.326670        -8.8891
  36   2.0000      -0.311804        -8.4846
  37   2.0000      -0.299814        -8.1584
  38   2.0000      -0.287172        -7.8143
  39   2.0000      -0.280822        -7.6415
  40   2.0000      -0.241863        -6.5814
  41   2.0000      -0.201645        -5.4870
  42   0.0000      -0.075651        -2.0586
  43   0.0000       0.034785         0.9465
  44   0.0000       0.064296         1.7496
  45   0.0000       0.089599         2.4381
  46   0.0000       0.101001         2.7484

MULLIKEN ATOMIC CHARGES
-----------------------
   0 C :   -0.515444
   1 C :    0.189678
   2 C :   -0.294621
   3 C :    0.157278
   4 O :   -0.344015
   5 C :   -0.012201
   6 H :    0.177555
   7 C :   -0.418771
   8 C :   -0.259319
   9 C :   -0.053539
  10 C :   -0.498184
  11 C :   -0.562032
  12 H :    0.160061
  13 H :    0.167570
  14 H :    0.158175
  15 H :    0.168036
  16 H :    0.163549
  17 H :    0.167739
  18 H :    0.179085
  19 H :    0.161110
  20 H :    0.187314
  21 H :    0.151917
  22 H :    0.151070
  23 H :    0.148953
  24 H :    0.146057
  25 H :    0.154011
  26 H :    0.168969
Sum of atomic charges:    0.0000000

LOEWDIN ATOMIC CHARGES
----------------------
   0 C :   -0.386371
   1 C :   -0.064863
   2 C :   -0.170523
   3 C :    0.226602
   4 O :   -0.471845
   5 C :   -0.191694
   6 H :    0.187573
   7 C :   -0.275266
   8 C :   -0.277852
   9 C :   -0.215165
  10 C :   -0.412218
  11 C :   -0.406868
  12 H :    0.162989
  13 H :    0.168831
  14 H :    0.168041
  15 H :    0.182536
  16 H :    0.162420
  17 H :    0.166162
  18 H :    0.176347
  19 H :    0.166293
  20 H :    0.176338
  21 H :    0.155453
  22 H :    0.156264
  23 H :    0.149169
  24 H :    0.149017
  25 H :    0.156486
  26 H :    0.162143

  Mayer bond orders larger than 0.100000
B(  0-C ,  1-C ) :   0.8369 B(  0-C , 12-H ) :   0.9932 B(  0-C , 13-H ) :   0.9680
B(  0-C , 14-H ) :   0.9603 B(  1-C ,  2-C ) :   1.6469 B(  1-C ,  8-C ) :   0.8602
B(  2-C ,  3-C ) :   1.1259 B(  2-C , 15-H ) :   0.9468 B(  3-C ,  4-O ) :   1.9224
B(  3-C ,  5-C ) :   0.9180 B(  5-C ,  6-H ) :   0.9705 B(  5-C ,  7-C ) :   0.8541
B(  5-C ,  9-C ) :   0.8621 B(  7-C ,  8-C ) :   0.9038 B(  7-C , 16-H ) :   0.9956
B(  7-C , 17-H ) :   0.9878 B(  8-C , 18-H ) :   0.9544 B(  8-C , 19-H ) :   0.9724
B(  9-C , 10-C ) :   0.8826 B(  9-C , 11-C ) :   0.8596 B(  9-C , 20-H ) :   0.9613
B( 10-C , 21-H ) :   0.9828 B( 10-C , 22-H ) :   0.9718 B( 10-C , 23-H ) :   0.9858
B( 11-C , 24-H ) :   0.9835 B( 11-C , 25-H ) :   0.9642 B( 11-C , 26-H ) :   0.9731

Dispersion correction           -0.009891017
FINAL SINGLE POINT ENERGY      -465.791344543221

DIPOLE MOMENT
-------------

Method             : SCF
Type of density    : Electron Density
Multiplicity       :   1
Irrep              :   0
Energy             :  -465.7930838541930143 Eh
Relativity type    :
Basis              : AO
                                X                 Y                 Z
Electronic contribution:      2.922385292       8.056262221      -3.925186355
Nuclear contribution   :     -2.282329867      -9.481787346       4.309612745
                        -----------------------------------------
Total Dipole Moment    :      0.640055425      -1.425525124       0.384426390
                        -----------------------------------------
Magnitude (a.u.)       :      1.609216106
Magnitude (Debye)      :      4.090302281

Rotational constants in cm-1:             0.055727             0.027864             0.023162
Rotational constants in MHz :          1670.645559           835.333501           694.383438

                             ****ORCA TERMINATED NORMALLY****
TOTAL RUN TIME: 0 days 0 hours 0 minutes 48 seconds 528 msec
