                         Program Version 6.0.1  -  RELEASE   -
|  1> ! r2scan-3c def2/J RI DEFGRID2 scfconv6 printgap
|  2> %output
|  3>     printlevel normal
|  4> end
|  5> * xyz 0 1
|  6> C 1.1078238563 -1.8562231667 0.0099242548
|  7> C 2.1047289829 -0.8998663671 0.0133925242
|  8> C 1.7947967565 0.4662702388 0.0076475711
|  9> C 0.451751776 0.8427262834 0.0025648373
| 10> C -0.5341531255 -0.1312789619 -0.0004919027
| 11> C -0.2255080598 -1.4863460144 0.0029187168
| 12> N -1.913772377 0.2788064742 -0.0012496163
| 13> O -2.7624225351 -0.5876849087 -0.0292300659
| 14> O -2.151149947 1.4691036383 0.0282586412
| 15> N 2.782713136 1.4101589949 -0.0550427179
| 16> H 1.372940264 -2.9021540084 0.0148072894
| 17> H 3.1420991489 -1.2007275386 0.0185380378
| 18> H 0.1681539826 1.8841065399 -0.0015667228
| 19> H -1.0194391726 -2.2150076522 0.0021961172
| 20> H 3.7193275948 1.130526193 0.1796108082
| 21> H 2.5367941236 2.3620165558 0.1556420886
| 22> *
| 23>
| 24>                          ****END OF INPUT****

CARTESIAN COORDINATES (ANGSTROEM)
---------------------------------
  C      1.107824   -1.856223    0.009924
  C      2.104729   -0.899866    0.013393
  C      1.794797    0.466270    0.007648
  C      0.451752    0.842726    0.002565
  C     -0.534153   -0.131279   -0.000492
  C     -0.225508   -1.486346    0.002919
  N     -1.913772    0.278806   -0.001250
  O     -2.762423   -0.587685   -0.029230
  O     -2.151150    1.469104    0.028259
  N      2.782713    1.410159   -0.055043
  H      1.372940   -2.902154    0.014807
  H      3.142099   -1.200728    0.018538
  H      0.168154    1.884107   -0.001567
  H     -1.019439   -2.215008    0.002196
  H      3.719328    1.130526    0.179611
  H      2.536794    2.362017    0.155642

 Total Charge           Charge          ....    0
 Multiplicity           Mult            ....    1
 Number of Electrons    NEL             ....   72
 Basis Dimension        Dim             ....  240

ORBITAL ENERGIES
----------------

  NO   OCC          E(Eh)            E(eV)
   0   2.0000     -18.975221      -516.3420
   1   2.0000     -18.975053      -516.3374
   2   2.0000     -14.388013      -391.5177
   3   2.0000     -14.191465      -386.1694
   4   2.0000     -10.101854      -274.8854
   5   2.0000     -10.095100      -274.7016
   6   2.0000     -10.057118      -273.6681
   7   2.0000     -10.055357      -273.6202
   8   2.0000     -10.055249      -273.6172
   9   2.0000     -10.049756      -273.4678
  10   2.0000      -1.200756       -32.6742
  11   2.0000      -1.022317       -27.8187
  12   2.0000      -0.917916       -24.9778
  13   2.0000      -0.846465       -23.0335
  14   2.0000      -0.773132       -21.0380
  15   2.0000      -0.725966       -19.7545
  16   2.0000      -0.674070       -18.3424
  17   2.0000      -0.601404       -16.3650
  18   2.0000      -0.574035       -15.6203
  19   2.0000      -0.530918       -14.4470
  20   2.0000      -0.512897       -13.9566
  21   2.0000      -0.507173       -13.8009
  22   2.0000      -0.478761       -13.0277
  23   2.0000      -0.473794       -12.8926
  24   2.0000      -0.465134       -12.6569
  25   2.0000      -0.424373       -11.5478
  26   2.0000      -0.417912       -11.3720
  27   2.0000      -0.385303       -10.4846
  28   2.0000      -0.360753        -9.8166
  29   2.0000      -0.344589        -9.3767
  30   2.0000      -0.314628        -8.5615
  31   2.0000      -0.285964        -7.7815
  32   2.0000      -0.273476        -7.4417
  33   2.0000      -0.262508        -7.1432
  34   2.0000      -0.252017        -6.8577
  35   2.0000      -0.208776        -5.6811
  36   0.0000      -0.114624        -3.1191
  37   0.0000      -0.040702        -1.1076
  38   0.0000      -0.015797        -0.4299
  39   0.0000       0.054807         1.4914
  40   0.0000       0.072258         1.9663

MULLIKEN ATOMIC CHARGES
-----------------------
   0 C :   -0.113500
   1 C :   -0.331985
   2 C :    0.578792
   3 C :   -0.466295
   4 C :    0.020328
   5 C :   -0.256076
   6 N :    0.361333
   7 O :   -0.228994
   8 O :   -0.228187
   9 N :   -0.510733
  10 H :    0.153191
  11 H :    0.142252
  12 H :    0.175483
  13 H :    0.181572
  14 H :    0.258973
  15 H :    0.263845
Sum of atomic charges:   -0.0000000

LOEWDIN ATOMIC CHARGES
----------------------
   0 C :   -0.141110
   1 C :   -0.135000
   2 C :    0.132589
   3 C :   -0.077280
   4 C :    0.196667
   5 C :   -0.114717
   6 N :   -0.491271
   7 O :   -0.014041
   8 O :   -0.020332
   9 N :   -0.586567
  10 H :    0.172984
  11 H :    0.171572
  12 H :    0.199601
  13 H :    0.196589
  14 H :    0.254539
  15 H :    0.255778

  Mayer bond orders larger than 0.100000
B(  0-C ,  1-C ) :   1.4224 B(  0-C ,  5-C ) :   1.3346 B(  0-C , 10-H ) :   0.9518
B(  1-C ,  2-C ) :   1.2918 B(  1-C , 11-H ) :   0.9479 B(  2-C ,  3-C ) :   1.1934
B(  2-C ,  9-N ) :   0.9281 B(  3-C ,  4-C ) :   1.4599 B(  3-C ,  9-N ) :   0.1023
B(  3-C , 12-H ) :   0.9245 B(  4-C ,  5-C ) :   1.4241 B(  4-C ,  6-N ) :   0.9358
B(  5-C ,  7-O ) :   0.1045 B(  5-C , 13-H ) :   0.9389 B(  6-N ,  7-O ) :   1.8568
B(  6-N ,  8-O ) :   1.8509 B(  7-O ,  8-O ) :   0.2500 B(  9-N , 14-H ) :   0.9282
B(  9-N , 15-H ) :   0.9277

Dispersion correction           -0.005558591
FINAL SINGLE POINT ENERGY      -492.022818440819

DIPOLE MOMENT
-------------

Method             : SCF
Type of density    : Electron Density
Multiplicity       :   1
Irrep              :   0
Energy             :  -492.0292618710306556 Eh
Relativity type    :
Basis              : AO
                                X                 Y                 Z
Electronic contribution:     -6.924532730       0.854431460      -0.103654369
Nuclear contribution   :      9.238578237      -0.860715437       0.346075456
                        -----------------------------------------
Total Dipole Moment    :      2.314045506      -0.006283977       0.242421088
                        -----------------------------------------
Magnitude (a.u.)       :      2.326717447
Magnitude (Debye)      :      5.914045753

Rotational constants in cm-1:             0.091866             0.033547             0.024583
Rotational constants in MHz :          2754.084618          1005.722118           736.979149

                             ****ORCA TERMINATED NORMALLY****
TOTAL RUN TIME: 0 days 0 hours 0 minutes 28 seconds 875 msec
