                         Program Version 6.0.1  -  RELEASE   -
|  1> ! pbe def2-sv(p) def2/J RI DEFGRID1 loosescf d4 GCP(DFT/SV(P)) printgap
|  2> %output
|  3>     printlevel normal
|  4> end
|  5> * xyz 0 1
|  6> C -3.2640992214 0.4453465983 0.8545147939
|  7> C -1.7710822417 0.2783447473 0.5818522564
|  8> H -1.2638455159 0.1886925959 1.5482430884
|  9> C -1.2080349107 1.4937874122 -0.1745073951
| 10> C -0.1517051887 1.1053160525 -1.2119440105
| 11> C 0.7781397857 -0.0075138061 -0.726609224
| 12> H 1.4871981063 -0.2541588395 -1.5257838283
| 13> C -0.0423962408 -1.2532049421 -0.4480261335
| 14> O 0.4324591107 -2.3634440584 -0.4395979945
| 15> C -1.511591893 -1.0120014744 -0.1959320711
| 16> C 1.6243592188 0.3555839506 0.5204254927
| 17> C 2.6748604683 -0.7228460679 0.7783751577
| 18> C 2.3233455839 1.7043670369 0.3507317341
| 19> H -3.6439982565 -0.3905553121 1.437715457
| 20> H -3.4469170912 1.3619231603 1.4110213751
| 21> H -3.8203533952 0.4925793682 -0.0796095792
| 22> H -2.0203772971 2.0117145317 -0.6888614233
| 23> H -0.7835617341 2.1974752149 0.5430111591
| 24> H -0.6488182153 0.7510276218 -2.1183760499
| 25> H 0.4268854099 1.984815963 -1.4944651651
| 26> H -2.0078617855 -0.9605100171 -1.1695147161
| 27> H -1.9213790357 -1.8749235961 0.3327678335
| 28> H 0.9646625622 0.4136898715 1.3916039689
| 29> H 3.4101433183 -0.7307424841 -0.02376814
| 30> H 2.2216025002 -1.7083471459 0.8323771156
| 31> H 3.1910830498 -0.5289309563 1.7161137825
| 32> H 1.6168840267 2.5294617908 0.3389364697
| 33> H 2.8981515216 1.7219478816 -0.5728549824
| 34> H 3.0085240837 1.8644641292 1.1803971619
| 35> *
| 36>
| 37>                          ****END OF INPUT****

CARTESIAN COORDINATES (ANGSTROEM)
---------------------------------
  C     -3.264099    0.445347    0.854515
  C     -1.771082    0.278345    0.581852
  H     -1.263846    0.188693    1.548243
  C     -1.208035    1.493787   -0.174507
  C     -0.151705    1.105316   -1.211944
  C      0.778140   -0.007514   -0.726609
  H      1.487198   -0.254159   -1.525784
  C     -0.042396   -1.253205   -0.448026
  O      0.432459   -2.363444   -0.439598
  C     -1.511592   -1.012001   -0.195932
  C      1.624359    0.355584    0.520425
  C      2.674860   -0.722846    0.778375
  C      2.323346    1.704367    0.350732
  H     -3.643998   -0.390555    1.437715
  H     -3.446917    1.361923    1.411021
  H     -3.820353    0.492579   -0.079610
  H     -2.020377    2.011715   -0.688861
  H     -0.783562    2.197475    0.543011
  H     -0.648818    0.751028   -2.118376
  H      0.426885    1.984816   -1.494465
  H     -2.007862   -0.960510   -1.169515
  H     -1.921379   -1.874924    0.332768
  H      0.964663    0.413690    1.391604
  H      3.410143   -0.730742   -0.023768
  H      2.221603   -1.708347    0.832377
  H      3.191083   -0.528931    1.716114
  H      1.616884    2.529462    0.338936
  H      2.898152    1.721948   -0.572855
  H      3.008524    1.864464    1.180397

 Total Charge           Charge          ....    0
 Multiplicity           Mult            ....    1
 Number of Electrons    NEL             ....   86
 Basis Dimension        Dim             ....  190

ORBITAL ENERGIES
----------------

  NO   OCC          E(Eh)            E(eV)
   0   2.0000     -18.731441      -509.7084
   1   2.0000      -9.966696      -271.2076
   2   2.0000      -9.905682      -269.5473
   3   2.0000      -9.905354      -269.5384
   4   2.0000      -9.897466      -269.3238
   5   2.0000      -9.891313      -269.1563
   6   2.0000      -9.890468      -269.1333
   7   2.0000      -9.888970      -269.0925
   8   2.0000      -9.880049      -268.8498
   9   2.0000      -9.878247      -268.8008
  10   2.0000      -9.864925      -268.4382
  11   2.0000      -0.934839       -25.4383
  12   2.0000      -0.769317       -20.9342
  13   2.0000      -0.729085       -19.8394
  14   2.0000      -0.678408       -18.4604
  15   2.0000      -0.653791       -17.7905
  16   2.0000      -0.616547       -16.7771
  17   2.0000      -0.607228       -16.5235
  18   2.0000      -0.558994       -15.2110
  19   2.0000      -0.509768       -13.8715
  20   2.0000      -0.507934       -13.8216
  21   2.0000      -0.470158       -12.7937
  22   2.0000      -0.447344       -12.1728
  23   2.0000      -0.417597       -11.3634
  24   2.0000      -0.411916       -11.2088
  25   2.0000      -0.401870       -10.9354
  26   2.0000      -0.386521       -10.5178
  27   2.0000      -0.374779       -10.1982
  28   2.0000      -0.369560       -10.0562
  29   2.0000      -0.353901        -9.6301
  30   2.0000      -0.347248        -9.4491
  31   2.0000      -0.341580        -9.2949
  32   2.0000      -0.340307        -9.2602
  33   2.0000      -0.329492        -8.9659
  34   2.0000      -0.327580        -8.9139
  35   2.0000      -0.315055        -8.5731
  36   2.0000      -0.303028        -8.2458
  37   2.0000      -0.298160        -8.1134
  38   2.0000      -0.290073        -7.8933
  39   2.0000      -0.279751        -7.6124
  40   2.0000      -0.274237        -7.4624
  41   2.0000      -0.268568        -7.3081
  42   2.0000      -0.185455        -5.0465
  43   0.0000      -0.047972        -1.3054
  44   0.0000       0.021016         0.5719
  45   0.0000       0.037161         1.0112
  46   0.0000       0.049473         1.3462
  47   0.0000       0.067918         1.8481

MULLIKEN ATOMIC CHARGES
-----------------------
   0 C :   -0.217928
   1 C :   -0.223634
   2 H :    0.086203
   3 C :   -0.125433
   4 C :   -0.086869
   5 C :   -0.141664
   6 H :    0.074505
   7 C :    0.024930
   8 O :   -0.155686
   9 C :   -0.081356
  10 C :   -0.196150
  11 C :   -0.242606
  12 C :   -0.231161
  13 H :    0.100057
  14 H :    0.104368
  15 H :    0.094025
  16 H :    0.077949
  17 H :    0.087048
  18 H :    0.075879
  19 H :    0.091055
  20 H :    0.097193
  21 H :    0.091069
  22 H :    0.080449
  23 H :    0.090547
  24 H :    0.126677
  25 H :    0.094364
  26 H :    0.107149
  27 H :    0.096621
  28 H :    0.102400
Sum of atomic charges:    0.0000000

LOEWDIN ATOMIC CHARGES
----------------------
   0 C :   -0.326083
   1 C :   -0.152735
   2 H :    0.117554
   3 C :   -0.220463
   4 C :   -0.219756
   5 C :   -0.159354
   6 H :    0.132676
   7 C :    0.053182
   8 O :   -0.121359
   9 C :   -0.237818
  10 C :   -0.140865
  11 C :   -0.335038
  12 C :   -0.328473
  13 H :    0.118870
  14 H :    0.119764
  15 H :    0.116513
  16 H :    0.120069
  17 H :    0.119085
  18 H :    0.118796
  19 H :    0.121651
  20 H :    0.140680
  21 H :    0.131192
  22 H :    0.115536
  23 H :    0.117156
  24 H :    0.126345
  25 H :    0.115695
  26 H :    0.116104
  27 H :    0.119333
  28 H :    0.121746

  Mayer bond orders larger than 0.100000
B(  0-C ,  1-C ) :   1.1171 B(  0-C , 13-H ) :   0.9476 B(  0-C , 14-H ) :   0.9503
B(  0-C , 15-H ) :   0.9438 B(  1-C ,  2-H ) :   0.8869 B(  1-C ,  3-C ) :   1.0788
B(  1-C ,  9-C ) :   1.1250 B(  3-C ,  4-C ) :   1.1651 B(  3-C , 16-H ) :   0.9088
B(  3-C , 17-H ) :   0.9040 B(  4-C ,  5-C ) :   1.1118 B(  4-C , 18-H ) :   0.8935
B(  4-C , 19-H ) :   0.8974 B(  5-C ,  6-H ) :   0.8593 B(  5-C ,  7-C ) :   0.9348
B(  5-C , 10-C ) :   1.0249 B(  7-C ,  8-O ) :   2.1582 B(  7-C ,  9-C ) :   1.0521
B(  9-C , 20-H ) :   0.8583 B(  9-C , 21-H ) :   0.8958 B( 10-C , 11-C ) :   1.1195
B( 10-C , 12-C ) :   1.1228 B( 10-C , 22-H ) :   0.8864 B( 11-C , 23-H ) :   0.9481
B( 11-C , 24-H ) :   0.9300 B( 11-C , 25-H ) :   0.9450 B( 12-C , 26-H ) :   0.9335
B( 12-C , 27-H ) :   0.9442 B( 12-C , 28-H ) :   0.9461

Dispersion correction           -0.030645535
FINAL SINGLE POINT ENERGY      -466.029111665765

DIPOLE MOMENT
-------------

Method             : SCF
Type of density    : Electron Density
Multiplicity       :   1
Irrep              :   0
Energy             :  -466.1256548524440859 Eh
Relativity type    :
Basis              : AO
                                X                 Y                 Z
Electronic contribution:     -0.082152548      -7.499208913      -2.801964837
Nuclear contribution   :     -0.305035335       8.473750489       2.863283927
                        -----------------------------------------
Total Dipole Moment    :     -0.387187883       0.974541576       0.061319090
                        -----------------------------------------
Magnitude (a.u.)       :      1.050431231
Magnitude (Debye)      :      2.669984002

Rotational constants in cm-1:             0.051837             0.028635             0.022323
Rotational constants in MHz :          1554.036284           858.441524           669.223054

                             ****ORCA TERMINATED NORMALLY****
TOTAL RUN TIME: 0 days 0 hours 0 minutes 18 seconds 482 msec
