                         Program Version 6.0.0  -   RELEASE  -
|  1> ! r2SCAN-3c DEF2-TZVP FREQ
|  2> * xyzfile 0 1 censo.xyz
|  3>
|  4>                          ****END OF INPUT****

CARTESIAN COORDINATES (ANGSTROEM)
---------------------------------
  C     -4.072205   -0.391921   -0.002713
  C     -3.938195    0.995995   -0.002284
  C     -2.674112    1.570493   -0.000638
  C     -1.534226    0.763093    0.000425
  C     -1.668251   -0.637963    0.000064
  C     -2.944115   -1.203463   -0.001396
  C     -0.474533   -1.525160    0.000998
  O     -0.615817   -2.759168    0.002299
  C      0.838076   -0.898568    0.000667
  C      1.998488   -1.691495    0.000001
  C      3.253997   -1.129058   -0.001062
  C      3.408026    0.277355   -0.001310
  C      2.249677    1.081937   -0.000288
  C      0.990476    0.507242    0.000602
  C     -0.197525    1.397808    0.001721
  O     -0.076598    2.624203    0.003527
  N      4.635597    0.839524   -0.002160
  H     -5.059801   -0.841135   -0.004083
  H     -4.820208    1.627566   -0.003264
  H     -2.559741    2.648627   -0.000315
  H     -3.045678   -2.282677   -0.001688
  H      1.895237   -2.771232    0.000041
  H      4.139238   -1.757659   -0.001828
  H      2.349697    2.162272   -0.000324
  H      4.739884    1.840928   -0.004074
  H      5.462373    0.264815   -0.004549

 Total Charge           Charge          ....    0
 Multiplicity           Mult            ....    1
 Number of Electrons    NEL             ....  116
 Basis Dimension        Dim             ....  581

ORBITAL ENERGIES
----------------

  NO   OCC          E(Eh)            E(eV)
   0   2.0000     -18.940677      -515.4020
   1   2.0000     -18.929123      -515.0876
   2   2.0000     -14.200886      -386.4258
   3   2.0000     -10.124021      -275.4886
   4   2.0000     -10.114229      -275.2222
   5   2.0000     -10.105343      -274.9804
   6   2.0000     -10.061450      -273.7860
   7   2.0000     -10.057884      -273.6889
   8   2.0000     -10.057487      -273.6781
   9   2.0000     -10.052627      -273.5459
  10   2.0000     -10.052597      -273.5451
  11   2.0000     -10.051933      -273.5270
  12   2.0000     -10.051874      -273.5254
  13   2.0000     -10.049820      -273.4695
  14   2.0000     -10.048653      -273.4377
  15   2.0000     -10.048273      -273.4274
  16   2.0000     -10.047872      -273.4165
  17   2.0000      -1.000612       -27.2280
  18   2.0000      -0.985577       -26.8189
  19   2.0000      -0.922951       -25.1148
  20   2.0000      -0.843363       -22.9491
  21   2.0000      -0.828259       -22.5381
  22   2.0000      -0.762485       -20.7483
  23   2.0000      -0.735419       -20.0118
  24   2.0000      -0.731851       -19.9147
  25   2.0000      -0.717675       -19.5289
  26   2.0000      -0.646377       -17.5888
  27   2.0000      -0.628123       -17.0921
  28   2.0000      -0.602646       -16.3988
  29   2.0000      -0.582200       -15.8425
  30   2.0000      -0.545244       -14.8368
  31   2.0000      -0.531933       -14.4746
  32   2.0000      -0.521749       -14.1975
  33   2.0000      -0.504793       -13.7361
  34   2.0000      -0.473786       -12.8924
  35   2.0000      -0.452528       -12.3139
  36   2.0000      -0.443853       -12.0779
  37   2.0000      -0.433735       -11.8025
  38   2.0000      -0.412082       -11.2133
  39   2.0000      -0.408662       -11.1203
  40   2.0000      -0.405991       -11.0476
  41   2.0000      -0.399987       -10.8842
  42   2.0000      -0.395546       -10.7633
  43   2.0000      -0.386962       -10.5298
  44   2.0000      -0.379060       -10.3147
  45   2.0000      -0.370695       -10.0871
  46   2.0000      -0.365702        -9.9512
  47   2.0000      -0.342620        -9.3232
  48   2.0000      -0.337760        -9.1909
  49   2.0000      -0.330926        -9.0050
  50   2.0000      -0.318447        -8.6654
  51   2.0000      -0.299353        -8.1458
  52   2.0000      -0.256214        -6.9719
  53   2.0000      -0.251987        -6.8569
  54   2.0000      -0.246742        -6.7142
  55   2.0000      -0.229168        -6.2360
  56   2.0000      -0.217023        -5.9055
  57   2.0000      -0.207030        -5.6336
  58   0.0000      -0.124347        -3.3836
  59   0.0000      -0.082823        -2.2537
  60   0.0000      -0.044899        -1.2218
  61   0.0000      -0.035810        -0.9744
  62   0.0000       0.025039         0.6813

MULLIKEN ATOMIC CHARGES
-----------------------
   0 C :   -0.068997
   1 C :   -0.072862
   2 C :   -0.173359
   3 C :    0.033860
   4 C :    0.036500
   5 C :   -0.163176
   6 C :    0.210204
   7 O :   -0.373654
   8 C :   -0.010833
   9 C :   -0.167994
  10 C :   -0.196686
  11 C :    0.370555
  12 C :   -0.270673
  13 C :    0.051203
  14 C :    0.217201
  15 O :   -0.354244
  16 N :   -0.413686
  17 H :    0.118626
  18 H :    0.118103
  19 H :    0.134916
  20 H :    0.137187
  21 H :    0.134517
  22 H :    0.098997
  23 H :    0.114469
  24 H :    0.246237
  25 H :    0.243588
Sum of atomic charges:   -0.0000000

LOEWDIN ATOMIC CHARGES
----------------------
   0 C :   -0.117906
   1 C :   -0.121584
   2 C :   -0.070103
   3 C :   -0.073632
   4 C :   -0.064735
   5 C :   -0.070621
   6 C :   -0.248859
   7 O :    0.097841
   8 C :   -0.093242
   9 C :   -0.067426
  10 C :   -0.115790
  11 C :   -0.235949
  12 C :   -0.065249
  13 C :   -0.073006
  14 C :   -0.232243
  15 O :    0.119509
  16 N :    0.021188
  17 H :    0.146341
  18 H :    0.146094
  19 H :    0.157017
  20 H :    0.157724
  21 H :    0.159615
  22 H :    0.144119
  23 H :    0.154904
  24 H :    0.173867
  25 H :    0.172123

  Mayer bond orders larger than 0.100000
B(  0-C ,  1-C ) :   1.3468 B(  0-C ,  5-C ) :   1.3810 B(  0-C , 17-H ) :   0.9709
B(  1-C ,  2-C ) :   1.3916 B(  1-C , 18-H ) :   0.9713 B(  2-C ,  3-C ) :   1.3451
B(  2-C , 19-H ) :   0.9635 B(  3-C ,  4-C ) :   1.2847 B(  3-C , 14-C ) :   0.9796
B(  3-C , 15-O ) :  -0.1294 B(  4-C ,  5-C ) :   1.3568 B(  4-C ,  6-C ) :   0.9508
B(  4-C ,  7-O ) :  -0.1436 B(  5-C , 20-H ) :   0.9613 B(  6-C ,  7-O ) :   2.0178
B(  6-C ,  8-C ) :   1.0096 B(  7-O ,  8-C ) :  -0.1529 B(  8-C ,  9-C ) :   1.3103
B(  8-C , 13-C ) :   1.2560 B(  9-C , 10-C ) :   1.4942 B(  9-C , 21-H ) :   0.9596
B( 10-C , 11-C ) :   1.2406 B( 10-C , 22-H ) :   0.9703 B( 11-C , 12-C ) :   1.2303
B( 11-C , 16-N ) :   1.1873 B( 12-C , 13-C ) :   1.4655 B( 12-C , 23-H ) :   0.9629
B( 13-C , 14-C ) :   0.9547 B( 13-C , 15-O ) :  -0.1298 B( 14-C , 15-O ) :   2.0226
B( 16-N , 24-H ) :   0.9093 B( 16-N , 25-H ) :   0.9105

Dispersion correction           -0.012290097
FINAL SINGLE POINT ENERGY      -744.041215739237

DIPOLE MOMENT
-------------

Method             : SCF
Type of density    : Electron Density
Multiplicity       :   1
Irrep              :   0
Energy             :  -744.0374949499525883 Eh
Relativity type    :
Basis              : AO
                                X                 Y                 Z
Electronic contribution:     -1.573096284      -0.364949770       0.011304850
Nuclear contribution   :      2.933945470       0.843407344      -0.018013724
                        -----------------------------------------
Total Dipole Moment    :      1.360849187       0.478457575      -0.006708874
                        -----------------------------------------
Magnitude (a.u.)       :      1.442524582
Magnitude (Debye)      :      3.666606096

VIBRATIONAL FREQUENCIES
-----------------------

Scaling factor for frequencies =  1.000000000  (already applied!)

     0:       0.00 cm**-1
     1:       0.00 cm**-1
     2:       0.00 cm**-1
     3:       0.00 cm**-1
     4:       0.00 cm**-1
     5:       0.00 cm**-1
     6:    -139.42 cm**-1 ***imaginary mode***
     7:      47.79 cm**-1
     8:      95.56 cm**-1
     9:     124.77 cm**-1
    10:     158.32 cm**-1
    11:     194.68 cm**-1
    12:     202.35 cm**-1
    13:     283.54 cm**-1
    14:     290.89 cm**-1
    15:     340.37 cm**-1
    16:     393.75 cm**-1
    17:     403.29 cm**-1
    18:     415.07 cm**-1
    19:     446.18 cm**-1
    20:     447.83 cm**-1
    21:     462.32 cm**-1
    22:     477.86 cm**-1
    23:     507.02 cm**-1
    24:     562.99 cm**-1
    25:     598.14 cm**-1
    26:     655.05 cm**-1
    27:     680.50 cm**-1
    28:     683.63 cm**-1
    29:     706.38 cm**-1
    30:     730.58 cm**-1
    31:     743.85 cm**-1
    32:     770.41 cm**-1
    33:     804.52 cm**-1
    34:     823.86 cm**-1
    35:     846.74 cm**-1
    36:     876.38 cm**-1
    37:     897.22 cm**-1
    38:     920.58 cm**-1
    39:     949.20 cm**-1
    40:     982.02 cm**-1
    41:     986.25 cm**-1
    42:     999.42 cm**-1
    43:     999.99 cm**-1
    44:    1056.43 cm**-1
    45:    1073.46 cm**-1
    46:    1118.38 cm**-1
    47:    1132.24 cm**-1
    48:    1169.49 cm**-1
    49:    1184.24 cm**-1
    50:    1202.99 cm**-1
    51:    1238.78 cm**-1
    52:    1271.88 cm**-1
    53:    1309.95 cm**-1
    54:    1342.54 cm**-1
    55:    1368.60 cm**-1
    56:    1377.97 cm**-1
    57:    1384.64 cm**-1
    58:    1477.70 cm**-1
    59:    1494.09 cm**-1
    60:    1499.35 cm**-1
    61:    1530.12 cm**-1
    62:    1569.30 cm**-1
    63:    1591.06 cm**-1
    64:    1609.16 cm**-1
    65:    1632.63 cm**-1
    66:    1637.15 cm**-1
    67:    1667.22 cm**-1
    68:    1681.66 cm**-1
    69:    3161.96 cm**-1
    70:    3166.33 cm**-1
    71:    3179.61 cm**-1
    72:    3180.48 cm**-1
    73:    3190.52 cm**-1
    74:    3194.66 cm**-1
    75:    3197.43 cm**-1
    76:    3571.14 cm**-1
    77:    3697.79 cm**-1

IR SPECTRUM
-----------

 Mode   freq       eps      Int      T**2         TX        TY        TZ
       cm**-1   L/(mol*cm) km/mol    a.u.
----------------------------------------------------------------------------
  7:     47.79   0.003568   18.03  0.023301  ( 0.000346 -0.000129  0.152646)
  8:     95.56   0.000167    0.84  0.000545  (-0.000170 -0.000070 -0.023346)
  9:    124.77   0.000098    0.49  0.000244  ( 0.000099  0.000518 -0.015608)
 10:    158.32   0.000000    0.00  0.000000  ( 0.000091  0.000156 -0.000207)
 11:    194.68   0.000656    3.32  0.001052  ( 0.006466 -0.031789 -0.000032)
 12:    202.35   0.000619    3.13  0.000955  (-0.000109 -0.000083  0.030903)
 13:    283.54   0.000716    3.62  0.000788  (-0.000176 -0.000053 -0.028066)
 14:    290.89   0.000002    0.01  0.000002  ( 0.001247 -0.000445  0.000046)
 15:    340.37   0.000043    0.21  0.000039  (-0.003462  0.005196 -0.000011)
 16:    393.75   0.001281    6.47  0.001015  ( 0.031289 -0.006028 -0.000013)
 17:    403.29   0.003112   15.73  0.002408  (-0.049067 -0.000675  0.000012)
 18:    415.07   0.000156    0.79  0.000117  (-0.000001 -0.000043  0.010818)
 19:    446.18   0.000299    1.51  0.000209  (-0.014426  0.001038  0.000081)
 20:    447.83   0.000062    0.31  0.000043  (-0.000193  0.000047 -0.006547)
 21:    462.32   0.000260    1.31  0.000175  ( 0.000074  0.000010  0.013240)
 22:    477.86   0.000105    0.53  0.000068  (-0.002894 -0.007742 -0.000023)
 23:    507.02   0.000137    0.69  0.000084  (-0.000504 -0.000293  0.009160)
 24:    562.99   0.002677   13.53  0.001484  ( 0.000014  0.000005  0.038520)
 25:    598.14   0.002268   11.46  0.001183  (-0.033679  0.007000  0.000080)
 26:    655.05   0.001578    7.97  0.000752  ( 0.026037  0.008582  0.000077)
 27:    680.50   0.000429    2.17  0.000197  ( 0.011428  0.008114  0.000255)
 28:    683.63   0.002902   14.66  0.001325  ( 0.000073  0.000046 -0.036395)
 29:    706.38   0.000277    1.40  0.000122  ( 0.008135  0.007505 -0.000034)
 30:    730.58   0.012085   61.07  0.005162  (-0.000161 -0.000139 -0.071848)
 31:    743.85   0.000030    0.15  0.000012  (-0.000083 -0.000104  0.003523)
 32:    770.41   0.001302    6.58  0.000527  ( 0.021146  0.008949  0.000007)
 33:    804.52   0.000201    1.02  0.000078  ( 0.000037 -0.000142  0.008839)
 34:    823.86   0.001223    6.18  0.000463  (-0.000106 -0.000378 -0.021516)
 35:    846.74   0.003064   15.48  0.001129  ( 0.000014 -0.000052  0.033604)
 36:    876.38   0.001954    9.87  0.000696  ( 0.026322 -0.001690  0.000027)
 37:    897.22   0.001912    9.66  0.000665  (-0.000054 -0.000102 -0.025786)
 38:    920.58   0.000130    0.66  0.000044  ( 0.000064  0.000211 -0.006634)
 39:    949.20   0.004350   21.99  0.001430  ( 0.037408 -0.005559  0.000011)
 40:    982.02   0.000067    0.34  0.000021  ( 0.000141  0.000061  0.004603)
 41:    986.25   0.000363    1.83  0.000115  ( 0.000091  0.000157  0.010715)
 42:    999.42   0.000013    0.06  0.000004  ( 0.000646  0.000056  0.001875)
 43:    999.99   0.004930   24.91  0.001538  ( 0.039213 -0.000883 -0.000063)
 44:   1056.43   0.000507    2.56  0.000150  (-0.012214  0.000777 -0.000002)
 45:   1073.46   0.000953    4.82  0.000277  ( 0.013670  0.009502 -0.000025)
 46:   1118.38   0.000081    0.41  0.000023  (-0.004103  0.002403  0.000010)
 47:   1132.24   0.004173   21.09  0.001150  (-0.030663 -0.014489  0.000023)
 48:   1169.49   0.001117    5.65  0.000298  ( 0.012697 -0.011702 -0.000027)
 49:   1184.24   0.004830   24.41  0.001273  ( 0.032928 -0.013729 -0.000008)
 50:   1202.99   0.001894    9.57  0.000491  (-0.012990  0.017960 -0.000024)
 51:   1238.78   0.005023   25.38  0.001265  ( 0.035555  0.001056  0.000000)
 52:   1271.88   0.003400   17.18  0.000834  ( 0.009312 -0.027340  0.000025)
 53:   1309.95   0.048181  243.49  0.011478  (-0.107101  0.002703 -0.000029)
 54:   1342.54   0.034995  176.85  0.008134  (-0.090106 -0.003885  0.000009)
 55:   1368.60   0.006168   31.17  0.001406  ( 0.036354 -0.009204  0.000006)
 56:   1377.97   0.031908  161.25  0.007226  ( 0.084858 -0.005009 -0.000017)
 57:   1384.64   0.060788  307.20  0.013700  (-0.115927 -0.016157  0.000022)
 58:   1477.70   0.002004   10.13  0.000423  (-0.001898 -0.020484  0.000001)
 59:   1494.09   0.001989   10.05  0.000415  ( 0.013960 -0.014851 -0.000005)
 60:   1499.35   0.001395    7.05  0.000290  (-0.001745  0.016953 -0.000015)
 61:   1530.12   0.004582   23.15  0.000934  (-0.028837 -0.010139  0.000045)
 62:   1569.30   0.018670   94.35  0.003713  ( 0.040953  0.045116 -0.000060)
 63:   1591.06   0.027965  141.32  0.005485  (-0.044742 -0.059017  0.000070)
 64:   1609.16   0.044176  223.25  0.008567  (-0.040871 -0.083046 -0.000028)
 65:   1632.63   0.026288  132.85  0.005025  ( 0.057498  0.041457 -0.000036)
 66:   1637.15   0.001767    8.93  0.000337  ( 0.012893  0.013064  0.000131)
 67:   1667.22   0.045647  230.68  0.008544  (-0.068307 -0.062275  0.000073)
 68:   1681.66   0.037711  190.58  0.006998  (-0.081862  0.017225  0.000164)
 69:   3161.96   0.002987   15.10  0.000295  (-0.016541  0.004608  0.000010)
 70:   3166.33   0.000783    3.96  0.000077  (-0.002626 -0.008386 -0.000003)
 71:   3179.61   0.001327    6.71  0.000130  ( 0.011192  0.002240 -0.000011)
 72:   3180.48   0.002587   13.07  0.000254  ( 0.015877 -0.001324  0.000013)
 73:   3190.52   0.001280    6.47  0.000125  (-0.010742  0.003126  0.000004)
 74:   3194.66   0.000403    2.04  0.000039  ( 0.004735 -0.004114  0.000004)
 75:   3197.43   0.002444   12.35  0.000239  (-0.015415  0.000962 -0.000016)
 76:   3571.14   0.028615  144.61  0.002501  (-0.047037 -0.016972  0.000085)
 77:   3697.79   0.007831   39.57  0.000661  ( 0.009956 -0.023700 -0.000005)

--------------------------
THERMOCHEMISTRY AT 298.15K
--------------------------

Temperature         ...   298.15 K
Pressure            ...     1.00 atm
Total Mass          ...   223.23 AMU
Quasi RRHO          ...     True
Cut-Off Frequency   ...     1.00 cm^-1

Throughout the following assumptions are being made:
  (1) The electronic state is orbitally nondegenerate
  (2) There are no thermally accessible electronically excited states
  (3) Hindered rotations indicated by low frequency modes are not
      treated as such but are treated as vibrations and this may
      cause some error
  (4) All equations used are the standard statistical mechanics
      equations for an ideal gas
  (5) All vibrations are strictly harmonic

freq.      47.79  E(vib)   ...       0.53
freq.      95.56  E(vib)   ...       0.47
freq.     124.77  E(vib)   ...       0.43
freq.     158.32  E(vib)   ...       0.39
freq.     194.68  E(vib)   ...       0.36
freq.     202.35  E(vib)   ...       0.35
freq.     283.54  E(vib)   ...       0.28
freq.     290.89  E(vib)   ...       0.27
freq.     340.37  E(vib)   ...       0.23
freq.     393.75  E(vib)   ...       0.20
freq.     403.29  E(vib)   ...       0.19
freq.     415.07  E(vib)   ...       0.19
freq.     446.18  E(vib)   ...       0.17
freq.     447.83  E(vib)   ...       0.17
freq.     462.32  E(vib)   ...       0.16
freq.     477.86  E(vib)   ...       0.15
freq.     507.02  E(vib)   ...       0.14
freq.     562.99  E(vib)   ...       0.11
freq.     598.14  E(vib)   ...       0.10
freq.     655.05  E(vib)   ...       0.08
freq.     680.50  E(vib)   ...       0.08
freq.     683.63  E(vib)   ...       0.07
freq.     706.38  E(vib)   ...       0.07
freq.     730.58  E(vib)   ...       0.06
freq.     743.85  E(vib)   ...       0.06
freq.     770.41  E(vib)   ...       0.05
freq.     804.52  E(vib)   ...       0.05
freq.     823.86  E(vib)   ...       0.05
freq.     846.74  E(vib)   ...       0.04
freq.     876.38  E(vib)   ...       0.04
freq.     897.22  E(vib)   ...       0.03
freq.     920.58  E(vib)   ...       0.03
freq.     949.20  E(vib)   ...       0.03
freq.     982.02  E(vib)   ...       0.02
freq.     986.25  E(vib)   ...       0.02
freq.     999.42  E(vib)   ...       0.02
freq.     999.99  E(vib)   ...       0.02
freq.    1056.43  E(vib)   ...       0.02
freq.    1073.46  E(vib)   ...       0.02
freq.    1118.38  E(vib)   ...       0.01
freq.    1132.24  E(vib)   ...       0.01
freq.    1169.49  E(vib)   ...       0.01
freq.    1184.24  E(vib)   ...       0.01
freq.    1202.99  E(vib)   ...       0.01
freq.    1238.78  E(vib)   ...       0.01
freq.    1271.88  E(vib)   ...       0.01
freq.    1309.95  E(vib)   ...       0.01
freq.    1342.54  E(vib)   ...       0.01
freq.    1368.60  E(vib)   ...       0.01
freq.    1377.97  E(vib)   ...       0.01
freq.    1384.64  E(vib)   ...       0.00
freq.    1477.70  E(vib)   ...       0.00
freq.    1494.09  E(vib)   ...       0.00
freq.    1499.35  E(vib)   ...       0.00
freq.    1530.12  E(vib)   ...       0.00
freq.    1569.30  E(vib)   ...       0.00
freq.    1591.06  E(vib)   ...       0.00
freq.    1609.16  E(vib)   ...       0.00
freq.    1632.63  E(vib)   ...       0.00
freq.    1637.15  E(vib)   ...       0.00
freq.    1667.22  E(vib)   ...       0.00
freq.    1681.66  E(vib)   ...       0.00
freq.    3161.96  E(vib)   ...       0.00
freq.    3166.33  E(vib)   ...       0.00
freq.    3179.61  E(vib)   ...       0.00
freq.    3180.48  E(vib)   ...       0.00
freq.    3190.52  E(vib)   ...       0.00
freq.    3194.66  E(vib)   ...       0.00
freq.    3197.43  E(vib)   ...       0.00
freq.    3571.14  E(vib)   ...       0.00
freq.    3697.79  E(vib)   ...       0.00

------------
INNER ENERGY
------------

The inner energy is: U= E(el) + E(ZPE) + E(vib) + E(rot) + E(trans)
    E(el)   - is the total energy from the electronic structure calculation
              = E(kin-el) + E(nuc-el) + E(el-el) + E(nuc-nuc)
    E(ZPE)  - the the zero temperature vibrational energy from the frequency calculation
    E(vib)  - the the finite temperature correction to E(ZPE) due to population
              of excited vibrational states
    E(rot)  - is the rotational thermal energy
    E(trans)- is the translational thermal energy

Summary of contributions to the inner energy U:
Electronic energy                ...   -744.04121574 Eh
Zero point energy                ...      0.19517121 Eh     122.47 kcal/mol
Thermal vibrational correction   ...      0.00938654 Eh       5.89 kcal/mol
Thermal rotational correction    ...      0.00141627 Eh       0.89 kcal/mol
Thermal translational correction ...      0.00141627 Eh       0.89 kcal/mol
-----------------------------------------------------------------------
Total thermal energy                   -743.83382544 Eh

Summary of corrections to the electronic energy:
(perhaps to be used in another calculation)
Total thermal correction                  0.01221908 Eh       7.67 kcal/mol
Non-thermal (ZPE) correction              0.19517121 Eh     122.47 kcal/mol
-----------------------------------------------------------------------
Total correction                          0.20739029 Eh     130.14 kcal/mol

--------
ENTHALPY
--------

The enthalpy is H = U + kB*T
                kB is Boltzmann's constant
Total thermal energy              ...   -743.83382544 Eh
Thermal Enthalpy correction       ...      0.00094421 Eh       0.59 kcal/mol
-----------------------------------------------------------------------
Total Enthalpy                    ...   -743.83288124 Eh

Note: Only C1 symmetry has been detected, increase convergence thresholds
      if your molecule has a higher symmetry. Symmetry factor of 1.0 is
      used for the rotational entropy correction.

Note: Rotational entropy computed according to Herzberg
Infrared and Raman Spectra, Chapter V,1, Van Nostrand Reinhold, 1945
Point Group:  C1, Symmetry Number:   1
Rotational constants in cm-1:     0.035258     0.011333     0.008576

Vibrational entropy computed according to the QRRHO of S. Grimme
Chem.Eur.J. 2012 18 9955 using a reference frequency of 100.0 cm-1

-------
ENTROPY
-------

The entropy contributions are T*S = T*(S(el)+S(vib)+S(rot)+S(trans))
     S(el)   - electronic entropy
     S(vib)  - vibrational entropy
     S(rot)  - rotational entropy
     S(trans)- translational entropy
The entropies will be listed as multiplied by the temperature to get
units of energy

Electronic entropy                ...      0.00000000 Eh      0.00 kcal/mol

                             ****ORCA TERMINATED NORMALLY****
TOTAL RUN TIME: 0 days 0 hours 57 minutes 6 seconds 840 msec
