                         Program Version 6.0.0  -   RELEASE  -
|  1> ! r2SCAN-3c DEF2-TZVP FREQ
|  2> * xyzfile 0 1 vacuum_censo.xyz
|  3>
|  4>                          ****END OF INPUT****

CARTESIAN COORDINATES (ANGSTROEM)
---------------------------------
  C     -4.071561   -0.391164   -0.010685
  C     -3.934678    0.998079   -0.011198
  C     -2.671679    1.572215   -0.004428
  C     -1.533830    0.762340    0.001677
  C     -1.671407   -0.635863    0.002800
  C     -2.946193   -1.203531   -0.002808
  C     -0.481514   -1.533678    0.008814
  O     -0.614651   -2.753387    0.018267
  C      0.843458   -0.894560    0.002429
  C      1.994660   -1.691383   -0.001084
  C      3.251611   -1.123835   -0.013176
  C      3.403486    0.277326   -0.021173
  C      2.255856    1.080163   -0.014897
  C      0.992811    0.504669   -0.003684
  C     -0.194181    1.403890    0.005759
  O     -0.070074    2.621223    0.015891
  N      4.656770    0.844052   -0.087894
  H     -5.060773   -0.837631   -0.016658
  H     -4.816849    1.630087   -0.017297
  H     -2.538445    2.648554   -0.004662
  H     -3.026726   -2.285098   -0.001986
  H      1.871486   -2.769145    0.005789
  H      4.134667   -1.756849   -0.021748
  H      2.329732    2.163487   -0.022322
  H      4.736562    1.812121    0.176535
  H      5.435576    0.273470    0.197385

 Total Charge           Charge          ....    0
 Multiplicity           Mult            ....    1
 Number of Electrons    NEL             ....  116
 Basis Dimension        Dim             ....  581

ORBITAL ENERGIES
----------------

  NO   OCC          E(Eh)            E(eV)
   0   2.0000     -18.943411      -515.4764
   1   2.0000     -18.934247      -515.2271
   2   2.0000     -14.195018      -386.2661
   3   2.0000     -10.125914      -275.5401
   4   2.0000     -10.118114      -275.3279
   5   2.0000     -10.102864      -274.9129
   6   2.0000     -10.061800      -273.7955
   7   2.0000     -10.059537      -273.7339
   8   2.0000     -10.058920      -273.7171
   9   2.0000     -10.054672      -273.6015
  10   2.0000     -10.054034      -273.5842
  11   2.0000     -10.053384      -273.5665
  12   2.0000     -10.052867      -273.5524
  13   2.0000     -10.051358      -273.5114
  14   2.0000     -10.050333      -273.4835
  15   2.0000     -10.049764      -273.4680
  16   2.0000     -10.049021      -273.4478
  17   2.0000      -1.007415       -27.4131
  18   2.0000      -0.997573       -27.1453
  19   2.0000      -0.915297       -24.9065
  20   2.0000      -0.845448       -23.0058
  21   2.0000      -0.829974       -22.5848
  22   2.0000      -0.763159       -20.7666
  23   2.0000      -0.736293       -20.0356
  24   2.0000      -0.734017       -19.9736
  25   2.0000      -0.718777       -19.5589
  26   2.0000      -0.646090       -17.5810
  27   2.0000      -0.627367       -17.0715
  28   2.0000      -0.601967       -16.3803
  29   2.0000      -0.581625       -15.8268
  30   2.0000      -0.544976       -14.8295
  31   2.0000      -0.528592       -14.3837
  32   2.0000      -0.520186       -14.1550
  33   2.0000      -0.499593       -13.5946
  34   2.0000      -0.472028       -12.8445
  35   2.0000      -0.454069       -12.3559
  36   2.0000      -0.444949       -12.1077
  37   2.0000      -0.433478       -11.7955
  38   2.0000      -0.414556       -11.2807
  39   2.0000      -0.410185       -11.1617
  40   2.0000      -0.407202       -11.0805
  41   2.0000      -0.402210       -10.9447
  42   2.0000      -0.399464       -10.8700
  43   2.0000      -0.389830       -10.6078
  44   2.0000      -0.377797       -10.2804
  45   2.0000      -0.371341       -10.1047
  46   2.0000      -0.370309       -10.0766
  47   2.0000      -0.344259        -9.3678
  48   2.0000      -0.339256        -9.2316
  49   2.0000      -0.333139        -9.0652
  50   2.0000      -0.321557        -8.7500
  51   2.0000      -0.301127        -8.1941
  52   2.0000      -0.257855        -7.0166
  53   2.0000      -0.253661        -6.9025
  54   2.0000      -0.249048        -6.7769
  55   2.0000      -0.232699        -6.3321
  56   2.0000      -0.220331        -5.9955
  57   2.0000      -0.211413        -5.7528
  58   0.0000      -0.125039        -3.4025
  59   0.0000      -0.084119        -2.2890
  60   0.0000      -0.046793        -1.2733
  61   0.0000      -0.037695        -1.0257
  62   0.0000       0.022324         0.6075

MULLIKEN ATOMIC CHARGES
-----------------------
   0 C :   -0.072130
   1 C :   -0.074227
   2 C :   -0.166513
   3 C :    0.023449
   4 C :    0.024897
   5 C :   -0.156613
   6 C :    0.216938
   7 O :   -0.356346
   8 C :   -0.024475
   9 C :   -0.153515
  10 C :   -0.205271
  11 C :    0.373310
  12 C :   -0.282466
  13 C :    0.047177
  14 C :    0.222256
  15 O :   -0.345159
  16 N :   -0.424093
  17 H :    0.119088
  18 H :    0.118682
  19 H :    0.136681
  20 H :    0.138680
  21 H :    0.136479
  22 H :    0.102453
  23 H :    0.119961
  24 H :    0.242005
  25 H :    0.238751
Sum of atomic charges:   -0.0000000

LOEWDIN ATOMIC CHARGES
----------------------
   0 C :   -0.117190
   1 C :   -0.120035
   2 C :   -0.070876
   3 C :   -0.073317
   4 C :   -0.067052
   5 C :   -0.071410
   6 C :   -0.253809
   7 O :    0.118401
   8 C :   -0.091243
   9 C :   -0.069126
  10 C :   -0.112136
  11 C :   -0.228942
  12 C :   -0.064932
  13 C :   -0.073458
  14 C :   -0.238054
  15 O :    0.130318
  16 N :   -0.005220
  17 H :    0.146688
  18 H :    0.146509
  19 H :    0.157470
  20 H :    0.158142
  21 H :    0.159534
  22 H :    0.145475
  23 H :    0.156761
  24 H :    0.169636
  25 H :    0.167866

  Mayer bond orders larger than 0.100000
B(  0-C ,  1-C ) :   1.3427 B(  0-C ,  5-C ) :   1.3842 B(  0-C , 17-H ) :   0.9710
B(  1-C ,  2-C ) :   1.3930 B(  1-C , 18-H ) :   0.9713 B(  2-C ,  3-C ) :   1.3473
B(  2-C , 19-H ) :   0.9615 B(  3-C ,  4-C ) :   1.2928 B(  3-C , 14-C ) :   0.9757
B(  3-C , 15-O ) :  -0.1201 B(  4-C ,  5-C ) :   1.3560 B(  4-C ,  6-C ) :   0.9536
B(  4-C ,  7-O ) :  -0.1287 B(  5-C , 20-H ) :   0.9596 B(  6-C ,  7-O ) :   2.0236
B(  6-C ,  8-C ) :   0.9932 B(  7-O ,  8-C ) :  -0.1359 B(  8-C ,  9-C ) :   1.3231
B(  8-C , 13-C ) :   1.2751 B(  9-C , 10-C ) :   1.4774 B(  9-C , 21-H ) :   0.9583
B( 10-C , 11-C ) :   1.2584 B( 10-C , 22-H ) :   0.9699 B( 11-C , 12-C ) :   1.2619
B( 11-C , 16-N ) :   1.1207 B( 12-C , 13-C ) :   1.4464 B( 12-C , 23-H ) :   0.9604
B( 13-C , 14-C ) :   0.9517 B( 13-C , 15-O ) :  -0.1198 B( 14-C , 15-O ) :   2.0231
B( 16-N , 24-H ) :   0.9144 B( 16-N , 25-H ) :   0.9154

Dispersion correction           -0.012291944
FINAL SINGLE POINT ENERGY      -744.042506905497

DIPOLE MOMENT
-------------

Method             : SCF
Type of density    : Electron Density
Multiplicity       :   1
Irrep              :   0
Energy             :  -744.0388293274722855 Eh
Relativity type    :
Basis              : AO
                                X                 Y                 Z
Electronic contribution:     -1.831282205      -0.453086628      -0.052363128
Nuclear contribution   :      2.885474094       0.824286492       0.319652376
                        -----------------------------------------
Total Dipole Moment    :      1.054191889       0.371199864       0.267289248
                        -----------------------------------------
Magnitude (a.u.)       :      1.149153349
Magnitude (Debye)      :      2.920915685

VIBRATIONAL FREQUENCIES
-----------------------

Scaling factor for frequencies =  1.000000000  (already applied!)

     0:       0.00 cm**-1
     1:       0.00 cm**-1
     2:       0.00 cm**-1
     3:       0.00 cm**-1
     4:       0.00 cm**-1
     5:       0.00 cm**-1
     6:      43.42 cm**-1
     7:      94.61 cm**-1
     8:     119.04 cm**-1
     9:     145.02 cm**-1
    10:     194.05 cm**-1
    11:     197.75 cm**-1
    12:     286.92 cm**-1
    13:     287.12 cm**-1
    14:     337.64 cm**-1
    15:     389.04 cm**-1
    16:     397.85 cm**-1
    17:     405.10 cm**-1
    18:     414.00 cm**-1
    19:     442.35 cm**-1
    20:     447.59 cm**-1
    21:     457.75 cm**-1
    22:     477.99 cm**-1
    23:     482.77 cm**-1
    24:     565.62 cm**-1
    25:     597.55 cm**-1
    26:     654.88 cm**-1
    27:     680.10 cm**-1
    28:     682.42 cm**-1
    29:     706.20 cm**-1
    30:     729.93 cm**-1
    31:     744.33 cm**-1
    32:     766.94 cm**-1
    33:     805.77 cm**-1
    34:     827.41 cm**-1
    35:     852.93 cm**-1
    36:     873.66 cm**-1
    37:     905.59 cm**-1
    38:     923.53 cm**-1
    39:     948.15 cm**-1
    40:     982.04 cm**-1
    41:     987.42 cm**-1
    42:    1001.54 cm**-1
    43:    1002.02 cm**-1
    44:    1056.48 cm**-1
    45:    1088.34 cm**-1
    46:    1116.36 cm**-1
    47:    1130.36 cm**-1
    48:    1167.29 cm**-1
    49:    1182.96 cm**-1
    50:    1200.44 cm**-1
    51:    1238.91 cm**-1
    52:    1269.85 cm**-1
    53:    1298.46 cm**-1
    54:    1325.47 cm**-1
    55:    1349.26 cm**-1
    56:    1370.05 cm**-1
    57:    1393.74 cm**-1
    58:    1477.42 cm**-1
    59:    1486.39 cm**-1
    60:    1498.67 cm**-1
    61:    1523.53 cm**-1
    62:    1594.51 cm**-1
    63:    1607.57 cm**-1
    64:    1620.86 cm**-1
    65:    1632.06 cm**-1
    66:    1661.82 cm**-1
    67:    1685.25 cm**-1
    68:    1710.53 cm**-1
    69:    3155.83 cm**-1
    70:    3163.20 cm**-1
    71:    3172.15 cm**-1
    72:    3177.01 cm**-1
    73:    3189.01 cm**-1
    74:    3190.59 cm**-1
    75:    3193.12 cm**-1
    76:    3573.61 cm**-1
    77:    3685.45 cm**-1

IR SPECTRUM
-----------

 Mode   freq       eps      Int      T**2         TX        TY        TZ
       cm**-1   L/(mol*cm) km/mol    a.u.
----------------------------------------------------------------------------
  6:     43.42   0.001420    7.18  0.010205  ( 0.005661 -0.000353 -0.100862)
  7:     94.61   0.000047    0.24  0.000156  (-0.003911 -0.010668 -0.005196)
  8:    119.04   0.000007    0.04  0.000018  (-0.002636 -0.002311 -0.002452)
  9:    145.02   0.000103    0.52  0.000222  (-0.009264  0.004426 -0.010812)
 10:    194.05   0.000500    2.52  0.000803  ( 0.004625 -0.027956 -0.000673)
 11:    197.75   0.000265    1.34  0.000418  ( 0.009419  0.000427 -0.018153)
 12:    286.92   0.000109    0.55  0.000119  (-0.004115 -0.002190  0.009848)
 13:    287.12   0.000567    2.86  0.000616  (-0.012792 -0.005454  0.020554)
 14:    337.64   0.000148    0.75  0.000137  (-0.005478 -0.007432  0.007174)
 15:    389.04   0.003061   15.47  0.002455  ( 0.046404 -0.017155 -0.002791)
 16:    397.85   0.001438    7.27  0.001128  (-0.029007 -0.016881 -0.001278)
 17:    405.10   0.003685   18.62  0.002838  (-0.048050  0.022302  0.005667)
 18:    414.00   0.000610    3.08  0.000460  (-0.014278  0.001352  0.015944)
 19:    442.35   0.001719    8.69  0.001212  ( 0.028546  0.012407 -0.015608)
 20:    447.59   0.000300    1.51  0.000209  (-0.009093 -0.003110  0.010793)
 21:    457.75   0.006014   30.39  0.004100  (-0.043278 -0.016612  0.044168)
 22:    477.99   0.000397    2.01  0.000259  (-0.010309 -0.010152  0.007061)
 23:    482.77   0.077436  391.33  0.050055  ( 0.174118  0.060214 -0.126934)
 24:    565.62   0.002490   12.59  0.001374  (-0.032694 -0.011668 -0.012998)
 25:    597.55   0.000892    4.51  0.000466  ( 0.016748 -0.011209  0.007732)
 26:    654.88   0.001441    7.28  0.000687  ( 0.025302  0.006741  0.000949)
 27:    680.10   0.000519    2.62  0.000238  ( 0.005453  0.005519  0.013335)
 28:    682.42   0.002164   10.94  0.000990  (-0.003576 -0.000993 -0.031238)
 29:    706.20   0.000145    0.73  0.000064  (-0.005965 -0.005290  0.000747)
 30:    729.93   0.012891   65.15  0.005511  (-0.004081 -0.001896  0.074102)
 31:    744.33   0.000056    0.28  0.000023  (-0.002618 -0.000362  0.004056)
 32:    766.94   0.000649    3.28  0.000264  ( 0.014850  0.005395  0.003820)
 33:    805.77   0.000364    1.84  0.000141  (-0.002733 -0.000639 -0.011536)
 34:    827.41   0.000977    4.94  0.000369  (-0.002119  0.001384  0.019030)
 35:    852.93   0.004157   21.01  0.001521  (-0.005851 -0.000382  0.038557)
 36:    873.66   0.002584   13.06  0.000923  ( 0.030147  0.000974  0.003624)
 37:    905.59   0.002158   10.91  0.000744  (-0.001476 -0.001780  0.027171)
 38:    923.53   0.000298    1.51  0.000101  (-0.000322 -0.000350  0.010022)
 39:    948.15   0.007730   39.07  0.002544  ( 0.050275 -0.004067 -0.000409)
 40:    982.04   0.000068    0.35  0.000022  ( 0.001594  0.000564  0.004347)
 41:    987.42   0.000361    1.82  0.000114  ( 0.000445  0.000137  0.010669)
 42:   1001.54   0.000007    0.04  0.000002  (-0.000272  0.000086 -0.001481)
 43:   1002.02   0.003346   16.91  0.001042  ( 0.032167 -0.002704 -0.000007)
 44:   1056.48   0.000373    1.88  0.000110  ( 0.010339 -0.001771 -0.000022)
 45:   1088.34   0.000825    4.17  0.000237  ( 0.014070  0.006153  0.000913)
 46:   1116.36   0.000108    0.55  0.000030  (-0.005436 -0.000565 -0.000577)
 47:   1130.36   0.004058   20.51  0.001120  ( 0.028971  0.016690  0.001563)
 48:   1167.29   0.001144    5.78  0.000306  (-0.011357  0.013298  0.000106)
 49:   1182.96   0.005193   26.24  0.001370  ( 0.033357 -0.016036 -0.000033)
 50:   1200.44   0.001932    9.76  0.000502  (-0.008946  0.020548  0.000074)
 51:   1238.91   0.002742   13.86  0.000691  (-0.026253  0.001153  0.000075)
 52:   1269.85   0.004220   21.33  0.001037  (-0.020609  0.024746 -0.000131)
 53:   1298.46   0.041006  207.23  0.009855  (-0.099269 -0.000834 -0.000503)
 54:   1325.47   0.079532  401.92  0.018725  (-0.136785 -0.003797 -0.000464)
 55:   1349.26   0.049168  248.48  0.011372  ( 0.106112  0.010550 -0.000874)
 56:   1370.05   0.009229   46.64  0.002102  ( 0.045748 -0.003023  0.000162)
 57:   1393.74   0.001072    5.42  0.000240  (-0.010807  0.011098 -0.000364)
 58:   1477.42   0.001243    6.28  0.000263  ( 0.004766 -0.015484 -0.000347)
 59:   1486.39   0.001384    7.00  0.000291  (-0.012371  0.011722  0.000455)
 60:   1498.67   0.000050    0.25  0.000010  ( 0.001990  0.002509  0.000414)
 61:   1523.53   0.002447   12.37  0.000501  (-0.021555 -0.005832  0.001632)
 62:   1594.51   0.001055    5.33  0.000207  ( 0.007666  0.012157  0.000085)
 63:   1607.57   0.009719   49.11  0.001887  ( 0.032014  0.029346 -0.000697)
 64:   1620.86   0.041667  210.57  0.008022  (-0.044230 -0.077877  0.001011)
 65:   1632.06   0.033513  169.36  0.006408  (-0.065815 -0.045406  0.003827)
 66:   1661.82   0.043097  217.80  0.008093  (-0.076948 -0.044383 -0.014218)
 67:   1685.25   0.002954   14.93  0.000547  ( 0.009417  0.021347 -0.001635)
 68:   1710.53   0.036726  185.60  0.006700  (-0.010474  0.081180 -0.000445)
 69:   3155.83   0.002974   15.03  0.000294  ( 0.016417 -0.004954 -0.000044)
 70:   3163.20   0.000713    3.60  0.000070  ( 0.001943  0.008157 -0.000010)
 71:   3172.15   0.001599    8.08  0.000157  ( 0.012454  0.001487  0.000028)
 72:   3177.01   0.002294   11.60  0.000225  ( 0.014950 -0.001368  0.000073)
 73:   3189.01   0.001220    6.16  0.000119  (-0.010593  0.002670  0.000004)
 74:   3190.59   0.000137    0.69  0.000013  ( 0.000530 -0.003626  0.000008)
 75:   3193.12   0.002914   14.72  0.000285  (-0.016773  0.001841 -0.000085)
 76:   3573.61   0.014923   75.42  0.001303  ( 0.033403  0.012187  0.006238)
 77:   3685.45   0.004873   24.62  0.000413  (-0.007667  0.018809 -0.000142)

--------------------------
THERMOCHEMISTRY AT 298.15K
--------------------------

Temperature         ...   298.15 K
Pressure            ...     1.00 atm
Total Mass          ...   223.23 AMU
Quasi RRHO          ...     True
Cut-Off Frequency   ...     1.00 cm^-1

Throughout the following assumptions are being made:
  (1) The electronic state is orbitally nondegenerate
  (2) There are no thermally accessible electronically excited states
  (3) Hindered rotations indicated by low frequency modes are not
      treated as such but are treated as vibrations and this may
      cause some error
  (4) All equations used are the standard statistical mechanics
      equations for an ideal gas
  (5) All vibrations are strictly harmonic

freq.      43.42  E(vib)   ...       0.53
freq.      94.61  E(vib)   ...       0.47
freq.     119.04  E(vib)   ...       0.44
freq.     145.02  E(vib)   ...       0.41
freq.     194.05  E(vib)   ...       0.36
freq.     197.75  E(vib)   ...       0.35
freq.     286.92  E(vib)   ...       0.27
freq.     287.12  E(vib)   ...       0.27
freq.     337.64  E(vib)   ...       0.24
freq.     389.04  E(vib)   ...       0.20
freq.     397.85  E(vib)   ...       0.20
freq.     405.10  E(vib)   ...       0.19
freq.     414.00  E(vib)   ...       0.19
freq.     442.35  E(vib)   ...       0.17
freq.     447.59  E(vib)   ...       0.17
freq.     457.75  E(vib)   ...       0.16
freq.     477.99  E(vib)   ...       0.15
freq.     482.77  E(vib)   ...       0.15
freq.     565.62  E(vib)   ...       0.11
freq.     597.55  E(vib)   ...       0.10
freq.     654.88  E(vib)   ...       0.08
freq.     680.10  E(vib)   ...       0.08
freq.     682.42  E(vib)   ...       0.08
freq.     706.20  E(vib)   ...       0.07
freq.     729.93  E(vib)   ...       0.06
freq.     744.33  E(vib)   ...       0.06
freq.     766.94  E(vib)   ...       0.06
freq.     805.77  E(vib)   ...       0.05
freq.     827.41  E(vib)   ...       0.04
freq.     852.93  E(vib)   ...       0.04
freq.     873.66  E(vib)   ...       0.04
freq.     905.59  E(vib)   ...       0.03
freq.     923.53  E(vib)   ...       0.03
freq.     948.15  E(vib)   ...       0.03
freq.     982.04  E(vib)   ...       0.02
freq.     987.42  E(vib)   ...       0.02
freq.    1001.54  E(vib)   ...       0.02
freq.    1002.02  E(vib)   ...       0.02
freq.    1056.48  E(vib)   ...       0.02
freq.    1088.34  E(vib)   ...       0.02
freq.    1116.36  E(vib)   ...       0.01
freq.    1130.36  E(vib)   ...       0.01
freq.    1167.29  E(vib)   ...       0.01
freq.    1182.96  E(vib)   ...       0.01
freq.    1200.44  E(vib)   ...       0.01
freq.    1238.91  E(vib)   ...       0.01
freq.    1269.85  E(vib)   ...       0.01
freq.    1298.46  E(vib)   ...       0.01
freq.    1325.47  E(vib)   ...       0.01
freq.    1349.26  E(vib)   ...       0.01
freq.    1370.05  E(vib)   ...       0.01
freq.    1393.74  E(vib)   ...       0.00
freq.    1477.42  E(vib)   ...       0.00
freq.    1486.39  E(vib)   ...       0.00
freq.    1498.67  E(vib)   ...       0.00
freq.    1523.53  E(vib)   ...       0.00
freq.    1594.51  E(vib)   ...       0.00
freq.    1607.57  E(vib)   ...       0.00
freq.    1620.86  E(vib)   ...       0.00
freq.    1632.06  E(vib)   ...       0.00
freq.    1661.82  E(vib)   ...       0.00
freq.    1685.25  E(vib)   ...       0.00
freq.    1710.53  E(vib)   ...       0.00
freq.    3155.83  E(vib)   ...       0.00
freq.    3163.20  E(vib)   ...       0.00
freq.    3172.15  E(vib)   ...       0.00
freq.    3177.01  E(vib)   ...       0.00
freq.    3189.01  E(vib)   ...       0.00
freq.    3190.59  E(vib)   ...       0.00
freq.    3193.12  E(vib)   ...       0.00
freq.    3573.61  E(vib)   ...       0.00
freq.    3685.45  E(vib)   ...       0.00

------------
INNER ENERGY
------------

The inner energy is: U= E(el) + E(ZPE) + E(vib) + E(rot) + E(trans)
    E(el)   - is the total energy from the electronic structure calculation
              = E(kin-el) + E(nuc-el) + E(el-el) + E(nuc-nuc)
    E(ZPE)  - the the zero temperature vibrational energy from the frequency calculation
    E(vib)  - the the finite temperature correction to E(ZPE) due to population
              of excited vibrational states
    E(rot)  - is the rotational thermal energy
    E(trans)- is the translational thermal energy

Summary of contributions to the inner energy U:
Electronic energy                ...   -744.04250691 Eh
Zero point energy                ...      0.19602404 Eh     123.01 kcal/mol
Thermal vibrational correction   ...      0.00977947 Eh       6.14 kcal/mol
Thermal rotational correction    ...      0.00141627 Eh       0.89 kcal/mol
Thermal translational correction ...      0.00141627 Eh       0.89 kcal/mol
-----------------------------------------------------------------------
Total thermal energy                   -743.83387085 Eh

Summary of corrections to the electronic energy:
(perhaps to be used in another calculation)
Total thermal correction                  0.01261201 Eh       7.91 kcal/mol
Non-thermal (ZPE) correction              0.19602404 Eh     123.01 kcal/mol
-----------------------------------------------------------------------
Total correction                          0.20863605 Eh     130.92 kcal/mol

--------
ENTHALPY
--------

The enthalpy is H = U + kB*T
                kB is Boltzmann's constant
Total thermal energy              ...   -743.83387085 Eh
Thermal Enthalpy correction       ...      0.00094421 Eh       0.59 kcal/mol
-----------------------------------------------------------------------
Total Enthalpy                    ...   -743.83292665 Eh

Note: Only C1 symmetry has been detected, increase convergence thresholds
      if your molecule has a higher symmetry. Symmetry factor of 1.0 is
      used for the rotational entropy correction.

Note: Rotational entropy computed according to Herzberg
Infrared and Raman Spectra, Chapter V,1, Van Nostrand Reinhold, 1945
Point Group:  C1, Symmetry Number:   1
Rotational constants in cm-1:     0.035279     0.011320     0.008572

Vibrational entropy computed according to the QRRHO of S. Grimme
Chem.Eur.J. 2012 18 9955 using a reference frequency of 100.0 cm-1

-------
ENTROPY
-------

The entropy contributions are T*S = T*(S(el)+S(vib)+S(rot)+S(trans))
     S(el)   - electronic entropy
     S(vib)  - vibrational entropy
     S(rot)  - rotational entropy
     S(trans)- translational entropy
The entropies will be listed as multiplied by the temperature to get
units of energy

                             ****ORCA TERMINATED NORMALLY****
TOTAL RUN TIME: 0 days 0 hours 57 minutes 28 seconds 683 msec
