                         Program Version 6.0.1  -  RELEASE   -
|  1> ! pbe def2-sv(p) def2/J RI DEFGRID1 loosescf d4 GCP(DFT/SV(P)) printgap
|  2> %output
|  3>     printlevel normal
|  4> end
|  5> * xyz 0 1
|  6> C -1.3909874414 0.6428475023 -0.4670179419
|  7> C -1.4884886096 -0.7735974208 0.0919987875
|  8> C -0.0352059652 -1.2394787992 0.0871703709
|  9> C 0.7863435533 0.0121651825 0.4608140321
| 10> C -0.1505898806 1.2117107992 0.223489117
| 11> O 1.9373595368 0.1704131038 -0.3423571002
| 12> H -2.2821962719 1.2367916928 -0.2707816475
| 13> H -1.2326530889 0.6005380602 -1.5451206498
| 14> H -1.8692924034 -0.7457869266 1.1145057823
| 15> H -2.1343327487 -1.4201155408 -0.5005915412
| 16> H 0.1432524521 -2.0724421119 0.7669236868
| 17> H 0.2477839406 -1.5458159412 -0.922098235
| 18> H 1.0899965712 -0.0317076747 1.5183293297
| 19> H -0.4200475466 1.6687898618 1.1750646107
| 20> H 0.3624071333 1.9536477424 -0.3848818314
| 21> H 2.4991083162 -0.6049713909 -0.2412643715
| 22> *
| 23>
| 24>                          ****END OF INPUT****

CARTESIAN COORDINATES (ANGSTROEM)
---------------------------------
  C     -1.390987    0.642848   -0.467018
  C     -1.488489   -0.773597    0.091999
  C     -0.035206   -1.239479    0.087170
  C      0.786344    0.012165    0.460814
  C     -0.150590    1.211711    0.223489
  O      1.937360    0.170413   -0.342357
  H     -2.282196    1.236792   -0.270782
  H     -1.232653    0.600538   -1.545121
  H     -1.869292   -0.745787    1.114506
  H     -2.134333   -1.420116   -0.500592
  H      0.143252   -2.072442    0.766924
  H      0.247784   -1.545816   -0.922098
  H      1.089997   -0.031708    1.518329
  H     -0.420048    1.668790    1.175065
  H      0.362407    1.953648   -0.384882
  H      2.499108   -0.604971   -0.241264

 Total Charge           Charge          ....    0
 Multiplicity           Mult            ....    1
 Number of Electrons    NEL             ....   48
 Basis Dimension        Dim             ....  104

ORBITAL ENERGIES
----------------

  NO   OCC          E(Eh)            E(eV)
   0   2.0000     -18.736704      -509.8516
   1   2.0000      -9.930552      -270.2241
   2   2.0000      -9.882288      -268.9107
   3   2.0000      -9.878774      -268.8151
   4   2.0000      -9.878521      -268.8082
   5   2.0000      -9.874415      -268.6965
   6   2.0000      -0.915998       -24.9256
   7   2.0000      -0.749788       -20.4028
   8   2.0000      -0.636407       -17.3175
   9   2.0000      -0.622020       -16.9260
  10   2.0000      -0.513184       -13.9644
  11   2.0000      -0.498248       -13.5580
  12   2.0000      -0.465684       -12.6719
  13   2.0000      -0.434474       -11.8226
  14   2.0000      -0.398443       -10.8422
  15   2.0000      -0.372124       -10.1260
  16   2.0000      -0.350197        -9.5293
  17   2.0000      -0.321556        -8.7500
  18   2.0000      -0.298479        -8.1220
  19   2.0000      -0.296388        -8.0651
  20   2.0000      -0.291707        -7.9378
  21   2.0000      -0.283683        -7.7194
  22   2.0000      -0.261297        -7.1102
  23   2.0000      -0.206088        -5.6079
  24   0.0000       0.027715         0.7542
  25   0.0000       0.043463         1.1827
  26   0.0000       0.053966         1.4685
  27   0.0000       0.086686         2.3589
  28   0.0000       0.103693         2.8216

MULLIKEN ATOMIC CHARGES
-----------------------
   0 C :   -0.172911
   1 C :   -0.183402
   2 C :   -0.131974
   3 C :    0.001406
   4 C :   -0.112133
   5 O :   -0.422380
   6 H :    0.088776
   7 H :    0.087615
   8 H :    0.084444
   9 H :    0.091122
  10 H :    0.082304
  11 H :    0.071091
  12 H :    0.050917
  13 H :    0.078726
  14 H :    0.093572
  15 H :    0.292826
Sum of atomic charges:    0.0000000

LOEWDIN ATOMIC CHARGES
----------------------
   0 C :   -0.228188
   1 C :   -0.228225
   2 C :   -0.248648
   3 C :   -0.051094
   4 C :   -0.232568
   5 O :   -0.331628
   6 H :    0.115916
   7 H :    0.118742
   8 H :    0.114942
   9 H :    0.116749
  10 H :    0.114400
  11 H :    0.118740
  12 H :    0.093509
  13 H :    0.119282
  14 H :    0.128056
  15 H :    0.280015

  Mayer bond orders larger than 0.100000
B(  0-C ,  1-C ) :   1.1154 B(  0-C ,  4-C ) :   1.1535 B(  0-C ,  6-H ) :   0.9282
B(  0-C ,  7-H ) :   0.9213 B(  1-C ,  2-C ) :   1.1385 B(  1-C ,  8-H ) :   0.9244
B(  1-C ,  9-H ) :   0.9262 B(  2-C ,  3-C ) :   1.1153 B(  2-C , 10-H ) :   0.9188
B(  2-C , 11-H ) :   0.8955 B(  3-C ,  4-C ) :   1.1088 B(  3-C ,  5-O ) :   1.0784
B(  3-C , 12-H ) :   0.9061 B(  4-C , 13-H ) :   0.9150 B(  4-C , 14-H ) :   0.9072
B(  5-O , 15-H ) :   0.8549

Dispersion correction           -0.012290873
FINAL SINGLE POINT ENERGY      -271.121155851684

DIPOLE MOMENT
-------------

Method             : SCF
Type of density    : Electron Density
Multiplicity       :   1
Irrep              :   0
Energy             :  -271.1837165034336294 Eh
Relativity type    :
Basis              : AO
                                X                 Y                 Z
Electronic contribution:      3.273754656       0.418058563      -0.384854391
Nuclear contribution   :     -3.344881712      -0.899117089       0.661099218
                        -----------------------------------------
Total Dipole Moment    :     -0.071127055      -0.481058525       0.276244827
                        -----------------------------------------
Magnitude (a.u.)       :      0.559274143
Magnitude (Debye)      :      1.421561899

Rotational constants in cm-1:             0.201278             0.106883             0.081184
Rotational constants in MHz :          6034.167523          3204.268648          2433.834011

                             ****ORCA TERMINATED NORMALLY****
TOTAL RUN TIME: 0 days 0 hours 0 minutes 15 seconds 726 msec
