                         Program Version 6.0.1  -  RELEASE   -
|  1> ! pbe def2-sv(p) def2/J RI DEFGRID1 loosescf d4 GCP(DFT/SV(P)) printgap
|  2> %output
|  3>     printlevel normal
|  4> end
|  5> * xyz 0 1
|  6> C 1.6060326391 -0.9028547671 -0.0069124228
|  7> C 0.4322339389 0.0115460736 0.3300938938
|  8> C 0.7164577378 1.4481840682 -0.1164480501
|  9> O -0.7052600618 -0.541027843 -0.3119338945
| 10> C -1.9385598374 -0.0286657969 0.1145833758
| 11> H 1.379247243 -1.9212742128 0.2956606121
| 12> H 1.7785358803 -0.8929261966 -1.0794891649
| 13> H 2.5040308194 -0.5687225662 0.5048771837
| 14> H 0.2634260427 0.0037370698 1.421994396
| 15> H -0.0809428111 2.1207602239 0.1902764322
| 16> H 0.8074755478 1.4831911505 -1.1994416448
| 17> H 1.6456596402 1.7931895402 0.3285718918
| 18> H -2.0886095998 1.0102102947 -0.2010364669
| 19> H -2.0358851496 -0.0828244804 1.2068737004
| 20> H -2.7037578504 -0.6516652271 -0.3457359858
| 21> *
| 22>
| 23>                          ****END OF INPUT****

CARTESIAN COORDINATES (ANGSTROEM)
---------------------------------
  C      1.606033   -0.902855   -0.006912
  C      0.432234    0.011546    0.330094
  C      0.716458    1.448184   -0.116448
  O     -0.705260   -0.541028   -0.311934
  C     -1.938560   -0.028666    0.114583
  H      1.379247   -1.921274    0.295661
  H      1.778536   -0.892926   -1.079489
  H      2.504031   -0.568723    0.504877
  H      0.263426    0.003737    1.421994
  H     -0.080943    2.120760    0.190276
  H      0.807476    1.483191   -1.199442
  H      1.645660    1.793190    0.328572
  H     -2.088610    1.010210   -0.201036
  H     -2.035885   -0.082824    1.206874
  H     -2.703758   -0.651665   -0.345736

 Total Charge           Charge          ....    0
 Multiplicity           Mult            ....    1
 Number of Electrons    NEL             ....   42
 Basis Dimension        Dim             ....   90

ORBITAL ENERGIES
----------------

  NO   OCC          E(Eh)            E(eV)
   0   2.0000     -18.745497      -510.0909
   1   2.0000      -9.937019      -270.4000
   2   2.0000      -9.920625      -269.9539
   3   2.0000      -9.873768      -268.6789
   4   2.0000      -9.870616      -268.5931
   5   2.0000      -0.929509       -25.2932
   6   2.0000      -0.702306       -19.1107
   7   2.0000      -0.619118       -16.8471
   8   2.0000      -0.599194       -16.3049
   9   2.0000      -0.510715       -13.8973
  10   2.0000      -0.445624       -12.1260
  11   2.0000      -0.413110       -11.2413
  12   2.0000      -0.403723       -10.9859
  13   2.0000      -0.376871       -10.2552
  14   2.0000      -0.351800        -9.5730
  15   2.0000      -0.342897        -9.3307
  16   2.0000      -0.333545        -9.0762
  17   2.0000      -0.305483        -8.3126
  18   2.0000      -0.300764        -8.1842
  19   2.0000      -0.256412        -6.9773
  20   2.0000      -0.201250        -5.4763
  21   0.0000       0.035980         0.9791
  22   0.0000       0.065550         1.7837
  23   0.0000       0.075006         2.0410
  24   0.0000       0.093412         2.5419
  25   0.0000       0.101576         2.7640

MULLIKEN ATOMIC CHARGES
-----------------------
   0 C :   -0.237701
   1 C :   -0.009898
   2 C :   -0.266792
   3 O :   -0.327708
   4 C :   -0.105004
   5 H :    0.105947
   6 H :    0.101704
   7 H :    0.095952
   8 H :    0.056055
   9 H :    0.105126
  10 H :    0.102588
  11 H :    0.098710
  12 H :    0.088278
  13 H :    0.080477
  14 H :    0.112267
Sum of atomic charges:   -0.0000000

LOEWDIN ATOMIC CHARGES
----------------------
   0 C :   -0.339637
   1 C :   -0.053532
   2 C :   -0.351593
   3 O :   -0.171930
   4 C :   -0.209858
   5 H :    0.122482
   6 H :    0.122633
   7 H :    0.121145
   8 H :    0.092999
   9 H :    0.117520
  10 H :    0.122971
  11 H :    0.123709
  12 H :    0.093706
  13 H :    0.094751
  14 H :    0.114633

  Mayer bond orders larger than 0.100000
B(  0-C ,  1-C ) :   1.1145 B(  0-C ,  5-H ) :   0.9469 B(  0-C ,  6-H ) :   0.9477
B(  0-C ,  7-H ) :   0.9467 B(  1-C ,  2-C ) :   1.1013 B(  1-C ,  3-O ) :   1.0190
B(  1-C ,  8-H ) :   0.9031 B(  2-C ,  9-H ) :   0.9438 B(  2-C , 10-H ) :   0.9426
B(  2-C , 11-H ) :   0.9439 B(  3-O ,  4-C ) :   1.0294 B(  4-C , 12-H ) :   0.9396
B(  4-C , 13-H ) :   0.9390 B(  4-C , 14-H ) :   0.9637

Dispersion correction           -0.009465909
FINAL SINGLE POINT ENERGY      -233.088826310784

DIPOLE MOMENT
-------------

Method             : SCF
Type of density    : Electron Density
Multiplicity       :   1
Irrep              :   0
Energy             :  -233.1473252098237197 Eh
Relativity type    :
Basis              : AO
                                X                 Y                 Z
Electronic contribution:     -1.403989117      -1.834083883      -0.752077069
Nuclear contribution   :      1.367865116       2.143814418       1.048507500
                        -----------------------------------------
Total Dipole Moment    :     -0.036124001       0.309730535       0.296430431
                        -----------------------------------------
Magnitude (a.u.)       :      0.430242894
Magnitude (Debye)      :      1.093590527

Rotational constants in cm-1:             0.255608             0.126475             0.094019
Rotational constants in MHz :          7662.929697          3791.619897          2818.612116

                             ****ORCA TERMINATED NORMALLY****
TOTAL RUN TIME: 0 days 0 hours 0 minutes 12 seconds 521 msec
