                         Program Version 6.0.1  -  RELEASE   -
|  1> ! pbe def2-sv(p) def2/J RI DEFGRID1 loosescf d4 GCP(DFT/SV(P)) printgap
|  2> %output
|  3>     printlevel normal
|  4> end
|  5> * xyz 0 1
|  6> C -2.2332687215 0.2538568227 0.3600376521
|  7> C -0.9786663392 0.2486519437 -0.5115894876
|  8> C 0.0013561113 -0.7806343752 -0.0400137413
|  9> C 1.2925149603 -0.5891932677 0.1818755965
| 10> C 2.0280480866 0.7034155123 -0.007110929
| 11> H -2.7165230297 -0.7208094205 0.3411769616
| 12> H -2.9431166065 0.9970146635 0.0033718726
| 13> H -1.9761697125 0.4884975724 1.390810503
| 14> H -1.265079528 0.0187722558 -1.5433092632
| 15> H -0.5249956686 1.2395470196 -0.5016620681
| 16> H -0.4238051363 -1.7620448593 0.1284705379
| 17> H 1.8898929324 -1.418688719 0.5362059746
| 18> H 1.7934215815 1.1515826413 -0.9708660065
| 19> H 3.1015121675 0.5424722349 0.0451457234
| 20> H 1.7541982547 1.416869537 0.770869796
| 21> *
| 22>
| 23>                          ****END OF INPUT****

CARTESIAN COORDINATES (ANGSTROEM)
---------------------------------
  C     -2.233269    0.253857    0.360038
  C     -0.978666    0.248652   -0.511589
  C      0.001356   -0.780634   -0.040014
  C      1.292515   -0.589193    0.181876
  C      2.028048    0.703416   -0.007111
  H     -2.716523   -0.720809    0.341177
  H     -2.943117    0.997015    0.003372
  H     -1.976170    0.488498    1.390811
  H     -1.265080    0.018772   -1.543309
  H     -0.524996    1.239547   -0.501662
  H     -0.423805   -1.762045    0.128471
  H      1.889893   -1.418689    0.536206
  H      1.793422    1.151583   -0.970866
  H      3.101512    0.542472    0.045146
  H      1.754198    1.416870    0.770870

 Total Charge           Charge          ....    0
 Multiplicity           Mult            ....    1
 Number of Electrons    NEL             ....   40
 Basis Dimension        Dim             ....   90

ORBITAL ENERGIES
----------------

  NO   OCC          E(Eh)            E(eV)
   0   2.0000      -9.885104      -268.9874
   1   2.0000      -9.879500      -268.8348
   2   2.0000      -9.877182      -268.7718
   3   2.0000      -9.876502      -268.7533
   4   2.0000      -9.874526      -268.6995
   5   2.0000      -0.722956       -19.6726
   6   2.0000      -0.672260       -18.2931
   7   2.0000      -0.605004       -16.4630
   8   2.0000      -0.546268       -14.8647
   9   2.0000      -0.466235       -12.6869
  10   2.0000      -0.427677       -11.6377
  11   2.0000      -0.388876       -10.5819
  12   2.0000      -0.380566       -10.3557
  13   2.0000      -0.364384        -9.9154
  14   2.0000      -0.334754        -9.1091
  15   2.0000      -0.324591        -8.8326
  16   2.0000      -0.318145        -8.6572
  17   2.0000      -0.298010        -8.1093
  18   2.0000      -0.278620        -7.5816
  19   2.0000      -0.208321        -5.6687
  20   0.0000      -0.008218        -0.2236
  21   0.0000       0.043759         1.1908
  22   0.0000       0.065036         1.7697
  23   0.0000       0.070750         1.9252
  24   0.0000       0.093314         2.5392

MULLIKEN ATOMIC CHARGES
-----------------------
   0 C :   -0.296836
   1 C :   -0.126005
   2 C :   -0.131958
   3 C :   -0.163717
   4 C :   -0.242146
   5 H :    0.103010
   6 H :    0.102334
   7 H :    0.107214
   8 H :    0.097696
   9 H :    0.086966
  10 H :    0.057618
  11 H :    0.065217
  12 H :    0.119395
  13 H :    0.101853
  14 H :    0.119359
Sum of atomic charges:   -0.0000000

LOEWDIN ATOMIC CHARGES
----------------------
   0 C :   -0.336206
   1 C :   -0.231394
   2 C :   -0.148375
   3 C :   -0.158959
   4 C :   -0.343127
   5 H :    0.117193
   6 H :    0.118110
   7 H :    0.119684
   8 H :    0.126015
   9 H :    0.119009
  10 H :    0.116586
  11 H :    0.117646
  12 H :    0.128163
  13 H :    0.124394
  14 H :    0.131261

  Mayer bond orders larger than 0.100000
B(  0-C ,  1-C ) :   1.1298 B(  0-C ,  5-H ) :   0.9572 B(  0-C ,  6-H ) :   0.9516
B(  0-C ,  7-H ) :   0.9585 B(  1-C ,  2-C ) :   1.0854 B(  1-C ,  8-H ) :   0.9087
B(  1-C ,  9-H ) :   0.9126 B(  2-C ,  3-C ) :   2.0060 B(  2-C , 10-H ) :   0.9286
B(  3-C ,  4-C ) :   1.1114 B(  3-C , 11-H ) :   0.9301 B(  4-C , 12-H ) :   0.9394
B(  4-C , 13-H ) :   0.9464 B(  4-C , 14-H ) :   0.9359

Dispersion correction           -0.009769468
FINAL SINGLE POINT ENERGY      -196.029137532253

DIPOLE MOMENT
-------------

Method             : SCF
Type of density    : Electron Density
Multiplicity       :   1
Irrep              :   0
Energy             :  -196.0771951126291412 Eh
Relativity type    :
Basis              : AO
                                X                 Y                 Z
Electronic contribution:      1.212829179      -1.716497778      -0.220861203
Nuclear contribution   :     -1.229617221       1.832432175       0.187833404
                        -----------------------------------------
Total Dipole Moment    :     -0.016788042       0.115934398      -0.033027798
                        -----------------------------------------
Magnitude (a.u.)       :      0.121710552
Magnitude (Debye)      :      0.309363637

Rotational constants in cm-1:             0.394255             0.086875             0.078723
Rotational constants in MHz :         11819.467352          2604.445469          2360.066936

                             ****ORCA TERMINATED NORMALLY****
TOTAL RUN TIME: 0 days 0 hours 0 minutes 5 seconds 750 msec
