                         Program Version 6.0.1  -  RELEASE   -
|  1> ! pbe def2-sv(p) def2/J RI DEFGRID1 loosescf d4 GCP(DFT/SV(P)) printgap
|  2> %output
|  3>     printlevel normal
|  4> end
|  5> * xyz 0 1
|  6> C -1.9306906956 -1.1948237267 -0.2744086375
|  7> C -1.0034160326 -0.498573003 0.7681653901
|  8> H -1.4917310608 -0.529728187 1.7481420059
|  9> C -0.7473275716 0.9977658479 0.4682657129
| 10> H -1.6471137151 1.3982646675 -0.0126791423
| 11> C 0.4624411643 1.2194214131 -0.4605711157
| 12> H 0.7362987194 2.280508537 -0.3843169664
| 13> C 1.6574604363 0.361803965 0.0181858378
| 14> H 2.5089465456 0.492867935 -0.6630986139
| 15> C 1.2297793087 -1.1172358494 0.0458804358
| 16> H 2.0388670171 -1.7331497898 0.4627212155
| 17> O 0.1901602184 -1.2511058661 0.9884573997
| 18> O 0.9679243728 -1.6296986437 -1.2106851252
| 19> O 2.0521548915 0.7594500556 1.3113820189
| 20> O 0.1016796171 0.8980137644 -1.795412238
| 21> O -0.5901025502 1.7448813971 1.6450458056
| 22> O -2.4400604719 -0.3641236507 -1.2821393455
| 23> H -2.8101132307 -1.5867340354 0.2402427639
| 24> H -1.3840754897 -2.0469736979 -0.6986243661
| 25> H 0.4107461166 -1.0015654312 -1.6999308838
| 26> H 1.771563008 0.0702984507 1.9316395781
| 27> H 0.7486793178 1.2760045766 -2.4008752862
| 28> H 0.3113562644 1.6216190152 1.9779176145
| 29> H -1.7125605247 0.0201871622 -1.7899705736
| 30> *
| 31>
| 32>                          ****END OF INPUT****

CARTESIAN COORDINATES (ANGSTROEM)
---------------------------------
  C     -1.930691   -1.194824   -0.274409
  C     -1.003416   -0.498573    0.768165
  H     -1.491731   -0.529728    1.748142
  C     -0.747328    0.997766    0.468266
  H     -1.647114    1.398265   -0.012679
  C      0.462441    1.219421   -0.460571
  H      0.736299    2.280509   -0.384317
  C      1.657460    0.361804    0.018186
  H      2.508947    0.492868   -0.663099
  C      1.229779   -1.117236    0.045880
  H      2.038867   -1.733150    0.462721
  O      0.190160   -1.251106    0.988457
  O      0.967924   -1.629699   -1.210685
  O      2.052155    0.759450    1.311382
  O      0.101680    0.898014   -1.795412
  O     -0.590103    1.744881    1.645046
  O     -2.440060   -0.364124   -1.282139
  H     -2.810113   -1.586734    0.240243
  H     -1.384075   -2.046974   -0.698624
  H      0.410746   -1.001565   -1.699931
  H      1.771563    0.070298    1.931640
  H      0.748679    1.276005   -2.400875
  H      0.311356    1.621619    1.977918
  H     -1.712561    0.020187   -1.789971

 Total Charge           Charge          ....    0
 Multiplicity           Mult            ....    1
 Number of Electrons    NEL             ....   96
 Basis Dimension        Dim             ....  192

ORBITAL ENERGIES
----------------

  NO   OCC          E(Eh)            E(eV)
   0   2.0000     -18.814377      -511.9652
   1   2.0000     -18.782917      -511.1092
   2   2.0000     -18.776917      -510.9459
   3   2.0000     -18.765359      -510.6314
   4   2.0000     -18.747308      -510.1402
   5   2.0000     -18.742091      -509.9982
   6   2.0000      -9.998161      -272.0638
   7   2.0000      -9.969788      -271.2917
   8   2.0000      -9.962590      -271.0958
   9   2.0000      -9.949624      -270.7430
  10   2.0000      -9.944249      -270.5968
  11   2.0000      -9.927522      -270.1416
  12   2.0000      -0.998872       -27.1807
  13   2.0000      -0.976911       -26.5831
  14   2.0000      -0.956187       -26.0192
  15   2.0000      -0.931643       -25.3513
  16   2.0000      -0.921430       -25.0734
  17   2.0000      -0.917034       -24.9538
  18   2.0000      -0.714176       -19.4337
  19   2.0000      -0.697502       -18.9800
  20   2.0000      -0.625206       -17.0127
  21   2.0000      -0.604355       -16.4453
  22   2.0000      -0.583044       -15.8654
  23   2.0000      -0.538252       -14.6466
  24   2.0000      -0.527311       -14.3489
  25   2.0000      -0.502030       -13.6609
  26   2.0000      -0.485576       -13.2132
  27   2.0000      -0.462276       -12.5792
  28   2.0000      -0.458210       -12.4685
  29   2.0000      -0.447898       -12.1879
  30   2.0000      -0.428763       -11.6672
  31   2.0000      -0.407792       -11.0966
  32   2.0000      -0.400987       -10.9114
  33   2.0000      -0.377071       -10.2606
  34   2.0000      -0.370475       -10.0811
  35   2.0000      -0.353999        -9.6328
  36   2.0000      -0.349791        -9.5183
  37   2.0000      -0.332877        -9.0580
  38   2.0000      -0.319664        -8.6985
  39   2.0000      -0.307977        -8.3805
  40   2.0000      -0.299441        -8.1482
  41   2.0000      -0.287038        -7.8107
  42   2.0000      -0.269731        -7.3397
  43   2.0000      -0.256732        -6.9860
  44   2.0000      -0.249804        -6.7975
  45   2.0000      -0.228390        -6.2148
  46   2.0000      -0.223457        -6.0806
  47   2.0000      -0.202512        -5.5106
  48   0.0000      -0.019430        -0.5287
  49   0.0000       0.017187         0.4677
  50   0.0000       0.041755         1.1362
  51   0.0000       0.052216         1.4209
  52   0.0000       0.061500         1.6735

MULLIKEN ATOMIC CHARGES
-----------------------
   0 C :    0.016098
   1 C :    0.014366
   2 H :    0.083805
   3 C :    0.040171
   4 H :    0.093680
   5 C :    0.004294
   6 H :    0.097211
   7 C :    0.021931
   8 H :    0.076501
   9 C :    0.168816
  10 H :    0.083121
  11 O :   -0.317852
  12 O :   -0.392365
  13 O :   -0.414637
  14 O :   -0.428963
  15 O :   -0.418217
  16 O :   -0.433320
  17 H :    0.087867
  18 H :    0.095381
  19 H :    0.298912
  20 H :    0.310719
  21 H :    0.327796
  22 H :    0.285729
  23 H :    0.298955
Sum of atomic charges:   -0.0000000

LOEWDIN ATOMIC CHARGES
----------------------
   0 C :   -0.145605
   1 C :   -0.080184
   2 H :    0.125781
   3 C :   -0.074079
   4 H :    0.125792
   5 C :   -0.077645
   6 H :    0.117158
   7 C :   -0.094547
   8 H :    0.109883
   9 C :   -0.014227
  10 H :    0.110917
  11 O :   -0.150044
  12 O :   -0.297333
  13 O :   -0.306251
  14 O :   -0.302373
  15 O :   -0.314169
  16 O :   -0.334784
  17 H :    0.117634
  18 H :    0.102569
  19 H :    0.265245
  20 H :    0.282600
  21 H :    0.304352
  22 H :    0.266243
  23 H :    0.263069

  Mayer bond orders larger than 0.100000
B(  0-C ,  1-C ) :   0.9825 B(  0-C , 16-O ) :   1.1145 B(  0-C , 17-H ) :   0.9206
B(  0-C , 18-H ) :   0.9137 B(  1-C ,  2-H ) :   0.8928 B(  1-C ,  3-C ) :   1.0133
B(  1-C , 11-O ) :   0.9782 B(  3-C ,  4-H ) :   0.8726 B(  3-C ,  5-C ) :   0.9975
B(  3-C , 15-O ) :   1.0639 B(  5-C ,  6-H ) :   0.9042 B(  5-C ,  7-C ) :   0.9563
B(  5-C , 14-O ) :   0.9780 B(  7-C ,  8-H ) :   0.8985 B(  7-C ,  9-C ) :   1.0001
B(  7-C , 13-O ) :   1.0555 B(  9-C , 10-H ) :   0.9120 B(  9-C , 11-O ) :   1.0194
B(  9-C , 12-O ) :   1.1485 B( 12-O , 19-H ) :   0.7871 B( 13-O , 20-H ) :   0.8134
B( 13-O , 22-H ) :   0.1064 B( 14-O , 19-H ) :   0.1148 B( 14-O , 21-H ) :   0.8307
B( 15-O , 22-H ) :   0.8141 B( 16-O , 23-H ) :   0.8097

Dispersion correction           -0.026760777
FINAL SINGLE POINT ENERGY      -685.690138743564

DIPOLE MOMENT
-------------

Method             : SCF
Type of density    : Electron Density
Multiplicity       :   1
Irrep              :   0
Energy             :  -685.8278335913665842 Eh
Relativity type    :
Basis              : AO
                                X                 Y                 Z
Electronic contribution:      1.524352895       0.174888681       0.686915374
Nuclear contribution   :     -0.482864778       0.247756609      -1.214230861
                        -----------------------------------------
Total Dipole Moment    :      1.041488117       0.422645290      -0.527315487
                        -----------------------------------------
Magnitude (a.u.)       :      1.241526545
Magnitude (Debye)      :      3.155709689

Rotational constants in cm-1:             0.040055             0.031254             0.027283
Rotational constants in MHz :          1200.813316           936.969311           817.931260

                             ****ORCA TERMINATED NORMALLY****
TOTAL RUN TIME: 0 days 0 hours 0 minutes 11 seconds 873 msec
