                         Program Version 6.0.0  -   RELEASE  -
|  1> ! r2SCAN-3c DEF2-TZVP FREQ
|  2> * xyzfile 0 1 censo.xyz
|  3>
|  4>                          ****END OF INPUT****

CARTESIAN COORDINATES (ANGSTROEM)
---------------------------------
  C     -1.446562    0.052587   -0.002852
  C      0.037935   -0.085741   -0.004933
  O      0.654313   -1.137238   -0.002189
  O      0.662892    1.116563    0.001113
  H     -1.760818    0.489520    0.950790
  H     -1.763119    0.735732   -0.795325
  H     -1.913612   -0.922645   -0.130869
  H      1.623189    0.961328    0.014145

 Total Charge           Charge          ....    0
 Multiplicity           Mult            ....    1
 Number of Electrons    NEL             ....   32
 Basis Dimension        Dim             ....  148

ORBITAL ENERGIES
----------------

  NO   OCC          E(Eh)            E(eV)
   0   2.0000     -19.005057      -517.1539
   1   2.0000     -18.940784      -515.4049
   2   2.0000     -10.168863      -276.7088
   3   2.0000     -10.049524      -273.4615
   4   2.0000      -1.071384       -29.1538
   5   2.0000      -0.978749       -26.6331
   6   2.0000      -0.732501       -19.9324
   7   2.0000      -0.586130       -15.9494
   8   2.0000      -0.462089       -12.5741
   9   2.0000      -0.444743       -12.1021
  10   2.0000      -0.442047       -12.0287
  11   2.0000      -0.386150       -10.5077
  12   2.0000      -0.365546        -9.9470
  13   2.0000      -0.363873        -9.9015
  14   2.0000      -0.296457        -8.0670
  15   2.0000      -0.246590        -6.7101
  16   0.0000      -0.027756        -0.7553
  17   0.0000       0.036263         0.9868
  18   0.0000       0.070547         1.9197
  19   0.0000       0.118316         3.2195
  20   0.0000       0.127839         3.4787

MULLIKEN ATOMIC CHARGES
-----------------------
   0 C :   -0.302733
   1 C :    0.314735
   2 O :   -0.353806
   3 O :   -0.379438
   4 H :    0.130028
   5 H :    0.129100
   6 H :    0.135563
   7 H :    0.326551
Sum of atomic charges:   -0.0000000

LOEWDIN ATOMIC CHARGES
----------------------
   0 C :   -0.258718
   1 C :   -0.525172
   2 O :    0.076804
   3 O :    0.090545
   4 H :    0.143415
   5 H :    0.139413
   6 H :    0.137055
   7 H :    0.196658

  Mayer bond orders larger than 0.100000
B(  0-C ,  1-C ) :   0.9839 B(  0-C ,  4-H ) :   0.9419 B(  0-C ,  5-H ) :   0.9466
B(  0-C ,  6-H ) :   0.9744 B(  1-C ,  2-O ) :   2.0275 B(  1-C ,  3-O ) :   1.1769
B(  3-O ,  7-H ) :   0.8603

Dispersion correction           -0.001207377
FINAL SINGLE POINT ENERGY      -229.064813723260

DIPOLE MOMENT
-------------

Method             : SCF
Type of density    : Electron Density
Multiplicity       :   1
Irrep              :   0
Energy             :  -229.0686664168895845 Eh
Relativity type    :
Basis              : AO
                                X                 Y                 Z
Electronic contribution:      3.253973329      -0.495903923      -0.024736540
Nuclear contribution   :     -3.578592895       1.151158699       0.040842240
                        -----------------------------------------
Total Dipole Moment    :     -0.324619566       0.655254776       0.016105701
                        -----------------------------------------
Magnitude (a.u.)       :      0.731434260
Magnitude (Debye)      :      1.859158140

VIBRATIONAL FREQUENCIES
-----------------------

Scaling factor for frequencies =  1.000000000  (already applied!)

     0:       0.00 cm**-1
     1:       0.00 cm**-1
     2:       0.00 cm**-1
     3:       0.00 cm**-1
     4:       0.00 cm**-1
     5:       0.00 cm**-1
     6:     103.82 cm**-1
     7:     432.38 cm**-1
     8:     571.83 cm**-1
     9:     594.64 cm**-1
    10:     684.99 cm**-1
    11:     871.76 cm**-1
    12:    1000.44 cm**-1
    13:    1063.94 cm**-1
    14:    1203.73 cm**-1
    15:    1331.18 cm**-1
    16:    1403.28 cm**-1
    17:    1460.59 cm**-1
    18:    1470.59 cm**-1
    19:    1745.01 cm**-1
    20:    3030.75 cm**-1
    21:    3102.41 cm**-1
    22:    3155.15 cm**-1
    23:    3695.01 cm**-1

IR SPECTRUM
-----------

 Mode   freq       eps      Int      T**2         TX        TY        TZ
       cm**-1   L/(mol*cm) km/mol    a.u.
----------------------------------------------------------------------------
  6:    103.82   0.000058    0.29  0.000174  ( 0.000436  0.003869 -0.012618)
  7:    432.38   0.001011    5.11  0.000729  ( 0.002135  0.026813  0.002445)
  8:    571.83   0.003635   18.37  0.001983  (-0.009047 -0.004673 -0.043356)
  9:    594.64   0.006652   33.62  0.003491  (-0.052493 -0.025641  0.008833)
 10:    684.99   0.020372  102.95  0.009281  (-0.000511 -0.000089  0.096337)
 11:    871.76   0.000730    3.69  0.000261  (-0.006091  0.014901  0.001429)
 12:   1000.44   0.012755   64.46  0.003979  ( 0.038141  0.050236  0.000439)
 13:   1063.94   0.001353    6.84  0.000397  (-0.003491  0.000505  0.019604)
 14:   1203.73   0.039395  199.09  0.010213  (-0.061781 -0.079976  0.000167)
 15:   1331.18   0.007706   38.95  0.001807  ( 0.021023  0.036936  0.000620)
 16:   1403.28   0.013517   68.31  0.003006  (-0.048890 -0.024622  0.003069)
 17:   1460.59   0.003929   19.85  0.000839  (-0.013932  0.025369 -0.001314)
 18:   1470.59   0.002188   11.06  0.000464  (-0.001371 -0.005717 -0.020732)
 19:   1745.01   0.062337  315.03  0.011148  (-0.043023  0.096419  0.000432)
 20:   3030.75   0.000317    1.60  0.000033  (-0.004494  0.003443  0.000787)
 21:   3102.41   0.000691    3.49  0.000070  ( 0.002284 -0.001202  0.007928)
 22:   3155.15   0.000836    4.22  0.000083  ( 0.003236  0.008497 -0.000056)
 23:   3695.01   0.010578   53.46  0.000893  (-0.029413 -0.005303 -0.000376)

--------------------------
THERMOCHEMISTRY AT 298.15K
--------------------------

Temperature         ...   298.15 K
Pressure            ...     1.00 atm
Total Mass          ...    60.05 AMU
Quasi RRHO          ...     True
Cut-Off Frequency   ...     1.00 cm^-1

Throughout the following assumptions are being made:
  (1) The electronic state is orbitally nondegenerate
  (2) There are no thermally accessible electronically excited states
  (3) Hindered rotations indicated by low frequency modes are not
      treated as such but are treated as vibrations and this may
      cause some error
  (4) All equations used are the standard statistical mechanics
      equations for an ideal gas
  (5) All vibrations are strictly harmonic

freq.     103.82  E(vib)   ...       0.46
freq.     432.38  E(vib)   ...       0.18
freq.     571.83  E(vib)   ...       0.11
freq.     594.64  E(vib)   ...       0.10
freq.     684.99  E(vib)   ...       0.07
freq.     871.76  E(vib)   ...       0.04
freq.    1000.44  E(vib)   ...       0.02
freq.    1063.94  E(vib)   ...       0.02
freq.    1203.73  E(vib)   ...       0.01
freq.    1331.18  E(vib)   ...       0.01
freq.    1403.28  E(vib)   ...       0.00
freq.    1460.59  E(vib)   ...       0.00
freq.    1470.59  E(vib)   ...       0.00
freq.    1745.01  E(vib)   ...       0.00
freq.    3030.75  E(vib)   ...       0.00
freq.    3102.41  E(vib)   ...       0.00
freq.    3155.15  E(vib)   ...       0.00
freq.    3695.01  E(vib)   ...       0.00

------------
INNER ENERGY
------------

The inner energy is: U= E(el) + E(ZPE) + E(vib) + E(rot) + E(trans)
    E(el)   - is the total energy from the electronic structure calculation
              = E(kin-el) + E(nuc-el) + E(el-el) + E(nuc-nuc)
    E(ZPE)  - the the zero temperature vibrational energy from the frequency calculation
    E(vib)  - the the finite temperature correction to E(ZPE) due to population
              of excited vibrational states
    E(rot)  - is the rotational thermal energy
    E(trans)- is the translational thermal energy

Summary of contributions to the inner energy U:
Electronic energy                ...   -229.06481372 Eh
Zero point energy                ...      0.06133169 Eh      38.49 kcal/mol
Thermal vibrational correction   ...      0.00163687 Eh       1.03 kcal/mol
Thermal rotational correction    ...      0.00141627 Eh       0.89 kcal/mol
Thermal translational correction ...      0.00141627 Eh       0.89 kcal/mol
-----------------------------------------------------------------------
Total thermal energy                   -228.99901262 Eh

Summary of corrections to the electronic energy:
(perhaps to be used in another calculation)
Total thermal correction                  0.00446942 Eh       2.80 kcal/mol
Non-thermal (ZPE) correction              0.06133169 Eh      38.49 kcal/mol
-----------------------------------------------------------------------
Total correction                          0.06580110 Eh      41.29 kcal/mol

--------
ENTHALPY
--------

The enthalpy is H = U + kB*T
                kB is Boltzmann's constant
Total thermal energy              ...   -228.99901262 Eh
Thermal Enthalpy correction       ...      0.00094421 Eh       0.59 kcal/mol
-----------------------------------------------------------------------
Total Enthalpy                    ...   -228.99806841 Eh

Note: Only C1 symmetry has been detected, increase convergence thresholds
      if your molecule has a higher symmetry. Symmetry factor of 1.0 is
      used for the rotational entropy correction.

Note: Rotational entropy computed according to Herzberg
Infrared and Raman Spectra, Chapter V,1, Van Nostrand Reinhold, 1945
Point Group:  C1, Symmetry Number:   1
Rotational constants in cm-1:     0.375491     0.316846     0.177512

Vibrational entropy computed according to the QRRHO of S. Grimme
Chem.Eur.J. 2012 18 9955 using a reference frequency of 100.0 cm-1

-------
ENTROPY
-------

The entropy contributions are T*S = T*(S(el)+S(vib)+S(rot)+S(trans))
     S(el)   - electronic entropy
     S(vib)  - vibrational entropy
     S(rot)  - rotational entropy
     S(trans)- translational entropy
The entropies will be listed as multiplied by the temperature to get
units of energy

Electronic entropy                ...      0.00000000 Eh      0.00 kcal/mol
Vibrational entropy               ...      0.00270511 Eh      1.70 kcal/mol
Rotational entropy                ...      0.01133194 Eh      7.11 kcal/mol
Translational entropy             ...      0.01814900 Eh     11.39 kcal/mol
-----------------------------------------------------------------------
Final entropy term                ...      0.03218605 Eh     20.20 kcal/mol

In case the symmetry of your molecule has not been determined correctly
or in case you have a reason to use a different symmetry number we print
out the resulting rotational entropy values for sn=1,12:

 non-linear molecules -----------------------------------
|  sn= 1 | S(rot)=       0.01133194 Eh      7.11 kcal/mol|
|  sn= 2 | S(rot)=       0.01067748 Eh      6.70 kcal/mol|
|  sn= 3 | S(rot)=       0.01029465 Eh      6.46 kcal/mol|
|  sn= 4 | S(rot)=       0.01002302 Eh      6.29 kcal/mol|
|  sn= 5 | S(rot)=       0.00981233 Eh      6.16 kcal/mol|
|  sn= 6 | S(rot)=       0.00964019 Eh      6.05 kcal/mol|
|  sn= 7 | S(rot)=       0.00949464 Eh      5.96 kcal/mol|
|  sn= 8 | S(rot)=       0.00936857 Eh      5.88 kcal/mol|
|  sn= 9 | S(rot)=       0.00925736 Eh      5.81 kcal/mol|
|  sn=10 | S(rot)=       0.00915788 Eh      5.75 kcal/mol|
|  sn=11 | S(rot)=       0.00906789 Eh      5.69 kcal/mol|
|  sn=12 | S(rot)=       0.00898573 Eh      5.64 kcal/mol|
 linear molecules ---------------------------------------
|  Dinfh | S(rot)=       0.00695803 Eh      4.37 kcal/mol|
|  Cinfv | S(rot)=       0.00761249 Eh      4.78 kcal/mol|
 --------------------------------------------------------

-------------------
GIBBS FREE ENERGY
-------------------

The Gibbs free energy is G = H - T*S

Total enthalpy                    ...   -228.99806841 Eh
Total entropy correction          ...     -0.03218605 Eh    -20.20 kcal/mol
-----------------------------------------------------------------------
Final Gibbs free energy         ...   -229.03025446 Eh

For completeness - the Gibbs free energy minus the electronic energy
G-E(el)                           ...      0.03455926 Eh     21.69 kcal/mol

                             ****ORCA TERMINATED NORMALLY****
TOTAL RUN TIME: 0 days 0 hours 1 minutes 47 seconds 784 msec
