                         Program Version 6.0.0  -   RELEASE  -
|  1> ! r2SCAN-3c DEF2-TZVP FREQ
|  2> * xyzfile 0 1 vacuum_censo.xyz
|  3>
|  4>                          ****END OF INPUT****

CARTESIAN COORDINATES (ANGSTROEM)
---------------------------------
  C     -1.450406    0.052659   -0.000153
  C      0.042564   -0.096859   -0.000361
  O      0.654956   -1.136699   -0.000248
  O      0.658626    1.118300    0.000064
  H     -1.765464    0.626025   -0.876484
  H     -1.915115   -0.931690   -0.006819
  H     -1.765540    0.613234    0.884488
  H      1.612421    0.941770    0.000693

 Total Charge           Charge          ....    0
 Multiplicity           Mult            ....    1
 Number of Electrons    NEL             ....   32
 Basis Dimension        Dim             ....  148

ORBITAL ENERGIES
----------------

  NO   OCC          E(Eh)            E(eV)
   0   2.0000     -19.003208      -517.1036
   1   2.0000     -18.943435      -515.4771
   2   2.0000     -10.169561      -276.7278
   3   2.0000     -10.050297      -273.4825
   4   2.0000      -1.072408       -29.1817
   5   2.0000      -0.984644       -26.7935
   6   2.0000      -0.730610       -19.8809
   7   2.0000      -0.581979       -15.8364
   8   2.0000      -0.462538       -12.5863
   9   2.0000      -0.446171       -12.1409
  10   2.0000      -0.442078       -12.0295
  11   2.0000      -0.385332       -10.4854
  12   2.0000      -0.367234        -9.9929
  13   2.0000      -0.365863        -9.9556
  14   2.0000      -0.299033        -8.1371
  15   2.0000      -0.249857        -6.7989
  16   0.0000      -0.026573        -0.7231
  17   0.0000       0.037495         1.0203
  18   0.0000       0.071542         1.9467
  19   0.0000       0.118755         3.2315
  20   0.0000       0.128497         3.4966

MULLIKEN ATOMIC CHARGES
-----------------------
   0 C :   -0.307605
   1 C :    0.308481
   2 O :   -0.337436
   3 O :   -0.380096
   4 H :    0.129867
   5 H :    0.133734
   6 H :    0.129909
   7 H :    0.323146
Sum of atomic charges:    0.0000000

LOEWDIN ATOMIC CHARGES
----------------------
   0 C :   -0.259812
   1 C :   -0.527941
   2 O :    0.094385
   3 O :    0.083764
   4 H :    0.140170
   5 H :    0.135525
   6 H :    0.140356
   7 H :    0.193553

  Mayer bond orders larger than 0.100000
B(  0-C ,  1-C ) :   0.9812 B(  0-C ,  4-H ) :   0.9456 B(  0-C ,  5-H ) :   0.9749
B(  0-C ,  6-H ) :   0.9453 B(  1-C ,  2-O ) :   2.0421 B(  1-C ,  3-O ) :   1.1686
B(  3-O ,  7-H ) :   0.8640

Dispersion correction           -0.001207549
FINAL SINGLE POINT ENERGY      -229.065219266067

DIPOLE MOMENT
-------------

Method             : SCF
Type of density    : Electron Density
Multiplicity       :   1
Irrep              :   0
Energy             :  -229.0690780600310461 Eh
Relativity type    :
Basis              : AO
                                X                 Y                 Z
Electronic contribution:      3.275478864      -0.536220953      -0.001369243
Nuclear contribution   :     -3.592502611       1.144487091       0.002212893
                        -----------------------------------------
Total Dipole Moment    :     -0.317023747       0.608266138       0.000843650
                        -----------------------------------------
Magnitude (a.u.)       :      0.685924532
Magnitude (Debye)      :      1.743481602

VIBRATIONAL FREQUENCIES
-----------------------

Scaling factor for frequencies =  1.000000000  (already applied!)

     0:       0.00 cm**-1
     1:       0.00 cm**-1
     2:       0.00 cm**-1
     3:       0.00 cm**-1
     4:       0.00 cm**-1
     5:       0.00 cm**-1
     6:      94.54 cm**-1
     7:     429.97 cm**-1
     8:     548.08 cm**-1
     9:     586.03 cm**-1
    10:     667.87 cm**-1
    11:     857.28 cm**-1
    12:     988.86 cm**-1
    13:    1059.61 cm**-1
    14:    1194.09 cm**-1
    15:    1330.03 cm**-1
    16:    1394.43 cm**-1
    17:    1460.59 cm**-1
    18:    1467.44 cm**-1
    19:    1802.29 cm**-1
    20:    3035.48 cm**-1
    21:    3107.07 cm**-1
    22:    3157.84 cm**-1
    23:    3731.59 cm**-1

IR SPECTRUM
-----------

 Mode   freq       eps      Int      T**2         TX        TY        TZ
       cm**-1   L/(mol*cm) km/mol    a.u.
----------------------------------------------------------------------------
  6:     94.54   0.000080    0.40  0.000264  ( 0.000081  0.000270 -0.016255)
  7:    429.97   0.000934    4.72  0.000678  (-0.002824 -0.025885 -0.000238)
  8:    548.08   0.005183   26.19  0.002951  ( 0.000267  0.000246  0.054324)
  9:    586.03   0.006671   33.71  0.003552  (-0.053661 -0.025932  0.000360)
 10:    667.87   0.018135   91.65  0.008474  ( 0.000050 -0.000094 -0.092052)
 11:    857.28   0.001015    5.13  0.000369  (-0.008004  0.017473  0.000085)
 12:    988.86   0.016045   81.09  0.005064  (-0.044732 -0.055341 -0.000014)
 13:   1059.61   0.001429    7.22  0.000421  ( 0.000132 -0.000019 -0.020514)
 14:   1194.09   0.042484  214.70  0.011103  (-0.064683 -0.083180 -0.000002)
 15:   1330.03   0.003920   19.81  0.000920  (-0.015705 -0.025943 -0.000030)
 16:   1394.43   0.010784   54.50  0.002413  (-0.046310 -0.016393  0.000147)
 17:   1460.59   0.003492   17.64  0.000746  ( 0.011577 -0.024737  0.000101)
 18:   1467.44   0.001960    9.90  0.000417  (-0.000070 -0.000300 -0.020413)
 19:   1802.29   0.063856  322.70  0.011057  (-0.042593  0.096138  0.000033)
 20:   3035.48   0.000299    1.51  0.000031  (-0.004700  0.002935  0.000027)
 21:   3107.07   0.000622    3.14  0.000063  ( 0.000106 -0.000043  0.007905)
 22:   3157.84   0.000953    4.81  0.000094  ( 0.004028  0.008827  0.000003)
 23:   3731.59   0.009563   48.33  0.000800  ( 0.027963  0.004221  0.000019)

--------------------------
THERMOCHEMISTRY AT 298.15K
--------------------------

Temperature         ...   298.15 K
Pressure            ...     1.00 atm
Total Mass          ...    60.05 AMU
Quasi RRHO          ...     True
Cut-Off Frequency   ...     1.00 cm^-1

Throughout the following assumptions are being made:
  (1) The electronic state is orbitally nondegenerate
  (2) There are no thermally accessible electronically excited states
  (3) Hindered rotations indicated by low frequency modes are not
      treated as such but are treated as vibrations and this may
      cause some error
  (4) All equations used are the standard statistical mechanics
      equations for an ideal gas
  (5) All vibrations are strictly harmonic

freq.      94.54  E(vib)   ...       0.47
freq.     429.97  E(vib)   ...       0.18
freq.     548.08  E(vib)   ...       0.12
freq.     586.03  E(vib)   ...       0.11
freq.     667.87  E(vib)   ...       0.08
freq.     857.28  E(vib)   ...       0.04
freq.     988.86  E(vib)   ...       0.02
freq.    1059.61  E(vib)   ...       0.02
freq.    1194.09  E(vib)   ...       0.01
freq.    1330.03  E(vib)   ...       0.01
freq.    1394.43  E(vib)   ...       0.00
freq.    1460.59  E(vib)   ...       0.00
freq.    1467.44  E(vib)   ...       0.00
freq.    1802.29  E(vib)   ...       0.00
freq.    3035.48  E(vib)   ...       0.00
freq.    3107.07  E(vib)   ...       0.00
freq.    3157.84  E(vib)   ...       0.00
freq.    3731.59  E(vib)   ...       0.00

------------
INNER ENERGY
------------

The inner energy is: U= E(el) + E(ZPE) + E(vib) + E(rot) + E(trans)
    E(el)   - is the total energy from the electronic structure calculation
              = E(kin-el) + E(nuc-el) + E(el-el) + E(nuc-nuc)
    E(ZPE)  - the the zero temperature vibrational energy from the frequency calculation
    E(vib)  - the the finite temperature correction to E(ZPE) due to population
              of excited vibrational states
    E(rot)  - is the rotational thermal energy
    E(trans)- is the translational thermal energy

Summary of contributions to the inner energy U:
Electronic energy                ...   -229.06521927 Eh
Zero point energy                ...      0.06131254 Eh      38.47 kcal/mol
Thermal vibrational correction   ...      0.00169007 Eh       1.06 kcal/mol
Thermal rotational correction    ...      0.00141627 Eh       0.89 kcal/mol
Thermal translational correction ...      0.00141627 Eh       0.89 kcal/mol
-----------------------------------------------------------------------
Total thermal energy                   -228.99938411 Eh

Summary of corrections to the electronic energy:
(perhaps to be used in another calculation)
Total thermal correction                  0.00452261 Eh       2.84 kcal/mol
Non-thermal (ZPE) correction              0.06131254 Eh      38.47 kcal/mol
-----------------------------------------------------------------------
Total correction                          0.06583516 Eh      41.31 kcal/mol

--------
ENTHALPY
--------

The enthalpy is H = U + kB*T
                kB is Boltzmann's constant
Total thermal energy              ...   -228.99938411 Eh
Thermal Enthalpy correction       ...      0.00094421 Eh       0.59 kcal/mol
-----------------------------------------------------------------------
Total Enthalpy                    ...   -228.99843990 Eh

Note: Only C1 symmetry has been detected, increase convergence thresholds
      if your molecule has a higher symmetry. Symmetry factor of 1.0 is
      used for the rotational entropy correction.

Note: Rotational entropy computed according to Herzberg
Infrared and Raman Spectra, Chapter V,1, Van Nostrand Reinhold, 1945
Point Group:  C1, Symmetry Number:   1
Rotational constants in cm-1:     0.375205     0.316540     0.177339

Vibrational entropy computed according to the QRRHO of S. Grimme
Chem.Eur.J. 2012 18 9955 using a reference frequency of 100.0 cm-1

-------
ENTROPY
-------

The entropy contributions are T*S = T*(S(el)+S(vib)+S(rot)+S(trans))
     S(el)   - electronic entropy
     S(vib)  - vibrational entropy
     S(rot)  - rotational entropy
     S(trans)- translational entropy
The entropies will be listed as multiplied by the temperature to get
units of energy

Electronic entropy                ...      0.00000000 Eh      0.00 kcal/mol
Vibrational entropy               ...      0.00279516 Eh      1.75 kcal/mol
Rotational entropy                ...      0.01133321 Eh      7.11 kcal/mol
Translational entropy             ...      0.01814900 Eh     11.39 kcal/mol
-----------------------------------------------------------------------
Final entropy term                ...      0.03227737 Eh     20.25 kcal/mol

In case the symmetry of your molecule has not been determined correctly
or in case you have a reason to use a different symmetry number we print
out the resulting rotational entropy values for sn=1,12:

 non-linear molecules -----------------------------------
|  sn= 1 | S(rot)=       0.01133321 Eh      7.11 kcal/mol|
|  sn= 2 | S(rot)=       0.01067876 Eh      6.70 kcal/mol|
|  sn= 3 | S(rot)=       0.01029592 Eh      6.46 kcal/mol|
|  sn= 4 | S(rot)=       0.01002430 Eh      6.29 kcal/mol|
|  sn= 5 | S(rot)=       0.00981361 Eh      6.16 kcal/mol|
|  sn= 6 | S(rot)=       0.00964147 Eh      6.05 kcal/mol|
|  sn= 7 | S(rot)=       0.00949592 Eh      5.96 kcal/mol|
|  sn= 8 | S(rot)=       0.00936984 Eh      5.88 kcal/mol|
|  sn= 9 | S(rot)=       0.00925864 Eh      5.81 kcal/mol|
|  sn=10 | S(rot)=       0.00915916 Eh      5.75 kcal/mol|
|  sn=11 | S(rot)=       0.00906917 Eh      5.69 kcal/mol|
|  sn=12 | S(rot)=       0.00898701 Eh      5.64 kcal/mol|
 linear molecules ---------------------------------------
|  Dinfh | S(rot)=       0.00695895 Eh      4.37 kcal/mol|
|  Cinfv | S(rot)=       0.00761341 Eh      4.78 kcal/mol|
 --------------------------------------------------------

-------------------
GIBBS FREE ENERGY
-------------------

The Gibbs free energy is G = H - T*S

Total enthalpy                    ...   -228.99843990 Eh
Total entropy correction          ...     -0.03227737 Eh    -20.25 kcal/mol
-----------------------------------------------------------------------
Final Gibbs free energy         ...   -229.03071728 Eh

For completeness - the Gibbs free energy minus the electronic energy
G-E(el)                           ...      0.03450199 Eh     21.65 kcal/mol

                             ****ORCA TERMINATED NORMALLY****
TOTAL RUN TIME: 0 days 0 hours 1 minutes 45 seconds 631 msec
