                         Program Version 6.0.1  -  RELEASE   -
|  1> ! r2scan-3c def2/J RI DEFGRID2 scfconv6 printgap
|  2> %output
|  3>     printlevel normal
|  4> end
|  5> * xyz 0 1
|  6> C -3.3078346396 -0.905574208 -0.0220508973
|  7> O -1.8884378526 -0.9155772806 -0.0333563084
|  8> C -1.2637721337 0.2720497376 0.0114638763
|  9> O -1.8438656371 1.3299163924 0.0504251452
| 10> C 0.2123631569 0.1317636084 0.0019066289
| 11> C 0.9824826389 1.2924985424 0.0241322975
| 12> C 2.3615577698 1.2096457609 0.0209797063
| 13> C 2.9795411183 -0.0307274173 -0.003573929
| 14> C 2.2170423526 -1.188127615 -0.0262729092
| 15> C 0.8366609701 -1.112579243 -0.0237624017
| 16> H -3.6438785808 -1.6680613418 -0.7230078503
| 17> H -3.6775827994 0.0784373743 -0.3170305356
| 18> H -3.6626985058 -1.1414819307 0.9831648805
| 19> H 0.4776844147 2.2465336809 0.0436316503
| 20> H 2.9567967258 2.1104043272 0.0382188979
| 21> H 4.057705062 -0.0963110083 -0.0047052418
| 22> H 2.7024050761 -2.1527819276 -0.045506751
| 23> H 0.2368582178 -2.0088709535 -0.0410123536
| 24> *
| 25>
| 26>                          ****END OF INPUT****

CARTESIAN COORDINATES (ANGSTROEM)
---------------------------------
  C     -3.307835   -0.905574   -0.022051
  O     -1.888438   -0.915577   -0.033356
  C     -1.263772    0.272050    0.011464
  O     -1.843866    1.329916    0.050425
  C      0.212363    0.131764    0.001907
  C      0.982483    1.292499    0.024132
  C      2.361558    1.209646    0.020980
  C      2.979541   -0.030727   -0.003574
  C      2.217042   -1.188128   -0.026273
  C      0.836661   -1.112579   -0.023762
  H     -3.643879   -1.668061   -0.723008
  H     -3.677583    0.078437   -0.317031
  H     -3.662699   -1.141482    0.983165
  H      0.477684    2.246534    0.043632
  H      2.956797    2.110404    0.038219
  H      4.057705   -0.096311   -0.004705
  H      2.702405   -2.152782   -0.045507
  H      0.236858   -2.008871   -0.041012

 Total Charge           Charge          ....    0
 Multiplicity           Mult            ....    1
 Number of Electrons    NEL             ....   72
 Basis Dimension        Dim             ....  240

ORBITAL ENERGIES
----------------

  NO   OCC          E(Eh)            E(eV)
   0   2.0000     -19.001217      -517.0494
   1   2.0000     -18.933861      -515.2166
   2   2.0000     -10.158495      -276.4267
   3   2.0000     -10.085264      -274.4340
   4   2.0000     -10.055620      -273.6273
   5   2.0000     -10.048744      -273.4402
   6   2.0000     -10.048014      -273.4204
   7   2.0000     -10.046076      -273.3676
   8   2.0000     -10.045604      -273.3548
   9   2.0000     -10.045092      -273.3409
  10   2.0000      -1.075226       -29.2584
  11   2.0000      -0.984592       -26.7921
  12   2.0000      -0.839957       -22.8564
  13   2.0000      -0.749068       -20.3832
  14   2.0000      -0.728019       -19.8104
  15   2.0000      -0.694398       -18.8955
  16   2.0000      -0.603766       -16.4293
  17   2.0000      -0.584834       -15.9142
  18   2.0000      -0.539493       -14.6804
  19   2.0000      -0.511926       -13.9302
  20   2.0000      -0.462923       -12.5968
  21   2.0000      -0.453748       -12.3471
  22   2.0000      -0.448300       -12.1989
  23   2.0000      -0.425527       -11.5792
  24   2.0000      -0.415545       -11.3076
  25   2.0000      -0.401021       -10.9123
  26   2.0000      -0.389405       -10.5962
  27   2.0000      -0.384096       -10.4518
  28   2.0000      -0.347497        -9.4559
  29   2.0000      -0.334449        -9.1008
  30   2.0000      -0.327309        -8.9065
  31   2.0000      -0.315217        -8.5775
  32   2.0000      -0.276228        -7.5165
  33   2.0000      -0.249522        -6.7898
  34   2.0000      -0.247829        -6.7438
  35   2.0000      -0.246650        -6.7117
  36   0.0000      -0.076193        -2.0733
  37   0.0000      -0.040947        -1.1142
  38   0.0000       0.026032         0.7084
  39   0.0000       0.063662         1.7323
  40   0.0000       0.093097         2.5333

MULLIKEN ATOMIC CHARGES
-----------------------
   0 C :   -0.303485
   1 O :   -0.173562
   2 C :    0.379459
   3 O :   -0.436207
   4 C :    0.100518
   5 C :   -0.227586
   6 C :   -0.155573
   7 C :   -0.114254
   8 C :   -0.150519
   9 C :   -0.200226
  10 H :    0.147514
  11 H :    0.185044
  12 H :    0.149555
  13 H :    0.181143
  14 H :    0.148372
  15 H :    0.148936
  16 H :    0.147891
  17 H :    0.172981
Sum of atomic charges:    0.0000000

LOEWDIN ATOMIC CHARGES
----------------------
   0 C :   -0.044869
   1 O :   -0.611667
   2 C :    0.386740
   3 O :   -0.434684
   4 C :   -0.033331
   5 C :   -0.106317
   6 C :   -0.159792
   7 C :   -0.144909
   8 C :   -0.162042
   9 C :   -0.113892
  10 H :    0.174002
  11 H :    0.192955
  12 H :    0.172073
  13 H :    0.190084
  14 H :    0.169861
  15 H :    0.168660
  16 H :    0.169153
  17 H :    0.187975

  Mayer bond orders larger than 0.100000
B(  0-C ,  1-O ) :   0.8364 B(  0-C , 10-H ) :   0.9691 B(  0-C , 11-H ) :   0.9702
B(  0-C , 12-H ) :   0.9595 B(  1-O ,  2-C ) :   1.1396 B(  1-O ,  4-C ) :  -0.1183
B(  2-C ,  3-O ) :   1.8817 B(  2-C ,  4-C ) :   1.0244 B(  4-C ,  5-C ) :   1.4684
B(  4-C ,  9-C ) :   1.3834 B(  5-C ,  6-C ) :   1.3756 B(  5-C , 13-H ) :   0.9418
B(  6-C ,  7-C ) :   1.4001 B(  6-C , 14-H ) :   0.9549 B(  7-C ,  8-C ) :   1.4070
B(  7-C , 15-H ) :   0.9454 B(  8-C ,  9-C ) :   1.3811 B(  8-C , 16-H ) :   0.9518
B(  9-C , 17-H ) :   0.9509

Dispersion correction           -0.005882923
FINAL SINGLE POINT ENERGY      -460.024782043677

DIPOLE MOMENT
-------------

Method             : SCF
Type of density    : Electron Density
Multiplicity       :   1
Irrep              :   0
Energy             :  -460.0274681660870897 Eh
Relativity type    :
Basis              : AO
                                X                 Y                 Z
Electronic contribution:      0.891852252       1.751865502       0.034095682
Nuclear contribution   :     -0.573817565      -2.463252436      -0.061898477
                        -----------------------------------------
Total Dipole Moment    :      0.318034687      -0.711386934      -0.027802795
                        -----------------------------------------
Magnitude (a.u.)       :      0.779737410
Magnitude (Debye)      :      1.981934989

Rotational constants in cm-1:             0.117695             0.028403             0.022982
Rotational constants in MHz :          3528.409705           851.512838           688.978815

                             ****ORCA TERMINATED NORMALLY****
TOTAL RUN TIME: 0 days 0 hours 0 minutes 21 seconds 302 msec
