                         Program Version 6.0.1  -  RELEASE   -
|  1> ! r2scan-3c def2/J RI DEFGRID2 scfconv6 printgap
|  2> %output
|  3>     printlevel normal
|  4> end
|  5> * xyz 0 1
|  6> C -1.8839892075 -0.5727686879 0.2465311586
|  7> C -0.9257566605 0.3938135923 -0.4443986297
|  8> C 0.5107983876 0.0670950055 -0.0710684407
|  9> O 0.9824626368 -1.0435570022 -0.1510234262
| 10> N 1.2417598638 1.1236158294 0.3610478511
| 11> H -1.5754028477 -1.5948496054 0.0435775076
| 12> H -1.8708805224 -0.417096811 1.3230567885
| 13> H -2.8996374944 -0.4299954249 -0.1143783872
| 14> H -1.1672811064 1.4261814801 -0.1879853477
| 15> H -1.0141309289 0.2754777064 -1.5268103202
| 16> H 0.8669679922 2.0517532632 0.4332614784
| 17> H 2.2043549783 0.9721761884 0.6140431455
| 18> *
| 19>
| 20>                          ****END OF INPUT****

CARTESIAN COORDINATES (ANGSTROEM)
---------------------------------
  C     -1.883989   -0.572769    0.246531
  C     -0.925757    0.393814   -0.444399
  C      0.510798    0.067095   -0.071068
  O      0.982463   -1.043557   -0.151023
  N      1.241760    1.123616    0.361048
  H     -1.575403   -1.594850    0.043578
  H     -1.870881   -0.417097    1.323057
  H     -2.899637   -0.429995   -0.114378
  H     -1.167281    1.426181   -0.187985
  H     -1.014131    0.275478   -1.526810
  H      0.866968    2.051753    0.433261
  H      2.204355    0.972176    0.614043

 Total Charge           Charge          ....    0
 Multiplicity           Mult            ....    1
 Number of Electrons    NEL             ....   40
 Basis Dimension        Dim             ....  140

ORBITAL ENERGIES
----------------

  NO   OCC          E(Eh)            E(eV)
   0   2.0000     -18.910136      -514.5710
   1   2.0000     -14.182214      -385.9177
   2   2.0000     -10.127862      -275.5931
   3   2.0000     -10.041832      -273.2521
   4   2.0000     -10.022995      -272.7396
   5   2.0000      -1.002367       -27.2758
   6   2.0000      -0.873831       -23.7781
   7   2.0000      -0.744700       -20.2643
   8   2.0000      -0.622225       -16.9316
   9   2.0000      -0.549517       -14.9531
  10   2.0000      -0.505665       -13.7598
  11   2.0000      -0.451572       -12.2879
  12   2.0000      -0.426368       -11.6021
  13   2.0000      -0.382418       -10.4061
  14   2.0000      -0.376925       -10.2566
  15   2.0000      -0.337010        -9.1705
  16   2.0000      -0.332803        -9.0560
  17   2.0000      -0.317582        -8.6418
  18   2.0000      -0.246217        -6.6999
  19   2.0000      -0.218889        -5.9563
  20   0.0000       0.001177         0.0320
  21   0.0000       0.067635         1.8405
  22   0.0000       0.115361         3.1391
  23   0.0000       0.123865         3.3705
  24   0.0000       0.136511         3.7146

MULLIKEN ATOMIC CHARGES
-----------------------
   0 C :   -0.468664
   1 C :   -0.283705
   2 C :    0.310158
   3 O :   -0.416900
   4 N :   -0.383191
   5 H :    0.179008
   6 H :    0.142214
   7 H :    0.144729
   8 H :    0.122391
   9 H :    0.163069
  10 H :    0.246232
  11 H :    0.244661
Sum of atomic charges:   -0.0000000

LOEWDIN ATOMIC CHARGES
----------------------
   0 C :   -0.398987
   1 C :   -0.254963
   2 C :    0.296067
   3 O :   -0.455882
   4 N :   -0.507517
   5 H :    0.169283
   6 H :    0.153571
   7 H :    0.149887
   8 H :    0.155981
   9 H :    0.176902
  10 H :    0.255604
  11 H :    0.260054

  Mayer bond orders larger than 0.100000
B(  0-C ,  1-C ) :   0.9059 B(  0-C ,  5-H ) :   0.9711 B(  0-C ,  6-H ) :   0.9748
B(  0-C ,  7-H ) :   0.9727 B(  1-C ,  2-C ) :   0.9548 B(  1-C ,  8-H ) :   0.9816
B(  1-C ,  9-H ) :   0.9374 B(  2-C ,  3-O ) :   1.9504 B(  2-C ,  4-N ) :   1.0841
B(  4-N , 10-H ) :   0.9200 B(  4-N , 11-H ) :   0.9205

Dispersion correction           -0.002434242
FINAL SINGLE POINT ENERGY      -248.472625652838

DIPOLE MOMENT
-------------

Method             : SCF
Type of density    : Electron Density
Multiplicity       :   1
Irrep              :   0
Energy             :  -248.4785769208733655 Eh
Relativity type    :
Basis              : AO
                                X                 Y                 Z
Electronic contribution:      4.812995700      -0.725749696      -0.342473390
Nuclear contribution   :     -5.097280954       2.133128876       0.548346764
                        -----------------------------------------
Total Dipole Moment    :     -0.284285254       1.407379180       0.205873375
                        -----------------------------------------
Magnitude (a.u.)       :      1.450488921
Magnitude (Debye)      :      3.686849838

Rotational constants in cm-1:             0.300896             0.129188             0.100684
Rotational constants in MHz :          9020.650071          3872.968139          3018.438134

                             ****ORCA TERMINATED NORMALLY****
TOTAL RUN TIME: 0 days 0 hours 0 minutes 24 seconds 127 msec
