                         Program Version 6.0.1  -  RELEASE   -
|  1> ! pbe def2-sv(p) def2/J RI DEFGRID1 loosescf d4 GCP(DFT/SV(P)) printgap
|  2> %output
|  3>     printlevel normal
|  4> end
|  5> * xyz 0 1
|  6> C -1.8615683618 -1.176587731 -0.4529989983
|  7> C -1.0483992415 -0.5405313102 0.7052926403
|  8> H -1.6347561932 -0.6402091081 1.6295257319
|  9> C -0.7646641878 0.9630851867 0.5131461321
| 10> H -1.6701221693 1.4407021338 0.1077278068
| 11> C 0.4038487841 1.1992951456 -0.4566278699
| 12> H 0.6525466239 2.2716434007 -0.4264539713
| 13> C 1.6406216833 0.3979312941 0.0017082561
| 14> H 2.4097353896 0.463967807 -0.7766637496
| 15> C 1.2427811162 -1.0888829765 0.1325358462
| 16> H 2.0344528439 -1.644161296 0.6496279673
| 17> O 0.1261309391 -1.271131099 0.9865695522
| 18> O 1.075259661 -1.6624346515 -1.1240941702
| 19> O 2.2092835996 0.9112904551 1.1668946602
| 20> O 0.0783860557 0.8171867997 -1.7759167202
| 21> O -0.4135960957 1.5694401452 1.739309655
| 22> O -2.4831772786 -0.1763853739 -1.2495534194
| 23> H -2.6231423506 -1.8366575981 -0.0229386915
| 24> H -1.1857577382 -1.7870158016 -1.0600891869
| 25> H 0.7591418898 -0.9668288229 -1.7295541935
| 26> H 1.4971927985 1.0707086265 1.8049575264
| 27> H -0.8885783672 0.7839778521 -1.8606541291
| 28> H -1.1054924991 1.4041263369 2.3896881137
| 29> H -3.030825002 -0.616172114 -1.9087179098
| 30> *
| 31>
| 32>                          ****END OF INPUT****

CARTESIAN COORDINATES (ANGSTROEM)
---------------------------------
  C     -1.861568   -1.176588   -0.452999
  C     -1.048399   -0.540531    0.705293
  H     -1.634756   -0.640209    1.629526
  C     -0.764664    0.963085    0.513146
  H     -1.670122    1.440702    0.107728
  C      0.403849    1.199295   -0.456628
  H      0.652547    2.271643   -0.426454
  C      1.640622    0.397931    0.001708
  H      2.409735    0.463968   -0.776664
  C      1.242781   -1.088883    0.132536
  H      2.034453   -1.644161    0.649628
  O      0.126131   -1.271131    0.986570
  O      1.075260   -1.662435   -1.124094
  O      2.209284    0.911290    1.166895
  O      0.078386    0.817187   -1.775917
  O     -0.413596    1.569440    1.739310
  O     -2.483177   -0.176385   -1.249553
  H     -2.623142   -1.836658   -0.022939
  H     -1.185758   -1.787016   -1.060089
  H      0.759142   -0.966829   -1.729554
  H      1.497193    1.070709    1.804958
  H     -0.888578    0.783978   -1.860654
  H     -1.105492    1.404126    2.389688
  H     -3.030825   -0.616172   -1.908718

 Total Charge           Charge          ....    0
 Multiplicity           Mult            ....    1
 Number of Electrons    NEL             ....   96
 Basis Dimension        Dim             ....  192

ORBITAL ENERGIES
----------------

  NO   OCC          E(Eh)            E(eV)
   0   2.0000     -18.790324      -511.3107
   1   2.0000     -18.779376      -511.0128
   2   2.0000     -18.769029      -510.7312
   3   2.0000     -18.759852      -510.4815
   4   2.0000     -18.740467      -509.9540
   5   2.0000     -18.731596      -509.7126
   6   2.0000      -9.969184      -271.2753
   7   2.0000      -9.958343      -270.9803
   8   2.0000      -9.957477      -270.9567
   9   2.0000      -9.948760      -270.7195
  10   2.0000      -9.948399      -270.7097
  11   2.0000      -9.932466      -270.2761
  12   2.0000      -0.977787       -26.6069
  13   2.0000      -0.958671       -26.0868
  14   2.0000      -0.951594       -25.8942
  15   2.0000      -0.940824       -25.6011
  16   2.0000      -0.912471       -24.8296
  17   2.0000      -0.901373       -24.5276
  18   2.0000      -0.710339       -19.3293
  19   2.0000      -0.685935       -18.6652
  20   2.0000      -0.626555       -17.0494
  21   2.0000      -0.594669       -16.1818
  22   2.0000      -0.574063       -15.6211
  23   2.0000      -0.521088       -14.1795
  24   2.0000      -0.508097       -13.8260
  25   2.0000      -0.492186       -13.3930
  26   2.0000      -0.474744       -12.9185
  27   2.0000      -0.473192       -12.8762
  28   2.0000      -0.444540       -12.0966
  29   2.0000      -0.430324       -11.7097
  30   2.0000      -0.422534       -11.4977
  31   2.0000      -0.410230       -11.1629
  32   2.0000      -0.401800       -10.9335
  33   2.0000      -0.376113       -10.2346
  34   2.0000      -0.367004        -9.9867
  35   2.0000      -0.353047        -9.6069
  36   2.0000      -0.341667        -9.2972
  37   2.0000      -0.327996        -8.9252
  38   2.0000      -0.316989        -8.6257
  39   2.0000      -0.294842        -8.0231
  40   2.0000      -0.282924        -7.6988
  41   2.0000      -0.271116        -7.3774
  42   2.0000      -0.256166        -6.9706
  43   2.0000      -0.243329        -6.6213
  44   2.0000      -0.240040        -6.5318
  45   2.0000      -0.235560        -6.4099
  46   2.0000      -0.217713        -5.9243
  47   2.0000      -0.193564        -5.2671
  48   0.0000      -0.003632        -0.0988
  49   0.0000       0.005630         0.1532
  50   0.0000       0.037565         1.0222
  51   0.0000       0.055289         1.5045
  52   0.0000       0.069002         1.8776

MULLIKEN ATOMIC CHARGES
-----------------------
   0 C :   -0.010646
   1 C :    0.042344
   2 H :    0.059679
   3 C :   -0.003788
   4 H :    0.092530
   5 C :    0.037815
   6 H :    0.084520
   7 C :    0.022428
   8 H :    0.088718
   9 C :    0.207424
  10 H :    0.070817
  11 O :   -0.311329
  12 O :   -0.407208
  13 O :   -0.420964
  14 O :   -0.432387
  15 O :   -0.419694
  16 O :   -0.438820
  17 H :    0.085137
  18 H :    0.110018
  19 H :    0.305166
  20 H :    0.299531
  21 H :    0.310996
  22 H :    0.310301
  23 H :    0.317414
Sum of atomic charges:   -0.0000000

LOEWDIN ATOMIC CHARGES
----------------------
   0 C :   -0.149412
   1 C :   -0.065127
   2 H :    0.111512
   3 C :   -0.085900
   4 H :    0.110381
   5 C :   -0.064125
   6 H :    0.110937
   7 C :   -0.088201
   8 H :    0.121286
   9 C :   -0.003404
  10 H :    0.109451
  11 O :   -0.145066
  12 O :   -0.315213
  13 O :   -0.315035
  14 O :   -0.318058
  15 O :   -0.303208
  16 O :   -0.333588
  17 H :    0.108593
  18 H :    0.113149
  19 H :    0.268711
  20 H :    0.270567
  21 H :    0.273794
  22 H :    0.291119
  23 H :    0.296835

  Mayer bond orders larger than 0.100000
B(  0-C ,  1-C ) :   1.0409 B(  0-C , 16-O ) :   1.0256 B(  0-C , 17-H ) :   0.9139
B(  0-C , 18-H ) :   0.9012 B(  1-C ,  2-H ) :   0.8952 B(  1-C ,  3-C ) :   1.0174
B(  1-C , 11-O ) :   1.0515 B(  3-C ,  4-H ) :   0.8793 B(  3-C ,  5-C ) :   1.0124
B(  3-C , 15-O ) :   1.0026 B(  5-C ,  6-H ) :   0.9013 B(  5-C ,  7-C ) :   0.9781
B(  5-C , 14-O ) :   1.0508 B(  7-C ,  8-H ) :   0.8986 B(  7-C ,  9-C ) :   0.9755
B(  7-C , 13-O ) :   1.0781 B(  9-C , 10-H ) :   0.9071 B(  9-C , 11-O ) :   1.0126
B(  9-C , 12-O ) :   1.1124 B( 12-O , 19-H ) :   0.7833 B( 13-O , 20-H ) :   0.8117
B( 14-O , 19-H ) :   0.1259 B( 14-O , 21-H ) :   0.7806 B( 15-O , 22-H ) :   0.8399
B( 16-O , 21-H ) :   0.1202 B( 16-O , 23-H ) :   0.8395

Dispersion correction           -0.026691624
FINAL SINGLE POINT ENERGY      -685.696169207290

DIPOLE MOMENT
-------------

Method             : SCF
Type of density    : Electron Density
Multiplicity       :   1
Irrep              :   0
Energy             :  -685.8329730477327075 Eh
Relativity type    :
Basis              : AO
                                X                 Y                 Z
Electronic contribution:      2.291011268       0.157833715       1.021511367
Nuclear contribution   :     -4.480936967      -0.049676519      -1.132933880
                        -----------------------------------------
Total Dipole Moment    :     -2.189925699       0.108157195      -0.111422512
                        -----------------------------------------
Magnitude (a.u.)       :      2.195424224
Magnitude (Debye)      :      5.580324901

Rotational constants in cm-1:             0.041594             0.030751             0.026699
Rotational constants in MHz :          1246.945623           921.902355           800.420515

                             ****ORCA TERMINATED NORMALLY****
TOTAL RUN TIME: 0 days 0 hours 0 minutes 9 seconds 206 msec
