                         Program Version 6.0.1  -  RELEASE   -
|  1> ! pbe def2-sv(p) def2/J RI DEFGRID1 loosescf d4 GCP(DFT/SV(P)) printgap
|  2> %output
|  3>     printlevel normal
|  4> end
|  5> * xyz 0 1
|  6> C -2.0971449519 -1.1926376847 -0.2067023164
|  7> C -1.2478415385 -0.3521242329 0.7596933056
|  8> H -1.8580029973 -0.2027568965 1.6586603999
|  9> C -0.9257362129 1.0495045477 0.1694715615
| 10> H -1.215096733 1.0863320451 -0.8857600692
| 11> C 0.5834441384 1.2932446289 0.2584532161
| 12> H 0.8853017136 1.3341079409 1.3210280047
| 13> C 1.2923878747 0.1048336356 -0.3977098485
| 14> H 0.9012572 -0.0131122953 -1.421371012
| 15> C 0.9986146443 -1.1842870182 0.4018876971
| 16> H 1.8352814171 -1.3884722052 1.0828723921
| 17> O -0.109687298 -1.03236462 1.2548629469
| 18> O 0.9048146143 -2.2906254134 -0.4302185284
| 19> O 2.6718507276 0.3964616537 -0.4417912438
| 20> O 0.9056920795 2.4956204642 -0.3821042877
| 21> O -1.6830331261 2.0437355916 0.8022723993
| 22> O -1.4568305428 -1.3070727863 -1.4682973314
| 23> H -3.0646908301 -0.6920011844 -0.3179286596
| 24> H -2.2482097266 -2.1871834029 0.2320691268
| 25> H 0.1211137725 -2.166451951 -0.9961403252
| 26> H 3.1357288013 -0.3721390539 -0.7909880765
| 27> H 1.8553157184 2.4747697058 -0.5583265035
| 28> H -1.2136024219 2.3495089431 1.5867213441
| 29> H -2.06473821 -1.7219618731 -2.0894672989
| 30> *
| 31>
| 32>                          ****END OF INPUT****

CARTESIAN COORDINATES (ANGSTROEM)
---------------------------------
  C     -2.097145   -1.192638   -0.206702
  C     -1.247842   -0.352124    0.759693
  H     -1.858003   -0.202757    1.658660
  C     -0.925736    1.049505    0.169472
  H     -1.215097    1.086332   -0.885760
  C      0.583444    1.293245    0.258453
  H      0.885302    1.334108    1.321028
  C      1.292388    0.104834   -0.397710
  H      0.901257   -0.013112   -1.421371
  C      0.998615   -1.184287    0.401888
  H      1.835281   -1.388472    1.082872
  O     -0.109687   -1.032365    1.254863
  O      0.904815   -2.290625   -0.430219
  O      2.671851    0.396462   -0.441791
  O      0.905692    2.495620   -0.382104
  O     -1.683033    2.043736    0.802272
  O     -1.456831   -1.307073   -1.468297
  H     -3.064691   -0.692001   -0.317929
  H     -2.248210   -2.187183    0.232069
  H      0.121114   -2.166452   -0.996140
  H      3.135729   -0.372139   -0.790988
  H      1.855316    2.474770   -0.558327
  H     -1.213602    2.349509    1.586721
  H     -2.064738   -1.721962   -2.089467

 Total Charge           Charge          ....    0
 Multiplicity           Mult            ....    1
 Number of Electrons    NEL             ....   96
 Basis Dimension        Dim             ....  192

ORBITAL ENERGIES
----------------

  NO   OCC          E(Eh)            E(eV)
   0   2.0000     -18.793915      -511.4084
   1   2.0000     -18.763308      -510.5756
   2   2.0000     -18.761480      -510.5258
   3   2.0000     -18.745162      -510.0818
   4   2.0000     -18.740217      -509.9472
   5   2.0000     -18.738769      -509.9078
   6   2.0000      -9.976482      -271.4739
   7   2.0000      -9.951707      -270.7997
   8   2.0000      -9.947950      -270.6975
   9   2.0000      -9.939009      -270.4542
  10   2.0000      -9.938987      -270.4536
  11   2.0000      -9.937548      -270.4144
  12   2.0000      -0.977735       -26.6055
  13   2.0000      -0.957769       -26.0622
  14   2.0000      -0.942256       -25.6401
  15   2.0000      -0.931272       -25.3412
  16   2.0000      -0.910588       -24.7784
  17   2.0000      -0.901474       -24.5303
  18   2.0000      -0.706224       -19.2173
  19   2.0000      -0.691529       -18.8175
  20   2.0000      -0.625491       -17.0205
  21   2.0000      -0.585393       -15.9293
  22   2.0000      -0.562708       -15.3121
  23   2.0000      -0.528682       -14.3862
  24   2.0000      -0.505881       -13.7657
  25   2.0000      -0.486752       -13.2452
  26   2.0000      -0.480342       -13.0708
  27   2.0000      -0.456047       -12.4097
  28   2.0000      -0.447445       -12.1756
  29   2.0000      -0.427101       -11.6220
  30   2.0000      -0.417135       -11.3508
  31   2.0000      -0.408665       -11.1204
  32   2.0000      -0.403149       -10.9702
  33   2.0000      -0.380199       -10.3457
  34   2.0000      -0.356126        -9.6907
  35   2.0000      -0.340257        -9.2589
  36   2.0000      -0.330791        -9.0013
  37   2.0000      -0.312387        -8.5005
  38   2.0000      -0.310669        -8.4537
  39   2.0000      -0.293413        -7.9842
  40   2.0000      -0.286088        -7.7849
  41   2.0000      -0.269617        -7.3367
  42   2.0000      -0.259138        -7.0515
  43   2.0000      -0.249675        -6.7940
  44   2.0000      -0.233880        -6.3642
  45   2.0000      -0.219213        -5.9651
  46   2.0000      -0.210451        -5.7267
  47   2.0000      -0.199304        -5.4233
  48   0.0000      -0.000127        -0.0034
  49   0.0000       0.025827         0.7028
  50   0.0000       0.036003         0.9797
  51   0.0000       0.054209         1.4751
  52   0.0000       0.066596         1.8122

MULLIKEN ATOMIC CHARGES
-----------------------
   0 C :   -0.014949
   1 C :    0.064373
   2 H :    0.073953
   3 C :    0.062055
   4 H :    0.075661
   5 C :    0.047796
   6 H :    0.045231
   7 C :   -0.020606
   8 H :    0.062729
   9 C :    0.202594
  10 H :    0.062012
  11 O :   -0.300310
  12 O :   -0.414543
  13 O :   -0.425048
  14 O :   -0.408354
  15 O :   -0.406866
  16 O :   -0.439247
  17 H :    0.101500
  18 H :    0.097984
  19 H :    0.291947
  20 H :    0.311478
  21 H :    0.306349
  22 H :    0.302224
  23 H :    0.322036
Sum of atomic charges:   -0.0000000

LOEWDIN ATOMIC CHARGES
----------------------
   0 C :   -0.138117
   1 C :   -0.069990
   2 H :    0.125694
   3 C :   -0.066887
   4 H :    0.118148
   5 C :   -0.077490
   6 H :    0.098019
   7 C :   -0.096834
   8 H :    0.105584
   9 C :   -0.013598
  10 H :    0.108249
  11 O :   -0.142525
  12 O :   -0.323989
  13 O :   -0.323157
  14 O :   -0.317702
  15 O :   -0.309548
  16 O :   -0.326403
  17 H :    0.116623
  18 H :    0.109137
  19 H :    0.262273
  20 H :    0.292931
  21 H :    0.284344
  22 H :    0.286175
  23 H :    0.299063

  Mayer bond orders larger than 0.100000
B(  0-C ,  1-C ) :   1.0616 B(  0-C , 16-O ) :   1.0111 B(  0-C , 17-H ) :   0.9139
B(  0-C , 18-H ) :   0.9118 B(  1-C ,  2-H ) :   0.8846 B(  1-C ,  3-C ) :   0.9304
B(  1-C , 11-O ) :   1.0482 B(  3-C ,  4-H ) :   0.8772 B(  3-C ,  5-C ) :   1.0346
B(  3-C , 15-O ) :   1.0670 B(  5-C ,  6-H ) :   0.8598 B(  5-C ,  7-C ) :   1.0169
B(  5-C , 14-O ) :   1.1125 B(  7-C ,  8-H ) :   0.8788 B(  7-C ,  9-C ) :   0.9841
B(  7-C , 13-O ) :   1.0539 B(  9-C , 10-H ) :   0.8901 B(  9-C , 11-O ) :   1.0403
B(  9-C , 12-O ) :   1.1291 B( 12-O , 19-H ) :   0.7934 B( 13-O , 20-H ) :   0.8422
B( 14-O , 21-H ) :   0.8329 B( 15-O , 22-H ) :   0.8488 B( 16-O , 19-H ) :   0.1267
B( 16-O , 23-H ) :   0.8393

Dispersion correction           -0.025210268
FINAL SINGLE POINT ENERGY      -685.693838500256

DIPOLE MOMENT
-------------

Method             : SCF
Type of density    : Electron Density
Multiplicity       :   1
Irrep              :   0
Energy             :  -685.8265021643226191 Eh
Relativity type    :
Basis              : AO
                                X                 Y                 Z
Electronic contribution:      2.258329169       0.720542299       0.653438779
Nuclear contribution   :     -2.730896177      -1.402125358      -1.115611808
                        -----------------------------------------
Total Dipole Moment    :     -0.472567008      -0.681583060      -0.462173028
                        -----------------------------------------
Magnitude (a.u.)       :      0.949462454
Magnitude (Debye)      :      2.413341767

Rotational constants in cm-1:             0.035913             0.032687             0.021422
Rotational constants in MHz :          1076.640333           979.941456           642.208936

                             ****ORCA TERMINATED NORMALLY****
TOTAL RUN TIME: 0 days 0 hours 0 minutes 7 seconds 879 msec
