                         Program Version 6.0.1  -  RELEASE   -
|  1> ! pbe def2-sv(p) def2/J RI DEFGRID1 loosescf d4 GCP(DFT/SV(P)) printgap
|  2> %output
|  3>     printlevel normal
|  4> end
|  5> * xyz 0 1
|  6> C -2.4166524671 -1.1142381601 -0.3332724802
|  7> C -1.0738180458 -0.6109377387 0.2150468543
|  8> H -1.1307102489 -0.5847494967 1.3147396401
|  9> C -0.7523913618 0.8057465452 -0.2903027132
| 10> H -0.728956995 0.7947182274 -1.3927965423
| 11> C 0.6344380851 1.228996147 0.2066965993
| 12> H 0.623697416 1.2868975458 1.3079090945
| 13> C 1.6631394249 0.1790123199 -0.21156554
| 14> H 1.7188633202 0.1459982629 -1.313125484
| 15> C 1.2049488824 -1.2036357298 0.2978841236
| 16> H 1.2110328149 -1.1908187406 1.4026979752
| 17> O -0.0685193067 -1.5149750262 -0.1975238374
| 18> O 2.0907235091 -2.1933513177 -0.104093718
| 19> O 2.9130957172 0.5256788443 0.3295635393
| 20> O 0.9198368525 2.4958087683 -0.3347247292
| 21> O -1.7392332611 1.6992764638 0.1601584099
| 22> O -3.503897995 -0.4891644543 0.2797516403
| 23> H -2.5016287465 -2.1832306246 -0.125006177
| 24> H -2.4317699094 -0.9682993437 -1.4235847256
| 25> H 1.7653083153 -2.5540890744 -0.9380680429
| 26> H 3.4694455477 -0.2638478398 0.3177109709
| 27> H 1.8532125307 2.6752922326 -0.1697131846
| 28> H -1.39908521 2.5915305464 0.0128113351
| 29> H -3.3419096524 0.4653879989 0.2696531566
| 30> *
| 31>
| 32>                          ****END OF INPUT****

CARTESIAN COORDINATES (ANGSTROEM)
---------------------------------
  C     -2.416652   -1.114238   -0.333272
  C     -1.073818   -0.610938    0.215047
  H     -1.130710   -0.584749    1.314740
  C     -0.752391    0.805747   -0.290303
  H     -0.728957    0.794718   -1.392797
  C      0.634438    1.228996    0.206697
  H      0.623697    1.286898    1.307909
  C      1.663139    0.179012   -0.211566
  H      1.718863    0.145998   -1.313125
  C      1.204949   -1.203636    0.297884
  H      1.211033   -1.190819    1.402698
  O     -0.068519   -1.514975   -0.197524
  O      2.090724   -2.193351   -0.104094
  O      2.913096    0.525679    0.329564
  O      0.919837    2.495809   -0.334725
  O     -1.739233    1.699276    0.160158
  O     -3.503898   -0.489164    0.279752
  H     -2.501629   -2.183231   -0.125006
  H     -2.431770   -0.968299   -1.423585
  H      1.765308   -2.554089   -0.938068
  H      3.469446   -0.263848    0.317711
  H      1.853213    2.675292   -0.169713
  H     -1.399085    2.591531    0.012811
  H     -3.341910    0.465388    0.269653

 Total Charge           Charge          ....    0
 Multiplicity           Mult            ....    1
 Number of Electrons    NEL             ....   96
 Basis Dimension        Dim             ....  192

ORBITAL ENERGIES
----------------

  NO   OCC          E(Eh)            E(eV)
   0   2.0000     -18.788562      -511.2628
   1   2.0000     -18.775302      -510.9019
   2   2.0000     -18.772970      -510.8385
   3   2.0000     -18.766011      -510.6491
   4   2.0000     -18.765400      -510.6325
   5   2.0000     -18.734087      -509.7804
   6   2.0000      -9.998696      -272.0784
   7   2.0000      -9.953576      -270.8506
   8   2.0000      -9.952100      -270.8104
   9   2.0000      -9.951371      -270.7906
  10   2.0000      -9.948021      -270.6994
  11   2.0000      -9.929111      -270.1848
  12   2.0000      -1.001245       -27.2453
  13   2.0000      -0.961223       -26.1562
  14   2.0000      -0.949265       -25.8308
  15   2.0000      -0.932291       -25.3689
  16   2.0000      -0.928212       -25.2579
  17   2.0000      -0.913374       -24.8542
  18   2.0000      -0.715201       -19.4616
  19   2.0000      -0.697895       -18.9907
  20   2.0000      -0.616706       -16.7814
  21   2.0000      -0.595746       -16.2111
  22   2.0000      -0.568025       -15.4567
  23   2.0000      -0.545586       -14.8462
  24   2.0000      -0.514876       -14.0105
  25   2.0000      -0.499968       -13.6048
  26   2.0000      -0.475898       -12.9499
  27   2.0000      -0.462658       -12.5896
  28   2.0000      -0.456168       -12.4130
  29   2.0000      -0.446939       -12.1618
  30   2.0000      -0.427689       -11.6380
  31   2.0000      -0.407523       -11.0893
  32   2.0000      -0.399508       -10.8712
  33   2.0000      -0.374346       -10.1865
  34   2.0000      -0.363705        -9.8969
  35   2.0000      -0.352427        -9.5900
  36   2.0000      -0.340020        -9.2524
  37   2.0000      -0.335480        -9.1289
  38   2.0000      -0.326552        -8.8859
  39   2.0000      -0.310841        -8.4584
  40   2.0000      -0.300137        -8.1671
  41   2.0000      -0.266717        -7.2577
  42   2.0000      -0.261868        -7.1258
  43   2.0000      -0.252525        -6.8716
  44   2.0000      -0.239863        -6.5270
  45   2.0000      -0.231957        -6.3119
  46   2.0000      -0.218603        -5.9485
  47   2.0000      -0.207624        -5.6497
  48   0.0000       0.007921         0.2155
  49   0.0000       0.020736         0.5642
  50   0.0000       0.034904         0.9498
  51   0.0000       0.053078         1.4443
  52   0.0000       0.058658         1.5962

MULLIKEN ATOMIC CHARGES
-----------------------
   0 C :    0.116274
   1 C :   -0.034761
   2 H :    0.069282
   3 C :    0.064741
   4 H :    0.059812
   5 C :    0.064991
   6 H :    0.058597
   7 C :    0.039748
   8 H :    0.044097
   9 C :    0.170336
  10 H :    0.057509
  11 O :   -0.306103
  12 O :   -0.391730
  13 O :   -0.422700
  14 O :   -0.425997
  15 O :   -0.430692
  16 O :   -0.443740
  17 H :    0.090786
  18 H :    0.060256
  19 H :    0.308684
  20 H :    0.309414
  21 H :    0.317452
  22 H :    0.321565
  23 H :    0.302178
Sum of atomic charges:   -0.0000000

LOEWDIN ATOMIC CHARGES
----------------------
   0 C :   -0.117469
   1 C :   -0.066052
   2 H :    0.110036
   3 C :   -0.067937
   4 H :    0.105831
   5 C :   -0.079042
   6 H :    0.106039
   7 C :   -0.100279
   8 H :    0.100757
   9 C :   -0.001117
  10 H :    0.097458
  11 O :   -0.142491
  12 O :   -0.300525
  13 O :   -0.325215
  14 O :   -0.324912
  15 O :   -0.312713
  16 O :   -0.337638
  17 H :    0.115163
  18 H :    0.095094
  19 H :    0.292561
  20 H :    0.288931
  21 H :    0.294798
  22 H :    0.295252
  23 H :    0.273469

  Mayer bond orders larger than 0.100000
B(  0-C ,  1-C ) :   1.0404 B(  0-C , 16-O ) :   1.0940 B(  0-C , 17-H ) :   0.9214
B(  0-C , 18-H ) :   0.9017 B(  1-C ,  2-H ) :   0.8776 B(  1-C ,  3-C ) :   1.0247
B(  1-C , 11-O ) :   0.9722 B(  3-C ,  4-H ) :   0.8665 B(  3-C ,  5-C ) :   1.0235
B(  3-C , 15-O ) :   1.0349 B(  5-C ,  6-H ) :   0.8740 B(  5-C ,  7-C ) :   1.0097
B(  5-C , 14-O ) :   1.0772 B(  7-C ,  8-H ) :   0.8577 B(  7-C ,  9-C ) :   0.9843
B(  7-C , 13-O ) :   1.0757 B(  9-C , 10-H ) :   0.8795 B(  9-C , 11-O ) :   1.0287
B(  9-C , 12-O ) :   1.1102 B( 12-O , 19-H ) :   0.8403 B( 13-O , 20-H ) :   0.8308
B( 14-O , 21-H ) :   0.8360 B( 15-O , 22-H ) :   0.8261 B( 16-O , 23-H ) :   0.8196

Dispersion correction           -0.023907228
FINAL SINGLE POINT ENERGY      -685.703876348505

DIPOLE MOMENT
-------------

Method             : SCF
Type of density    : Electron Density
Multiplicity       :   1
Irrep              :   0
Energy             :  -685.8364302075714249 Eh
Relativity type    :
Basis              : AO
                                X                 Y                 Z
Electronic contribution:      1.860191844       0.062195338       0.245937864
Nuclear contribution   :     -0.828251047       0.209261300      -0.689245186
                        -----------------------------------------
Total Dipole Moment    :      1.031940797       0.271456638      -0.443307323
                        -----------------------------------------
Magnitude (a.u.)       :      1.155470422
Magnitude (Debye)      :      2.936972409

Rotational constants in cm-1:             0.043796             0.024623             0.016479
Rotational constants in MHz :          1312.961722           738.169772           494.041031

                             ****ORCA TERMINATED NORMALLY****
TOTAL RUN TIME: 0 days 0 hours 0 minutes 8 seconds 21 msec
