                         Program Version 6.0.1  -  RELEASE   -
|  1> ! r2scan-3c def2/J RI DEFGRID2 scfconv6 printgap
|  2> %output
|  3>     printlevel normal
|  4> end
|  5> * xyz 0 1
|  6> C -2.3653728818 0.1123584797 0.1438568072
|  7> C -0.9220339048 0.4188271455 -0.237792567
|  8> C 0.0025334346 -0.717383117 0.0828452677
|  9> C 1.3222082435 -0.6179499664 0.1368544991
| 10> C 2.0793381643 0.649924861 -0.1108256337
| 11> H -3.0121509862 0.953495762 -0.096393813
| 12> H -2.4419058212 -0.0854006051 1.211000619
| 13> H -2.7261331291 -0.7617564966 -0.3942627286
| 14> H -0.8682705759 0.632257908 -1.3111352599
| 15> H -0.5880757854 1.3199355915 0.2835392185
| 16> H -0.4713565368 -1.6714824909 0.268638721
| 17> H 1.9133838312 -1.4906958369 0.3769518676
| 18> H 1.7732378731 1.1034155584 -1.0528842297
| 19> H 3.1492330088 0.4644207373 -0.144618948
| 20> H 1.8816620194 1.3736584827 0.6811460965
| 21> *
| 22>
| 23>                          ****END OF INPUT****

CARTESIAN COORDINATES (ANGSTROEM)
---------------------------------
  C     -2.365373    0.112358    0.143857
  C     -0.922034    0.418827   -0.237793
  C      0.002533   -0.717383    0.082845
  C      1.322208   -0.617950    0.136854
  C      2.079338    0.649925   -0.110826
  H     -3.012151    0.953496   -0.096394
  H     -2.441906   -0.085401    1.211001
  H     -2.726133   -0.761756   -0.394263
  H     -0.868271    0.632258   -1.311135
  H     -0.588076    1.319936    0.283539
  H     -0.471357   -1.671482    0.268639
  H      1.913384   -1.490696    0.376952
  H      1.773238    1.103416   -1.052884
  H      3.149233    0.464421   -0.144619
  H      1.881662    1.373658    0.681146

 Total Charge           Charge          ....    0
 Multiplicity           Mult            ....    1
 Number of Electrons    NEL             ....   40
 Basis Dimension        Dim             ....  145

ORBITAL ENERGIES
----------------

  NO   OCC          E(Eh)            E(eV)
   0   2.0000     -10.028356      -272.8854
   1   2.0000     -10.021743      -272.7055
   2   2.0000     -10.021567      -272.7007
   3   2.0000     -10.018586      -272.6196
   4   2.0000     -10.017888      -272.6006
   5   2.0000      -0.772991       -21.0341
   6   2.0000      -0.718106       -19.5407
   7   2.0000      -0.645914       -17.5762
   8   2.0000      -0.581589       -15.8258
   9   2.0000      -0.495731       -13.4895
  10   2.0000      -0.439170       -11.9504
  11   2.0000      -0.415997       -11.3199
  12   2.0000      -0.397501       -10.8166
  13   2.0000      -0.379142       -10.3170
  14   2.0000      -0.348798        -9.4913
  15   2.0000      -0.338699        -9.2165
  16   2.0000      -0.323030        -8.7901
  17   2.0000      -0.315391        -8.5822
  18   2.0000      -0.291467        -7.9312
  19   2.0000      -0.216534        -5.8922
  20   0.0000      -0.006135        -0.1669
  21   0.0000       0.095173         2.5898
  22   0.0000       0.110999         3.0204
  23   0.0000       0.129695         3.5292
  24   0.0000       0.143223         3.8973

MULLIKEN ATOMIC CHARGES
-----------------------
   0 C :   -0.481878
   1 C :   -0.229947
   2 C :   -0.169163
   3 C :   -0.139019
   4 C :   -0.485113
   5 H :    0.144382
   6 H :    0.151231
   7 H :    0.142155
   8 H :    0.156081
   9 H :    0.143069
  10 H :    0.150679
  11 H :    0.152797
  12 H :    0.154325
  13 H :    0.146172
  14 H :    0.164228
Sum of atomic charges:   -0.0000000

LOEWDIN ATOMIC CHARGES
----------------------
   0 C :   -0.421653
   1 C :   -0.309294
   2 C :   -0.212666
   3 C :   -0.214280
   4 C :   -0.419422
   5 H :    0.150186
   6 H :    0.152388
   7 H :    0.150853
   8 H :    0.162250
   9 H :    0.159355
  10 H :    0.164135
  11 H :    0.160326
  12 H :    0.160467
  13 H :    0.155192
  14 H :    0.162164

  Mayer bond orders larger than 0.100000
B(  0-C ,  1-C ) :   0.8949 B(  0-C ,  5-H ) :   0.9754 B(  0-C ,  6-H ) :   0.9883
B(  0-C ,  7-H ) :   0.9748 B(  1-C ,  2-C ) :   0.9207 B(  1-C ,  8-H ) :   0.9633
B(  1-C ,  9-H ) :   0.9775 B(  2-C ,  3-C ) :   1.9428 B(  2-C , 10-H ) :   0.9521
B(  3-C ,  4-C ) :   0.8978 B(  3-C , 11-H ) :   0.9519 B(  4-C , 12-H ) :   0.9773
B(  4-C , 13-H ) :   0.9736 B(  4-C , 14-H ) :   0.9762

Dispersion correction           -0.003242809
FINAL SINGLE POINT ENERGY      -196.458485662762

DIPOLE MOMENT
-------------

Method             : SCF
Type of density    : Electron Density
Multiplicity       :   1
Irrep              :   0
Energy             :  -196.4613557662704579 Eh
Relativity type    :
Basis              : AO
                                X                 Y                 Z
Electronic contribution:      1.300697296      -1.574312911       0.126117772
Nuclear contribution   :     -1.304399470       1.724201639      -0.167010336
                        -----------------------------------------
Total Dipole Moment    :     -0.003702174       0.149888728      -0.040892564
                        -----------------------------------------
Magnitude (a.u.)       :      0.155410870
Magnitude (Debye)      :      0.395023039

Rotational constants in cm-1:             0.458352             0.084164             0.074562
Rotational constants in MHz :         13741.036523          2523.171079          2235.317223

                             ****ORCA TERMINATED NORMALLY****
TOTAL RUN TIME: 0 days 0 hours 0 minutes 9 seconds 704 msec
