                         Program Version 6.0.1  -  RELEASE   -
|  1> ! pbe def2-sv(p) def2/J RI DEFGRID1 loosescf d4 GCP(DFT/SV(P)) printgap
|  2> %output
|  3>     printlevel normal
|  4> end
|  5> * xyz 0 1
|  6> C -2.3547234666 -0.7861960163 -0.1169542532
|  7> C -0.9987388643 -0.2782906571 0.3997792135
|  8> H -1.1341981118 0.0875267662 1.4307261719
|  9> C -0.5199001655 0.8963658247 -0.4568068496
| 10> H -0.5182458061 0.5831341426 -1.5139609338
| 11> C 0.9131747241 1.3433070474 -0.0896281198
| 12> H 0.8568246557 2.1029188435 0.6989501837
| 13> C 1.7728990018 0.1699490089 0.4383489305
| 14> H 2.7983135854 0.3086509588 0.0812021867
| 15> C 1.1995252368 -1.1452111163 -0.100421536
| 16> H 1.7935011859 -1.9967336506 0.268089287
| 17> O -0.0769617 -1.3693776143 0.4252130128
| 18> O 1.2189423689 -1.0968470452 -1.4992206295
| 19> O 1.8392834016 0.1256923449 1.8362949083
| 20> O 1.515617261 1.9722664742 -1.1910617117
| 21> O -1.4376805422 1.9478384282 -0.2745124086
| 22> O -2.9430316837 -1.7492603163 0.7110249602
| 23> H -2.2143808762 -1.2754185027 -1.0832444329
| 24> H -3.0082848746 0.087216991 -0.2436585165
| 25> H 0.8210533309 -1.9071903283 -1.8405300469
| 26> H 1.0531785807 -0.3244170723 2.1710262322
| 27> H 1.6879773167 1.298501136 -1.8617430841
| 28> H -1.0784545424 2.7298560981 -0.7116214918
| 29> H -3.0471725139 -1.3828899278 1.5962997367
| 30> *
| 31>
| 32>                          ****END OF INPUT****

CARTESIAN COORDINATES (ANGSTROEM)
---------------------------------
  C     -2.354723   -0.786196   -0.116954
  C     -0.998739   -0.278291    0.399779
  H     -1.134198    0.087527    1.430726
  C     -0.519900    0.896366   -0.456807
  H     -0.518246    0.583134   -1.513961
  C      0.913175    1.343307   -0.089628
  H      0.856825    2.102919    0.698950
  C      1.772899    0.169949    0.438349
  H      2.798314    0.308651    0.081202
  C      1.199525   -1.145211   -0.100422
  H      1.793501   -1.996734    0.268089
  O     -0.076962   -1.369378    0.425213
  O      1.218942   -1.096847   -1.499221
  O      1.839283    0.125692    1.836295
  O      1.515617    1.972266   -1.191062
  O     -1.437681    1.947838   -0.274512
  O     -2.943032   -1.749260    0.711025
  H     -2.214381   -1.275419   -1.083244
  H     -3.008285    0.087217   -0.243659
  H      0.821053   -1.907190   -1.840530
  H      1.053179   -0.324417    2.171026
  H      1.687977    1.298501   -1.861743
  H     -1.078455    2.729856   -0.711621
  H     -3.047173   -1.382890    1.596300

 Total Charge           Charge          ....    0
 Multiplicity           Mult            ....    1
 Number of Electrons    NEL             ....   96
 Basis Dimension        Dim             ....  192

ORBITAL ENERGIES
----------------

  NO   OCC          E(Eh)            E(eV)
   0   2.0000     -18.783700      -511.1305
   1   2.0000     -18.783328      -511.1203
   2   2.0000     -18.757697      -510.4229
   3   2.0000     -18.756961      -510.4028
   4   2.0000     -18.752255      -510.2748
   5   2.0000     -18.745861      -510.1008
   6   2.0000      -9.997396      -272.0430
   7   2.0000      -9.953444      -270.8470
   8   2.0000      -9.946250      -270.6512
   9   2.0000      -9.945624      -270.6342
  10   2.0000      -9.940587      -270.4971
  11   2.0000      -9.931664      -270.2543
  12   2.0000      -0.998206       -27.1626
  13   2.0000      -0.946298       -25.7501
  14   2.0000      -0.937939       -25.5226
  15   2.0000      -0.934366       -25.4254
  16   2.0000      -0.923751       -25.1366
  17   2.0000      -0.918680       -24.9986
  18   2.0000      -0.710848       -19.3431
  19   2.0000      -0.693591       -18.8736
  20   2.0000      -0.622240       -16.9320
  21   2.0000      -0.595226       -16.1969
  22   2.0000      -0.574437       -15.6312
  23   2.0000      -0.534754       -14.5514
  24   2.0000      -0.517765       -14.0891
  25   2.0000      -0.488952       -13.3050
  26   2.0000      -0.468832       -12.7576
  27   2.0000      -0.466806       -12.7024
  28   2.0000      -0.452053       -12.3010
  29   2.0000      -0.428899       -11.6709
  30   2.0000      -0.419770       -11.4225
  31   2.0000      -0.412336       -11.2202
  32   2.0000      -0.389280       -10.5928
  33   2.0000      -0.374071       -10.1790
  34   2.0000      -0.367017        -9.9870
  35   2.0000      -0.362427        -9.8621
  36   2.0000      -0.349689        -9.5155
  37   2.0000      -0.315418        -8.5829
  38   2.0000      -0.308428        -8.3927
  39   2.0000      -0.296146        -8.0585
  40   2.0000      -0.286609        -7.7990
  41   2.0000      -0.272979        -7.4281
  42   2.0000      -0.266659        -7.2562
  43   2.0000      -0.247086        -6.7236
  44   2.0000      -0.242834        -6.6079
  45   2.0000      -0.234060        -6.3691
  46   2.0000      -0.214543        -5.8380
  47   2.0000      -0.200347        -5.4517
  48   0.0000       0.006966         0.1896
  49   0.0000       0.019420         0.5285
  50   0.0000       0.035267         0.9597
  51   0.0000       0.040230         1.0947
  52   0.0000       0.056422         1.5353

MULLIKEN ATOMIC CHARGES
-----------------------
   0 C :    0.089778
   1 C :   -0.014673
   2 H :    0.046631
   3 C :    0.061008
   4 H :    0.044891
   5 C :    0.084157
   6 H :    0.068861
   7 C :    0.026017
   8 H :    0.082473
   9 C :    0.131511
  10 H :    0.079281
  11 O :   -0.303539
  12 O :   -0.400890
  13 O :   -0.411430
  14 O :   -0.429131
  15 O :   -0.414250
  16 O :   -0.423620
  17 H :    0.065979
  18 H :    0.093626
  19 H :    0.311209
  20 H :    0.305639
  21 H :    0.304331
  22 H :    0.308640
  23 H :    0.293501
Sum of atomic charges:   -0.0000000

LOEWDIN ATOMIC CHARGES
----------------------
   0 C :   -0.129193
   1 C :   -0.073772
   2 H :    0.099343
   3 C :   -0.082132
   4 H :    0.102109
   5 C :   -0.080346
   6 H :    0.120454
   7 C :   -0.085908
   8 H :    0.122108
   9 C :   -0.014460
  10 H :    0.102948
  11 O :   -0.140508
  12 O :   -0.315527
  13 O :   -0.305044
  14 O :   -0.315543
  15 O :   -0.319248
  16 O :   -0.330796
  17 H :    0.111355
  18 H :    0.106954
  19 H :    0.291055
  20 H :    0.282083
  21 H :    0.281402
  22 H :    0.290593
  23 H :    0.282074

  Mayer bond orders larger than 0.100000
B(  0-C ,  1-C ) :   1.0480 B(  0-C , 16-O ) :   1.0870 B(  0-C , 17-H ) :   0.9041
B(  0-C , 18-H ) :   0.9119 B(  1-C ,  2-H ) :   0.8670 B(  1-C ,  3-C ) :   1.0204
B(  1-C , 11-O ) :   0.9565 B(  3-C ,  4-H ) :   0.8519 B(  3-C ,  5-C ) :   1.0267
B(  3-C , 15-O ) :   1.0482 B(  5-C ,  6-H ) :   0.8598 B(  5-C ,  7-C ) :   0.9632
B(  5-C , 14-O ) :   1.0225 B(  7-C ,  8-H ) :   0.8837 B(  7-C ,  9-C ) :   1.0487
B(  7-C , 13-O ) :   1.0606 B(  9-C , 10-H ) :   0.8990 B(  9-C , 11-O ) :   1.0666
B(  9-C , 12-O ) :   1.0997 B( 12-O , 19-H ) :   0.8362 B( 13-O , 20-H ) :   0.8367
B( 14-O , 21-H ) :   0.8416 B( 15-O , 22-H ) :   0.8414 B( 16-O , 23-H ) :   0.8542

Dispersion correction           -0.024781657
FINAL SINGLE POINT ENERGY      -685.688472825572

DIPOLE MOMENT
-------------

Method             : SCF
Type of density    : Electron Density
Multiplicity       :   1
Irrep              :   0
Energy             :  -685.8199327171770392 Eh
Relativity type    :
Basis              : AO
                                X                 Y                 Z
Electronic contribution:      1.792139113      -0.534152863       0.569351354
Nuclear contribution   :     -1.865132539       0.289402912      -0.945996817
                        -----------------------------------------
Total Dipole Moment    :     -0.072993426      -0.244749951      -0.376645463
                        -----------------------------------------
Magnitude (a.u.)       :      0.455074042
Magnitude (Debye)      :      1.156706290

Rotational constants in cm-1:             0.041245             0.025568             0.021208
Rotational constants in MHz :          1236.495190           766.508321           635.804579

                             ****ORCA TERMINATED NORMALLY****
TOTAL RUN TIME: 0 days 0 hours 0 minutes 7 seconds 822 msec
