                         Program Version 6.0.1  -  RELEASE   -
|  1> ! pbe def2-sv(p) def2/J RI DEFGRID1 loosescf d4 GCP(DFT/SV(P)) printgap
|  2> %output
|  3>     printlevel normal
|  4> end
|  5> * xyz 0 1
|  6> C -0.3482748697 -1.0664082596 -0.0002142401
|  7> C 1.0246102584 -1.1385751453 -1.52803e-05
|  8> C 1.782167378 0.0344498362 7.42906e-05
|  9> C 1.141701924 1.2727612701 -0.0003562992
| 10> C -0.2353228974 1.3388431858 -0.0005402206
| 11> C -0.9986378684 0.1718249252 -0.0003745012
| 12> C -2.459363317 0.2341317686 -0.0002318938
| 13> O -3.2022248828 -0.7159053905 0.0008233257
| 14> O 3.1288185743 -0.0773421277 0.0005372332
| 15> H -0.9508205915 -1.9618965455 -0.0004840001
| 16> H 1.5410734309 -2.0851005029 0.0003001098
| 17> H 1.7320022509 2.1798584081 -0.0004344501
| 18> H -0.7279676141 2.3005830827 -0.0006163843
| 19> H -2.8602252364 1.2687390247 -0.0010477619
| 20> H 3.5408796303 0.7959176019 0.0004448531
| 21> *
| 22>
| 23>                          ****END OF INPUT****

CARTESIAN COORDINATES (ANGSTROEM)
---------------------------------
  C     -0.348275   -1.066408   -0.000214
  C      1.024610   -1.138575   -0.000015
  C      1.782167    0.034450    0.000074
  C      1.141702    1.272761   -0.000356
  C     -0.235323    1.338843   -0.000540
  C     -0.998638    0.171825   -0.000375
  C     -2.459363    0.234132   -0.000232
  O     -3.202225   -0.715905    0.000823
  O      3.128819   -0.077342    0.000537
  H     -0.950821   -1.961897   -0.000484
  H      1.541073   -2.085101    0.000300
  H      1.732002    2.179858   -0.000434
  H     -0.727968    2.300583   -0.000616
  H     -2.860225    1.268739   -0.001048
  H      3.540880    0.795918    0.000445

 Total Charge           Charge          ....    0
 Multiplicity           Mult            ....    1
 Number of Electrons    NEL             ....   64
 Basis Dimension        Dim             ....  138

ORBITAL ENERGIES
----------------

  NO   OCC          E(Eh)            E(eV)
   0   2.0000     -18.807125      -511.7679
   1   2.0000     -18.741675      -509.9869
   2   2.0000      -9.977567      -271.5034
   3   2.0000      -9.963070      -271.1089
   4   2.0000      -9.916044      -269.8293
   5   2.0000      -9.911548      -269.7069
   6   2.0000      -9.907659      -269.6011
   7   2.0000      -9.904227      -269.5077
   8   2.0000      -9.902737      -269.4672
   9   2.0000      -0.990173       -26.9440
  10   2.0000      -0.937631       -25.5142
  11   2.0000      -0.791140       -21.5280
  12   2.0000      -0.696191       -18.9443
  13   2.0000      -0.689426       -18.7602
  14   2.0000      -0.600800       -16.3486
  15   2.0000      -0.566881       -15.4256
  16   2.0000      -0.527913       -14.3652
  17   2.0000      -0.512896       -13.9566
  18   2.0000      -0.448221       -12.1967
  19   2.0000      -0.435823       -11.8594
  20   2.0000      -0.408183       -11.1072
  21   2.0000      -0.395102       -10.7513
  22   2.0000      -0.388580       -10.5738
  23   2.0000      -0.372473       -10.1355
  24   2.0000      -0.359792        -9.7904
  25   2.0000      -0.357728        -9.7343
  26   2.0000      -0.340220        -9.2579
  27   2.0000      -0.310072        -8.4375
  28   2.0000      -0.305991        -8.3265
  29   2.0000      -0.248725        -6.7682
  30   2.0000      -0.216932        -5.9030
  31   2.0000      -0.201649        -5.4871
  32   0.0000      -0.084331        -2.2948
  33   0.0000      -0.051314        -1.3963
  34   0.0000       0.007811         0.2125
  35   0.0000       0.010814         0.2943
  36   0.0000       0.043903         1.1947

MULLIKEN ATOMIC CHARGES
-----------------------
   0 C :   -0.094359
   1 C :   -0.109604
   2 C :    0.243378
   3 C :   -0.147991
   4 C :   -0.105792
   5 C :    0.093142
   6 C :    0.032277
   7 O :   -0.160498
   8 O :   -0.312999
   9 H :    0.065918
  10 H :    0.056820
  11 H :    0.036895
  12 H :    0.053867
  13 H :    0.026702
  14 H :    0.322244
Sum of atomic charges:   -0.0000000

LOEWDIN ATOMIC CHARGES
----------------------
   0 C :   -0.072084
   1 C :   -0.139937
   2 C :    0.037198
   3 C :   -0.174237
   4 C :   -0.088733
   5 C :   -0.116093
   6 C :   -0.004603
   7 O :   -0.127916
   8 O :   -0.213371
   9 H :    0.136035
  10 H :    0.135707
  11 H :    0.123715
  12 H :    0.128304
  13 H :    0.073952
  14 H :    0.302064

  Mayer bond orders larger than 0.100000
B(  0-C ,  1-C ) :   1.3849 B(  0-C ,  5-C ) :   1.3124 B(  0-C ,  9-H ) :   0.9614
B(  1-C ,  2-C ) :   1.3204 B(  1-C , 10-H ) :   0.9699 B(  2-C ,  3-C ) :   1.2948
B(  2-C ,  8-O ) :   1.2145 B(  3-C ,  4-C ) :   1.3797 B(  3-C , 11-H ) :   0.9564
B(  4-C ,  5-C ) :   1.3153 B(  4-C , 12-H ) :   0.9559 B(  5-C ,  6-C ) :   1.0042
B(  6-C ,  7-O ) :   2.1404 B(  6-C , 13-H ) :   0.9122 B(  8-O , 14-H ) :   0.8391

Dispersion correction           -0.015444134
FINAL SINGLE POINT ENERGY      -419.927821733984

DIPOLE MOMENT
-------------

Method             : SCF
Type of density    : Electron Density
Multiplicity       :   1
Irrep              :   0
Energy             :  -419.9741868255164263 Eh
Relativity type    :
Basis              : AO
                                X                 Y                 Z
Electronic contribution:     -0.665597022      -1.281177431       0.001051772
Nuclear contribution   :      2.133199282       2.331901657      -0.001703869
                        -----------------------------------------
Total Dipole Moment    :      1.467602259       1.050724227      -0.000652097
                        -----------------------------------------
Magnitude (a.u.)       :      1.804959340
Magnitude (Debye)      :      4.587842039

Rotational constants in cm-1:             0.171743             0.033473             0.028013
Rotational constants in MHz :          5148.729385          1003.491079           839.811311

                             ****ORCA TERMINATED NORMALLY****
TOTAL RUN TIME: 0 days 0 hours 0 minutes 11 seconds 478 msec
