                         Program Version 6.0.0  -   RELEASE  -
|  1> ! r2SCAN-3c DEF2-TZVP FREQ
|  2> * xyzfile 0 1 censo.xyz
|  3>
|  4>                          ****END OF INPUT****

CARTESIAN COORDINATES (ANGSTROEM)
---------------------------------
  C     -2.565596   -0.000004   -0.000319
  C     -1.873301   -1.210179    0.000071
  C     -0.485186   -1.220944    0.000611
  C      0.183157    0.000011    0.000778
  C     -0.485197    1.220962    0.000417
  C     -1.873315    1.210179   -0.000131
  N      1.647399   -0.000020    0.000121
  O      2.231974   -1.082755   -0.000937
  O      2.232026    1.082737   -0.000852
  H     -3.650496   -0.000011   -0.000862
  H     -2.415617   -2.149211   -0.000194
  H      0.068295   -2.151210    0.000740
  H      0.068283    2.151237    0.000388
  H     -2.415644    2.149206   -0.000557

 Total Charge           Charge          ....    0
 Multiplicity           Mult            ....    1
 Number of Electrons    NEL             ....   64
 Basis Dimension        Dim             ....  309

ORBITAL ENERGIES
----------------

  NO   OCC          E(Eh)            E(eV)
   0   2.0000     -18.984502      -516.5946
   1   2.0000     -18.984298      -516.5890
   2   2.0000     -14.394084      -391.6829
   3   2.0000     -10.108371      -275.0628
   4   2.0000     -10.072346      -274.0825
   5   2.0000     -10.072326      -274.0819
   6   2.0000     -10.071600      -274.0622
   7   2.0000     -10.068592      -273.9803
   8   2.0000     -10.068556      -273.9793
   9   2.0000      -1.190360       -32.3913
  10   2.0000      -1.015441       -27.6316
  11   2.0000      -0.865058       -23.5394
  12   2.0000      -0.781643       -21.2696
  13   2.0000      -0.749438       -20.3932
  14   2.0000      -0.677045       -18.4233
  15   2.0000      -0.607390       -16.5279
  16   2.0000      -0.573065       -15.5939
  17   2.0000      -0.533849       -14.5268
  18   2.0000      -0.504798       -13.7362
  19   2.0000      -0.484804       -13.1922
  20   2.0000      -0.484039       -13.1714
  21   2.0000      -0.445783       -12.1304
  22   2.0000      -0.440610       -11.9896
  23   2.0000      -0.423433       -11.5222
  24   2.0000      -0.376413       -10.2427
  25   2.0000      -0.363205        -9.8833
  26   2.0000      -0.346847        -9.4382
  27   2.0000      -0.291585        -7.9344
  28   2.0000      -0.280537        -7.6338
  29   2.0000      -0.273151        -7.4328
  30   2.0000      -0.269303        -7.3281
  31   2.0000      -0.258114        -7.0236
  32   0.0000      -0.125579        -3.4172
  33   0.0000      -0.064344        -1.7509
  34   0.0000      -0.037149        -1.0109
  35   0.0000       0.037332         1.0159
  36   0.0000       0.084031         2.2866

MULLIKEN ATOMIC CHARGES
-----------------------
   0 C :   -0.111932
   1 C :   -0.057890
   2 C :   -0.174947
   3 C :    0.060873
   4 C :   -0.174952
   5 C :   -0.057857
   6 N :    0.523469
   7 O :   -0.343971
   8 O :   -0.343780
   9 H :    0.124515
  10 H :    0.126025
  11 H :    0.152209
  12 H :    0.152209
  13 H :    0.126029
Sum of atomic charges:    0.0000000

LOEWDIN ATOMIC CHARGES
----------------------
   0 C :   -0.113714
   1 C :   -0.123841
   2 C :   -0.087626
   3 C :   -0.159104
   4 C :   -0.087606
   5 C :   -0.123833
   6 N :   -0.022067
   7 O :   -0.024229
   8 O :   -0.024084
   9 H :    0.148366
  10 H :    0.149297
  11 H :    0.159571
  12 H :    0.159574
  13 H :    0.149297

  Mayer bond orders larger than 0.100000
B(  0-C ,  1-C ) :   1.3818 B(  0-C ,  5-C ) :   1.3818 B(  0-C ,  9-H ) :   0.9657
B(  1-C ,  2-C ) :   1.4082 B(  1-C , 10-H ) :   0.9664 B(  2-C ,  3-C ) :   1.3838
B(  2-C , 11-H ) :   0.9426 B(  3-C ,  4-C ) :   1.3838 B(  3-C ,  6-N ) :   0.9719
B(  4-C ,  5-C ) :   1.4082 B(  4-C , 12-H ) :   0.9426 B(  5-C , 13-H ) :   0.9664
B(  6-N ,  7-O ) :   1.5257 B(  6-N ,  8-O ) :   1.5258 B(  7-O ,  8-O ) :   0.2178

Dispersion correction           -0.004651496
FINAL SINGLE POINT ENERGY      -436.703711266159

DIPOLE MOMENT
-------------

Method             : SCF
Type of density    : Electron Density
Multiplicity       :   1
Irrep              :   0
Energy             :  -436.7079440150503729 Eh
Relativity type    :
Basis              : AO
                                X                 Y                 Z
Electronic contribution:      5.905792951       0.000420796       0.000854372
Nuclear contribution   :     -7.785304065       0.000019414      -0.000085028
                        -----------------------------------------
Total Dipole Moment    :     -1.879511114       0.000440210       0.000769343
                        -----------------------------------------
Magnitude (a.u.)       :      1.879511323
Magnitude (Debye)      :      4.777338123

VIBRATIONAL FREQUENCIES
-----------------------

Scaling factor for frequencies =  1.000000000  (already applied!)

     0:       0.00 cm**-1
     1:       0.00 cm**-1
     2:       0.00 cm**-1
     3:       0.00 cm**-1
     4:       0.00 cm**-1
     5:       0.00 cm**-1
     6:      81.79 cm**-1
     7:     170.48 cm**-1
     8:     268.88 cm**-1
     9:     400.63 cm**-1
    10:     413.14 cm**-1
    11:     449.92 cm**-1
    12:     529.75 cm**-1
    13:     626.96 cm**-1
    14:     694.13 cm**-1
    15:     701.11 cm**-1
    16:     721.25 cm**-1
    17:     813.26 cm**-1
    18:     847.74 cm**-1
    19:     873.16 cm**-1
    20:     952.78 cm**-1
    21:     976.84 cm**-1
    22:     997.49 cm**-1
    23:    1024.54 cm**-1
    24:    1041.47 cm**-1
    25:    1103.53 cm**-1
    26:    1125.42 cm**-1
    27:    1184.76 cm**-1
    28:    1198.67 cm**-1
    29:    1331.03 cm**-1
    30:    1345.57 cm**-1
    31:    1365.33 cm**-1
    32:    1480.20 cm**-1
    33:    1504.36 cm**-1
    34:    1534.89 cm**-1
    35:    1623.20 cm**-1
    36:    1637.95 cm**-1
    37:    3170.02 cm**-1
    38:    3182.36 cm**-1
    39:    3190.65 cm**-1
    40:    3215.50 cm**-1
    41:    3216.19 cm**-1

IR SPECTRUM
-----------

 Mode   freq       eps      Int      T**2         TX        TY        TZ
       cm**-1   L/(mol*cm) km/mol    a.u.
----------------------------------------------------------------------------
  6:     81.79   0.000000    0.00  0.000000  ( 0.000002 -0.000108  0.000049)
  7:    170.48   0.000166    0.84  0.000304  (-0.000117 -0.000056  0.017434)
  8:    268.88   0.000168    0.85  0.000195  (-0.000002 -0.013949  0.000002)
  9:    400.63   0.000159    0.80  0.000124  ( 0.011132 -0.000019 -0.000020)
 10:    413.14   0.000000    0.00  0.000000  ( 0.000022 -0.000146  0.000017)
 11:    449.92   0.000131    0.66  0.000091  ( 0.000008  0.000028 -0.009523)
 12:    529.75   0.000267    1.35  0.000158  (-0.000006 -0.012551  0.000006)
 13:    626.96   0.000011    0.05  0.000005  ( 0.000002 -0.002314  0.000001)
 14:    694.13   0.005775   29.18  0.002596  (-0.000062 -0.000014  0.050952)
 15:    701.11   0.001724    8.71  0.000767  (-0.027701  0.000006 -0.000383)
 16:    721.25   0.011848   59.88  0.005126  ( 0.000067 -0.000032  0.071599)
 17:    813.26   0.001283    6.48  0.000492  ( 0.000085  0.000025 -0.022184)
 18:    847.74   0.000000    0.00  0.000000  (-0.000001 -0.000036  0.000001)
 19:    873.16   0.005231   26.43  0.001869  (-0.043238 -0.000016  0.000035)
 20:    952.78   0.000648    3.27  0.000212  ( 0.000088  0.000031 -0.014566)
 21:    976.84   0.000000    0.00  0.000000  ( 0.000002 -0.000145 -0.000007)
 22:    997.49   0.000034    0.17  0.000011  ( 0.000005 -0.000018  0.003255)
 23:   1024.54   0.000122    0.62  0.000037  ( 0.006100  0.000005 -0.000002)
 24:   1041.47   0.001487    7.52  0.000446  (-0.021112  0.000011 -0.000003)
 25:   1103.53   0.002044   10.33  0.000578  ( 0.000028  0.024040 -0.000001)
 26:   1125.42   0.005163   26.09  0.001432  (-0.037836  0.000008 -0.000005)
 27:   1184.76   0.000056    0.29  0.000015  (-0.000007  0.003858 -0.000000)
 28:   1198.67   0.000895    4.52  0.000233  (-0.015264  0.000011  0.000007)
 29:   1331.03   0.000000    0.00  0.000000  (-0.000016 -0.000236  0.000000)
 30:   1345.57   0.059789  302.15  0.013866  (-0.117755 -0.000110  0.000043)
 31:   1365.33   0.002668   13.48  0.000610  ( 0.000109 -0.024695  0.000001)
 32:   1480.20   0.001772    8.95  0.000374  ( 0.000039 -0.019327 -0.000003)
 33:   1504.36   0.001560    7.88  0.000324  ( 0.017990 -0.000037  0.000004)
 34:   1534.89   0.045143  228.13  0.009178  (-0.000086  0.095803  0.000004)
 35:   1623.20   0.000912    4.61  0.000175  (-0.013245 -0.000016 -0.000007)
 36:   1637.95   0.001437    7.26  0.000274  ( 0.000029 -0.016546 -0.000002)
 37:   3170.02   0.000170    0.86  0.000017  (-0.004088 -0.000006 -0.000003)
 38:   3182.36   0.001827    9.23  0.000179  (-0.000015  0.013383 -0.000001)
 39:   3190.65   0.001545    7.81  0.000151  (-0.012294 -0.000010 -0.000004)
 40:   3215.50   0.000105    0.53  0.000010  ( 0.000492  0.003156 -0.000000)
 41:   3216.19   0.001002    5.06  0.000097  ( 0.009856 -0.000166 -0.000004)

--------------------------
THERMOCHEMISTRY AT 298.15K
--------------------------

Temperature         ...   298.15 K
Pressure            ...     1.00 atm
Total Mass          ...   123.11 AMU
Quasi RRHO          ...     True
Cut-Off Frequency   ...     1.00 cm^-1

Throughout the following assumptions are being made:
  (1) The electronic state is orbitally nondegenerate
  (2) There are no thermally accessible electronically excited states
  (3) Hindered rotations indicated by low frequency modes are not
      treated as such but are treated as vibrations and this may
      cause some error
  (4) All equations used are the standard statistical mechanics
      equations for an ideal gas
  (5) All vibrations are strictly harmonic

freq.      81.79  E(vib)   ...       0.48
freq.     170.48  E(vib)   ...       0.38
freq.     268.88  E(vib)   ...       0.29
freq.     400.63  E(vib)   ...       0.19
freq.     413.14  E(vib)   ...       0.19
freq.     449.92  E(vib)   ...       0.17
freq.     529.75  E(vib)   ...       0.13
freq.     626.96  E(vib)   ...       0.09
freq.     694.13  E(vib)   ...       0.07
freq.     701.11  E(vib)   ...       0.07
freq.     721.25  E(vib)   ...       0.07
freq.     813.26  E(vib)   ...       0.05
freq.     847.74  E(vib)   ...       0.04
freq.     873.16  E(vib)   ...       0.04
freq.     952.78  E(vib)   ...       0.03
freq.     976.84  E(vib)   ...       0.03
freq.     997.49  E(vib)   ...       0.02
freq.    1024.54  E(vib)   ...       0.02
freq.    1041.47  E(vib)   ...       0.02
freq.    1103.53  E(vib)   ...       0.02
freq.    1125.42  E(vib)   ...       0.01
freq.    1184.76  E(vib)   ...       0.01
freq.    1198.67  E(vib)   ...       0.01
freq.    1331.03  E(vib)   ...       0.01
freq.    1345.57  E(vib)   ...       0.01
freq.    1365.33  E(vib)   ...       0.01
freq.    1480.20  E(vib)   ...       0.00
freq.    1504.36  E(vib)   ...       0.00
freq.    1534.89  E(vib)   ...       0.00
freq.    1623.20  E(vib)   ...       0.00
freq.    1637.95  E(vib)   ...       0.00
freq.    3170.02  E(vib)   ...       0.00
freq.    3182.36  E(vib)   ...       0.00
freq.    3190.65  E(vib)   ...       0.00
freq.    3215.50  E(vib)   ...       0.00
freq.    3216.19  E(vib)   ...       0.00

------------
INNER ENERGY
------------

The inner energy is: U= E(el) + E(ZPE) + E(vib) + E(rot) + E(trans)
    E(el)   - is the total energy from the electronic structure calculation
              = E(kin-el) + E(nuc-el) + E(el-el) + E(nuc-nuc)
    E(ZPE)  - the the zero temperature vibrational energy from the frequency calculation
    E(vib)  - the the finite temperature correction to E(ZPE) due to population
              of excited vibrational states
    E(rot)  - is the rotational thermal energy
    E(trans)- is the translational thermal energy

Summary of contributions to the inner energy U:
Electronic energy                ...   -436.70371127 Eh
Zero point energy                ...      0.10250600 Eh      64.32 kcal/mol
Thermal vibrational correction   ...      0.00390537 Eh       2.45 kcal/mol
Thermal rotational correction    ...      0.00141627 Eh       0.89 kcal/mol
Thermal translational correction ...      0.00141627 Eh       0.89 kcal/mol
-----------------------------------------------------------------------
Total thermal energy                   -436.59446736 Eh

Summary of corrections to the electronic energy:
(perhaps to be used in another calculation)
Total thermal correction                  0.00673791 Eh       4.23 kcal/mol
Non-thermal (ZPE) correction              0.10250600 Eh      64.32 kcal/mol
-----------------------------------------------------------------------
Total correction                          0.10924391 Eh      68.55 kcal/mol

--------
ENTHALPY
--------

The enthalpy is H = U + kB*T
                kB is Boltzmann's constant
Total thermal energy              ...   -436.59446736 Eh
Thermal Enthalpy correction       ...      0.00094421 Eh       0.59 kcal/mol
-----------------------------------------------------------------------
Total Enthalpy                    ...   -436.59352315 Eh

Note: Only C1 symmetry has been detected, increase convergence thresholds
      if your molecule has a higher symmetry. Symmetry factor of 1.0 is
      used for the rotational entropy correction.

Note: Rotational entropy computed according to Herzberg
Infrared and Raman Spectra, Chapter V,1, Van Nostrand Reinhold, 1945
Point Group:  C1, Symmetry Number:   1
Rotational constants in cm-1:     0.132586     0.043000     0.032469

Vibrational entropy computed according to the QRRHO of S. Grimme
Chem.Eur.J. 2012 18 9955 using a reference frequency of 100.0 cm-1

-------
ENTROPY
-------

The entropy contributions are T*S = T*(S(el)+S(vib)+S(rot)+S(trans))
     S(el)   - electronic entropy
     S(vib)  - vibrational entropy
     S(rot)  - rotational entropy
     S(trans)- translational entropy
The entropies will be listed as multiplied by the temperature to get
units of energy

Electronic entropy                ...      0.00000000 Eh      0.00 kcal/mol
Vibrational entropy               ...      0.00627975 Eh      3.94 kcal/mol
Rotational entropy                ...      0.01356821 Eh      8.51 kcal/mol
Translational entropy             ...      0.01916571 Eh     12.03 kcal/mol
-----------------------------------------------------------------------
Final entropy term                ...      0.03901367 Eh     24.48 kcal/mol

In case the symmetry of your molecule has not been determined correctly
or in case you have a reason to use a different symmetry number we print
out the resulting rotational entropy values for sn=1,12:

 non-linear molecules -----------------------------------
|  sn= 1 | S(rot)=       0.01356821 Eh      8.51 kcal/mol|
|  sn= 2 | S(rot)=       0.01291376 Eh      8.10 kcal/mol|
|  sn= 3 | S(rot)=       0.01253093 Eh      7.86 kcal/mol|
|  sn= 4 | S(rot)=       0.01225930 Eh      7.69 kcal/mol|
|  sn= 5 | S(rot)=       0.01204861 Eh      7.56 kcal/mol|
|  sn= 6 | S(rot)=       0.01187647 Eh      7.45 kcal/mol|
|  sn= 7 | S(rot)=       0.01173092 Eh      7.36 kcal/mol|
|  sn= 8 | S(rot)=       0.01160484 Eh      7.28 kcal/mol|
|  sn= 9 | S(rot)=       0.01149364 Eh      7.21 kcal/mol|
|  sn=10 | S(rot)=       0.01139416 Eh      7.15 kcal/mol|
|  sn=11 | S(rot)=       0.01130417 Eh      7.09 kcal/mol|
|  sn=12 | S(rot)=       0.01122201 Eh      7.04 kcal/mol|
 linear molecules ---------------------------------------
|  Dinfh | S(rot)=       0.00856195 Eh      5.37 kcal/mol|
|  Cinfv | S(rot)=       0.00921640 Eh      5.78 kcal/mol|
 --------------------------------------------------------

-------------------
GIBBS FREE ENERGY
-------------------

The Gibbs free energy is G = H - T*S

                             ****ORCA TERMINATED NORMALLY****
TOTAL RUN TIME: 0 days 0 hours 9 minutes 52 seconds 998 msec
