                         Program Version 6.0.0  -   RELEASE  -
|  1> ! r2SCAN-3c DEF2-TZVP FREQ
|  2> * xyzfile 0 1 vacuum_censo.xyz
|  3>
|  4>                          ****END OF INPUT****

CARTESIAN COORDINATES (ANGSTROEM)
---------------------------------
  C     -2.570156    0.000002    0.000033
  C     -1.877050   -1.208494    0.000448
  C     -0.487725   -1.217639    0.000382
  C      0.180870   -0.000003   -0.000113
  C     -0.487741    1.217633   -0.000395
  C     -1.877065    1.208502   -0.000395
  N      1.661268    0.000015   -0.000512
  O      2.226736    1.086046    0.000834
  O      2.226686   -1.086070   -0.000251
  H     -3.655158   -0.000002    0.000049
  H     -2.419353   -2.147814    0.000792
  H      0.078446   -2.140298    0.000636
  H      0.078433    2.140300   -0.000715
  H     -2.419370    2.147824   -0.000749

 Total Charge           Charge          ....    0
 Multiplicity           Mult            ....    1
 Number of Electrons    NEL             ....   64
 Basis Dimension        Dim             ....  309

ORBITAL ENERGIES
----------------

  NO   OCC          E(Eh)            E(eV)
   0   2.0000     -18.987055      -516.6640
   1   2.0000     -18.986932      -516.6607
   2   2.0000     -14.395897      -391.7323
   3   2.0000     -10.106053      -274.9997
   4   2.0000     -10.070637      -274.0360
   5   2.0000     -10.070620      -274.0355
   6   2.0000     -10.070139      -274.0224
   7   2.0000     -10.067674      -273.9553
   8   2.0000     -10.067631      -273.9542
   9   2.0000      -1.195267       -32.5249
  10   2.0000      -1.023132       -27.8408
  11   2.0000      -0.863396       -23.4942
  12   2.0000      -0.778198       -21.1758
  13   2.0000      -0.747736       -20.3469
  14   2.0000      -0.674416       -18.3518
  15   2.0000      -0.606842       -16.5130
  16   2.0000      -0.572218       -15.5708
  17   2.0000      -0.535271       -14.5655
  18   2.0000      -0.507520       -13.8103
  19   2.0000      -0.486160       -13.2291
  20   2.0000      -0.483986       -13.1699
  21   2.0000      -0.446220       -12.1423
  22   2.0000      -0.439751       -11.9662
  23   2.0000      -0.421894       -11.4803
  24   2.0000      -0.375854       -10.2275
  25   2.0000      -0.363090        -9.8802
  26   2.0000      -0.345155        -9.3922
  27   2.0000      -0.294986        -8.0270
  28   2.0000      -0.279867        -7.6156
  29   2.0000      -0.272453        -7.4138
  30   2.0000      -0.268005        -7.2928
  31   2.0000      -0.262838        -7.1522
  32   0.0000      -0.123163        -3.3514
  33   0.0000      -0.063444        -1.7264
  34   0.0000      -0.036885        -1.0037
  35   0.0000       0.037678         1.0253
  36   0.0000       0.085106         2.3158

MULLIKEN ATOMIC CHARGES
-----------------------
   0 C :   -0.109206
   1 C :   -0.061653
   2 C :   -0.173018
   3 C :    0.052247
   4 C :   -0.173028
   5 C :   -0.061672
   6 N :    0.530270
   7 O :   -0.341141
   8 O :   -0.341037
   9 H :    0.124138
  10 H :    0.125201
  11 H :    0.151849
  12 H :    0.151849
  13 H :    0.125202
Sum of atomic charges:   -0.0000000

LOEWDIN ATOMIC CHARGES
----------------------
   0 C :   -0.115667
   1 C :   -0.123822
   2 C :   -0.090515
   3 C :   -0.156203
   4 C :   -0.090526
   5 C :   -0.123829
   6 N :   -0.029598
   7 O :   -0.017528
   8 O :   -0.017445
   9 H :    0.148347
  10 H :    0.149158
  11 H :    0.159235
  12 H :    0.159235
  13 H :    0.149158

  Mayer bond orders larger than 0.100000
B(  0-C ,  1-C ) :   1.3838 B(  0-C ,  5-C ) :   1.3838 B(  0-C ,  9-H ) :   0.9659
B(  1-C ,  2-C ) :   1.4052 B(  1-C , 10-H ) :   0.9671 B(  2-C ,  3-C ) :   1.3905
B(  2-C , 11-H ) :   0.9415 B(  3-C ,  4-C ) :   1.3905 B(  3-C ,  6-N ) :   0.9610
B(  4-C ,  5-C ) :   1.4052 B(  4-C , 12-H ) :   0.9415 B(  5-C , 13-H ) :   0.9671
B(  6-N ,  7-O ) :   1.5335 B(  6-N ,  8-O ) :   1.5335 B(  7-O ,  8-O ) :   0.2206

Dispersion correction           -0.004650533
FINAL SINGLE POINT ENERGY      -436.704126874602

DIPOLE MOMENT
-------------

Method             : SCF
Type of density    : Electron Density
Multiplicity       :   1
Irrep              :   0
Energy             :  -436.7083224769315848 Eh
Relativity type    :
Basis              : AO
                                X                 Y                 Z
Electronic contribution:      5.962685152      -0.000250816      -0.000455888
Nuclear contribution   :     -7.770033325       0.000014988      -0.000047104
                        -----------------------------------------
Total Dipole Moment    :     -1.807348173      -0.000235828      -0.000502993
                        -----------------------------------------
Magnitude (a.u.)       :      1.807348259
Magnitude (Debye)      :      4.593914189

VIBRATIONAL FREQUENCIES
-----------------------

Scaling factor for frequencies =  1.000000000  (already applied!)

     0:       0.00 cm**-1
     1:       0.00 cm**-1
     2:       0.00 cm**-1
     3:       0.00 cm**-1
     4:       0.00 cm**-1
     5:       0.00 cm**-1
     6:      70.55 cm**-1
     7:     168.22 cm**-1
     8:     266.85 cm**-1
     9:     395.27 cm**-1
    10:     414.23 cm**-1
    11:     444.06 cm**-1
    12:     529.17 cm**-1
    13:     627.58 cm**-1
    14:     695.07 cm**-1
    15:     696.87 cm**-1
    16:     716.85 cm**-1
    17:     811.39 cm**-1
    18:     848.96 cm**-1
    19:     867.27 cm**-1
    20:     951.82 cm**-1
    21:     976.41 cm**-1
    22:     997.44 cm**-1
    23:    1025.67 cm**-1
    24:    1045.73 cm**-1
    25:    1101.41 cm**-1
    26:    1113.33 cm**-1
    27:    1184.74 cm**-1
    28:    1197.19 cm**-1
    29:    1332.77 cm**-1
    30:    1351.45 cm**-1
    31:    1368.69 cm**-1
    32:    1484.45 cm**-1
    33:    1506.25 cm**-1
    34:    1568.78 cm**-1
    35:    1622.42 cm**-1
    36:    1646.99 cm**-1
    37:    3168.49 cm**-1
    38:    3180.02 cm**-1
    39:    3189.04 cm**-1
    40:    3214.32 cm**-1
    41:    3215.03 cm**-1

IR SPECTRUM
-----------

 Mode   freq       eps      Int      T**2         TX        TY        TZ
       cm**-1   L/(mol*cm) km/mol    a.u.
----------------------------------------------------------------------------
  6:     70.55   0.000000    0.00  0.000000  ( 0.000068 -0.000028  0.000359)
  7:    168.22   0.000159    0.80  0.000295  (-0.000031  0.000198 -0.017164)
  8:    266.85   0.000162    0.82  0.000189  (-0.000001  0.013753 -0.000014)
  9:    395.27   0.000104    0.53  0.000082  ( 0.009073  0.000005  0.000009)
 10:    414.23   0.000000    0.00  0.000000  (-0.000087  0.000082  0.000024)
 11:    444.06   0.000138    0.70  0.000097  ( 0.000011 -0.000158  0.009830)
 12:    529.17   0.000210    1.06  0.000124  ( 0.000004 -0.011133  0.000033)
 13:    627.58   0.000007    0.04  0.000004  ( 0.000000 -0.001909  0.000002)
 14:    695.07   0.005059   25.56  0.002271  (-0.000150  0.000076 -0.047657)
 15:    696.87   0.001401    7.08  0.000627  ( 0.025046  0.000002 -0.000258)
 16:    716.85   0.012327   62.30  0.005366  ( 0.000092  0.000122 -0.073256)
 17:    811.39   0.001559    7.88  0.000599  ( 0.000065 -0.000141  0.024484)
 18:    848.96   0.000000    0.00  0.000000  ( 0.000014 -0.000064  0.000022)
 19:    867.27   0.006856   34.65  0.002467  (-0.049669  0.000003 -0.000009)
 20:    951.82   0.000646    3.26  0.000212  ( 0.000005 -0.000153  0.014549)
 21:    976.41   0.000000    0.00  0.000000  (-0.000002 -0.000043  0.000008)
 22:    997.44   0.000035    0.18  0.000011  (-0.000007  0.000091 -0.003304)
 23:   1025.67   0.000049    0.25  0.000015  ( 0.003861 -0.000002  0.000002)
 24:   1045.73   0.001403    7.09  0.000419  ( 0.020459  0.000008 -0.000000)
 25:   1101.41   0.002015   10.18  0.000571  (-0.000011  0.023894 -0.000004)
 26:   1113.33   0.006894   34.84  0.001932  (-0.043958 -0.000005 -0.000010)
 27:   1184.74   0.000051    0.26  0.000013  ( 0.000004  0.003649 -0.000001)
 28:   1197.19   0.000651    3.29  0.000170  (-0.013024 -0.000007  0.000003)
 29:   1332.77   0.000057    0.29  0.000013  (-0.000032  0.003659 -0.000002)
 30:   1351.45   0.057924  292.72  0.013375  (-0.115651  0.000045 -0.000002)
 31:   1368.69   0.002326   11.76  0.000530  (-0.000055 -0.023030  0.000001)
 32:   1484.45   0.000052    0.26  0.000011  (-0.000003 -0.003299 -0.000015)
 33:   1506.25   0.002208   11.16  0.000457  (-0.021386 -0.000013  0.000005)
 34:   1568.78   0.046956  237.29  0.009340  (-0.000051 -0.096646 -0.000051)
 35:   1622.42   0.000571    2.88  0.000110  (-0.010478  0.000015 -0.000004)
 36:   1646.99   0.003407   17.22  0.000645  ( 0.000022  0.025406  0.000021)
 37:   3168.49   0.000110    0.55  0.000011  (-0.003286 -0.000006 -0.000001)
 38:   3180.02   0.001915    9.68  0.000188  ( 0.000006 -0.013710  0.000004)
 39:   3189.04   0.001711    8.64  0.000167  ( 0.012938  0.000010 -0.000001)
 40:   3214.32   0.000065    0.33  0.000006  ( 0.000547  0.002450  0.000002)
 41:   3215.03   0.001090    5.51  0.000106  ( 0.010283 -0.000128  0.000001)

--------------------------
THERMOCHEMISTRY AT 298.15K
--------------------------

Temperature         ...   298.15 K
Pressure            ...     1.00 atm
Total Mass          ...   123.11 AMU
Quasi RRHO          ...     True
Cut-Off Frequency   ...     1.00 cm^-1

Throughout the following assumptions are being made:
  (1) The electronic state is orbitally nondegenerate
  (2) There are no thermally accessible electronically excited states
  (3) Hindered rotations indicated by low frequency modes are not
      treated as such but are treated as vibrations and this may
      cause some error
  (4) All equations used are the standard statistical mechanics
      equations for an ideal gas
  (5) All vibrations are strictly harmonic

freq.      70.55  E(vib)   ...       0.50
freq.     168.22  E(vib)   ...       0.38
freq.     266.85  E(vib)   ...       0.29
freq.     395.27  E(vib)   ...       0.20
freq.     414.23  E(vib)   ...       0.19
freq.     444.06  E(vib)   ...       0.17
freq.     529.17  E(vib)   ...       0.13
freq.     627.58  E(vib)   ...       0.09
freq.     695.07  E(vib)   ...       0.07
freq.     696.87  E(vib)   ...       0.07
freq.     716.85  E(vib)   ...       0.07
freq.     811.39  E(vib)   ...       0.05
freq.     848.96  E(vib)   ...       0.04
freq.     867.27  E(vib)   ...       0.04
freq.     951.82  E(vib)   ...       0.03
freq.     976.41  E(vib)   ...       0.03
freq.     997.44  E(vib)   ...       0.02
freq.    1025.67  E(vib)   ...       0.02
freq.    1045.73  E(vib)   ...       0.02
freq.    1101.41  E(vib)   ...       0.02
freq.    1113.33  E(vib)   ...       0.01
freq.    1184.74  E(vib)   ...       0.01
freq.    1197.19  E(vib)   ...       0.01
freq.    1332.77  E(vib)   ...       0.01
freq.    1351.45  E(vib)   ...       0.01
freq.    1368.69  E(vib)   ...       0.01
freq.    1484.45  E(vib)   ...       0.00
freq.    1506.25  E(vib)   ...       0.00
freq.    1568.78  E(vib)   ...       0.00
freq.    1622.42  E(vib)   ...       0.00
freq.    1646.99  E(vib)   ...       0.00
freq.    3168.49  E(vib)   ...       0.00
freq.    3180.02  E(vib)   ...       0.00
freq.    3189.04  E(vib)   ...       0.00
freq.    3214.32  E(vib)   ...       0.00
freq.    3215.03  E(vib)   ...       0.00

------------
INNER ENERGY
------------

The inner energy is: U= E(el) + E(ZPE) + E(vib) + E(rot) + E(trans)
    E(el)   - is the total energy from the electronic structure calculation
              = E(kin-el) + E(nuc-el) + E(el-el) + E(nuc-nuc)
    E(ZPE)  - the the zero temperature vibrational energy from the frequency calculation
    E(vib)  - the the finite temperature correction to E(ZPE) due to population
              of excited vibrational states
    E(rot)  - is the rotational thermal energy
    E(trans)- is the translational thermal energy

Summary of contributions to the inner energy U:
Electronic energy                ...   -436.70412687 Eh
Zero point energy                ...      0.10250562 Eh      64.32 kcal/mol
Thermal vibrational correction   ...      0.00394804 Eh       2.48 kcal/mol
Thermal rotational correction    ...      0.00141627 Eh       0.89 kcal/mol
Thermal translational correction ...      0.00141627 Eh       0.89 kcal/mol
-----------------------------------------------------------------------
Total thermal energy                   -436.59484067 Eh

Summary of corrections to the electronic energy:
(perhaps to be used in another calculation)
Total thermal correction                  0.00678058 Eh       4.25 kcal/mol
Non-thermal (ZPE) correction              0.10250562 Eh      64.32 kcal/mol
-----------------------------------------------------------------------
Total correction                          0.10928620 Eh      68.58 kcal/mol

--------
ENTHALPY
--------

The enthalpy is H = U + kB*T
                kB is Boltzmann's constant
Total thermal energy              ...   -436.59484067 Eh
Thermal Enthalpy correction       ...      0.00094421 Eh       0.59 kcal/mol
-----------------------------------------------------------------------
Total Enthalpy                    ...   -436.59389646 Eh

Note: Only C1 symmetry has been detected, increase convergence thresholds
      if your molecule has a higher symmetry. Symmetry factor of 1.0 is
      used for the rotational entropy correction.

Note: Rotational entropy computed according to Herzberg
Infrared and Raman Spectra, Chapter V,1, Van Nostrand Reinhold, 1945
Point Group:  C1, Symmetry Number:   1
Rotational constants in cm-1:     0.132762     0.042930     0.032440

Vibrational entropy computed according to the QRRHO of S. Grimme
Chem.Eur.J. 2012 18 9955 using a reference frequency of 100.0 cm-1

-------
ENTROPY
-------

The entropy contributions are T*S = T*(S(el)+S(vib)+S(rot)+S(trans))
     S(el)   - electronic entropy
     S(vib)  - vibrational entropy
     S(rot)  - rotational entropy
     S(trans)- translational entropy
The entropies will be listed as multiplied by the temperature to get
units of energy

Electronic entropy                ...      0.00000000 Eh      0.00 kcal/mol
Vibrational entropy               ...      0.00636111 Eh      3.99 kcal/mol
Rotational entropy                ...      0.01356877 Eh      8.51 kcal/mol
Translational entropy             ...      0.01916571 Eh     12.03 kcal/mol
-----------------------------------------------------------------------
Final entropy term                ...      0.03909559 Eh     24.53 kcal/mol

In case the symmetry of your molecule has not been determined correctly
or in case you have a reason to use a different symmetry number we print
out the resulting rotational entropy values for sn=1,12:

 non-linear molecules -----------------------------------
|  sn= 1 | S(rot)=       0.01356877 Eh      8.51 kcal/mol|
|  sn= 2 | S(rot)=       0.01291431 Eh      8.10 kcal/mol|
|  sn= 3 | S(rot)=       0.01253148 Eh      7.86 kcal/mol|
|  sn= 4 | S(rot)=       0.01225986 Eh      7.69 kcal/mol|
|  sn= 5 | S(rot)=       0.01204917 Eh      7.56 kcal/mol|
|  sn= 6 | S(rot)=       0.01187703 Eh      7.45 kcal/mol|
|  sn= 7 | S(rot)=       0.01173148 Eh      7.36 kcal/mol|
|  sn= 8 | S(rot)=       0.01160540 Eh      7.28 kcal/mol|
|  sn= 9 | S(rot)=       0.01149419 Eh      7.21 kcal/mol|
|  sn=10 | S(rot)=       0.01139471 Eh      7.15 kcal/mol|
|  sn=11 | S(rot)=       0.01130472 Eh      7.09 kcal/mol|
|  sn=12 | S(rot)=       0.01122257 Eh      7.04 kcal/mol|
 linear molecules ---------------------------------------
|  Dinfh | S(rot)=       0.00856279 Eh      5.37 kcal/mol|
|  Cinfv | S(rot)=       0.00921725 Eh      5.78 kcal/mol|
 --------------------------------------------------------

-------------------
GIBBS FREE ENERGY
-------------------

The Gibbs free energy is G = H - T*S

                             ****ORCA TERMINATED NORMALLY****
TOTAL RUN TIME: 0 days 0 hours 9 minutes 50 seconds 813 msec
