                         Program Version 6.0.0  -   RELEASE  -
|  1> ! r2SCAN-3c DEF2-TZVP FREQ
|  2> * xyzfile 0 1 censo.xyz
|  3>
|  4>                          ****END OF INPUT****

CARTESIAN COORDINATES (ANGSTROEM)
---------------------------------
  C     -3.094036    0.370586   -0.003646
  C     -1.631289    0.025308   -0.010869
  C     -1.193155   -1.296071   -0.104297
  C      0.170914   -1.589497   -0.107611
  C      1.140136   -0.592516   -0.018726
  C      0.685479    0.731790    0.074839
  C     -0.671394    1.038554    0.078641
  O      1.649518    1.714687    0.163599
  C      2.608717   -0.897705   -0.015278
  H     -3.710311   -0.526609   -0.099935
  H     -3.374304    0.879235    0.925329
  H     -3.343573    1.047825   -0.827637
  H     -1.919227   -2.100567   -0.175591
  H      0.496036   -2.624101   -0.181333
  H     -0.982115    2.078974    0.152568
  H      1.214845    2.577101    0.220255
  H      3.130265   -0.368843   -0.819877
  H      3.078855   -0.586581    0.924135
  H      2.776577   -1.969126   -0.142893

 Total Charge           Charge          ....    0
 Multiplicity           Mult            ....    1
 Number of Electrons    NEL             ....   66
 Basis Dimension        Dim             ....  339

ORBITAL ENERGIES
----------------

  NO   OCC          E(Eh)            E(eV)
   0   2.0000     -18.984340      -516.5902
   1   2.0000     -10.090676      -274.5812
   2   2.0000     -10.043169      -273.2885
   3   2.0000     -10.035478      -273.0792
   4   2.0000     -10.030454      -272.9425
   5   2.0000     -10.030210      -272.9359
   6   2.0000     -10.029367      -272.9129
   7   2.0000     -10.023514      -272.7537
   8   2.0000     -10.023028      -272.7404
   9   2.0000      -1.021309       -27.7912
  10   2.0000      -0.818902       -22.2835
  11   2.0000      -0.751658       -20.4536
  12   2.0000      -0.701585       -19.0911
  13   2.0000      -0.684736       -18.6326
  14   2.0000      -0.622382       -16.9359
  15   2.0000      -0.588232       -16.0066
  16   2.0000      -0.539957       -14.6930
  17   2.0000      -0.499650       -13.5962
  18   2.0000      -0.450693       -12.2640
  19   2.0000      -0.439459       -11.9583
  20   2.0000      -0.399337       -10.8665
  21   2.0000      -0.394720       -10.7409
  22   2.0000      -0.383956       -10.4480
  23   2.0000      -0.373423       -10.1614
  24   2.0000      -0.369475       -10.0539
  25   2.0000      -0.358824        -9.7641
  26   2.0000      -0.351048        -9.5525
  27   2.0000      -0.335583        -9.1317
  28   2.0000      -0.314182        -8.5493
  29   2.0000      -0.303415        -8.2563
  30   2.0000      -0.297996        -8.1089
  31   2.0000      -0.221157        -6.0180
  32   2.0000      -0.198492        -5.4012
  33   0.0000      -0.029600        -0.8055
  34   0.0000      -0.012769        -0.3475
  35   0.0000       0.034668         0.9434
  36   0.0000       0.061157         1.6642
  37   0.0000       0.073331         1.9954

MULLIKEN ATOMIC CHARGES
-----------------------
   0 C :   -0.349112
   1 C :    0.178623
   2 C :   -0.225652
   3 C :   -0.119732
   4 C :   -0.005868
   5 C :    0.302295
   6 C :   -0.314018
   7 O :   -0.407370
   8 C :   -0.310577
   9 H :    0.109442
  10 H :    0.115432
  11 H :    0.114864
  12 H :    0.092695
  13 H :    0.095728
  14 H :    0.079895
  15 H :    0.309654
  16 H :    0.115876
  17 H :    0.114665
  18 H :    0.103160
Sum of atomic charges:    0.0000000

LOEWDIN ATOMIC CHARGES
----------------------
   0 C :   -0.254380
   1 C :   -0.178036
   2 C :   -0.138500
   3 C :   -0.115868
   4 C :   -0.160244
   5 C :   -0.235336
   6 C :   -0.125248
   7 O :    0.074737
   8 C :   -0.251651
   9 H :    0.126103
  10 H :    0.128643
  11 H :    0.128407
  12 H :    0.142332
  13 H :    0.144859
  14 H :    0.141793
  15 H :    0.186350
  16 H :    0.130628
  17 H :    0.130825
  18 H :    0.124586

  Mayer bond orders larger than 0.100000
B(  0-C ,  1-C ) :   0.8980 B(  0-C ,  9-H ) :   0.9899 B(  0-C , 10-H ) :   0.9658
B(  0-C , 11-H ) :   0.9674 B(  1-C ,  2-C ) :   1.3637 B(  1-C ,  6-C ) :   1.3212
B(  2-C ,  3-C ) :   1.3924 B(  2-C , 12-H ) :   0.9804 B(  3-C ,  4-C ) :   1.3856
B(  3-C , 13-H ) :   0.9766 B(  4-C ,  5-C ) :   1.2920 B(  4-C ,  8-C ) :   0.9515
B(  5-C ,  6-C ) :   1.3658 B(  5-C ,  7-O ) :   1.1353 B(  6-C , 14-H ) :   0.9741
B(  7-O , 15-H ) :   0.8859 B(  8-C , 16-H ) :   0.9593 B(  8-C , 17-H ) :   0.9574
B(  8-C , 18-H ) :   0.9841

Dispersion correction           -0.006106327
FINAL SINGLE POINT ENERGY      -386.035726682539

DIPOLE MOMENT
-------------

Method             : SCF
Type of density    : Electron Density
Multiplicity       :   1
Irrep              :   0
Energy             :  -386.0367672052038301 Eh
Relativity type    :
Basis              : AO
                                X                 Y                 Z
Electronic contribution:      2.107467782       1.817774633       0.149862889
Nuclear contribution   :     -2.438030042      -1.414174964      -0.121596236
                        -----------------------------------------
Total Dipole Moment    :     -0.330562260       0.403599669       0.028266653
                        -----------------------------------------
Magnitude (a.u.)       :      0.522458710
Magnitude (Debye)      :      1.327984505

VIBRATIONAL FREQUENCIES
-----------------------

Scaling factor for frequencies =  1.000000000  (already applied!)

     0:       0.00 cm**-1
     1:       0.00 cm**-1
     2:       0.00 cm**-1
     3:       0.00 cm**-1
     4:       0.00 cm**-1
     5:       0.00 cm**-1
     6:      74.31 cm**-1
     7:     134.78 cm**-1
     8:     143.96 cm**-1
     9:     224.20 cm**-1
    10:     287.39 cm**-1
    11:     305.85 cm**-1
    12:     319.43 cm**-1
    13:     433.43 cm**-1
    14:     451.98 cm**-1
    15:     452.49 cm**-1
    16:     508.31 cm**-1
    17:     574.78 cm**-1
    18:     600.67 cm**-1
    19:     718.69 cm**-1
    20:     736.72 cm**-1
    21:     768.08 cm**-1
    22:     801.54 cm**-1
    23:     827.67 cm**-1
    24:     922.74 cm**-1
    25:     945.60 cm**-1
    26:    1015.46 cm**-1
    27:    1026.91 cm**-1
    28:    1049.74 cm**-1
    29:    1056.55 cm**-1
    30:    1135.33 cm**-1
    31:    1169.34 cm**-1
    32:    1196.04 cm**-1
    33:    1245.47 cm**-1
    34:    1289.41 cm**-1
    35:    1325.25 cm**-1
    36:    1355.40 cm**-1
    37:    1400.24 cm**-1
    38:    1404.91 cm**-1
    39:    1436.05 cm**-1
    40:    1471.50 cm**-1
    41:    1476.18 cm**-1
    42:    1479.08 cm**-1
    43:    1496.65 cm**-1
    44:    1545.26 cm**-1
    45:    1613.57 cm**-1
    46:    1649.09 cm**-1
    47:    3006.29 cm**-1
    48:    3010.13 cm**-1
    49:    3066.49 cm**-1
    50:    3069.01 cm**-1
    51:    3102.08 cm**-1
    52:    3106.79 cm**-1
    53:    3133.36 cm**-1
    54:    3147.78 cm**-1
    55:    3166.03 cm**-1
    56:    3756.55 cm**-1

IR SPECTRUM
-----------

 Mode   freq       eps      Int      T**2         TX        TY        TZ
       cm**-1   L/(mol*cm) km/mol    a.u.
----------------------------------------------------------------------------
  6:     74.31   0.000043    0.22  0.000179  (-0.000209 -0.001832  0.013254)
  7:    134.78   0.000279    1.41  0.000646  (-0.000630 -0.002868  0.025256)
  8:    143.96   0.000077    0.39  0.000166  (-0.000479 -0.000769 -0.012849)
  9:    224.20   0.000152    0.77  0.000211  ( 0.000205  0.000724 -0.014522)
 10:    287.39   0.000361    1.82  0.000392  ( 0.007093  0.018427  0.001404)
 11:    305.85   0.000484    2.45  0.000494  (-0.014985 -0.016280 -0.002047)
 12:    319.43   0.000821    4.15  0.000802  ( 0.001011  0.002902 -0.028154)
 13:    433.43   0.016260   82.17  0.011707  (-0.001955 -0.008277  0.107865)
 14:    451.98   0.000247    1.25  0.000170  ( 0.000780  0.011992  0.005098)
 15:    452.49   0.003084   15.58  0.002127  (-0.000668 -0.004463  0.045895)
 16:    508.31   0.000420    2.12  0.000258  ( 0.006853  0.014445  0.001544)
 17:    574.78   0.001642    8.30  0.000891  (-0.019824 -0.022236 -0.001993)
 18:    600.67   0.000706    3.57  0.000367  (-0.000363 -0.001558  0.019089)
 19:    718.69   0.000256    1.29  0.000111  (-0.000018 -0.000050  0.010534)
 20:    736.72   0.001064    5.37  0.000450  ( 0.014096  0.015839  0.000962)
 21:    768.08   0.000039    0.20  0.000016  (-0.003910  0.000588  0.000389)
 22:    801.54   0.007053   35.64  0.002746  ( 0.000733  0.004240 -0.052226)
 23:    827.67   0.001665    8.41  0.000628  ( 0.000015 -0.001823  0.024990)
 24:    922.74   0.000088    0.44  0.000030  (-0.000164 -0.000315  0.005432)
 25:    945.60   0.002139   10.81  0.000706  (-0.018846 -0.018665 -0.001502)
 26:   1015.46   0.004141   20.93  0.001273  (-0.032762 -0.014063 -0.001266)
 27:   1026.91   0.001156    5.84  0.000351  ( 0.018690  0.001370  0.000251)
 28:   1049.74   0.000160    0.81  0.000048  ( 0.002461  0.000040 -0.006452)
 29:   1056.55   0.000690    3.49  0.000204  ( 0.001473 -0.001753  0.014089)
 30:   1135.33   0.019350   97.79  0.005319  (-0.044628 -0.057474 -0.004883)
 31:   1169.34   0.000872    4.41  0.000233  (-0.010217 -0.011297 -0.000886)
 32:   1196.04   0.004568   23.08  0.001192  ( 0.023457  0.025219  0.002348)
 33:   1245.47   0.014735   74.46  0.003692  ( 0.049243  0.035404  0.003687)
 34:   1289.41   0.006696   33.84  0.001620  (-0.021945 -0.033623 -0.002894)
 35:   1325.25   0.003342   16.89  0.000787  (-0.020842 -0.018695 -0.001746)
 36:   1355.40   0.002548   12.88  0.000587  ( 0.003352  0.023899  0.002041)
 37:   1400.24   0.000206    1.04  0.000046  ( 0.006710 -0.000977 -0.000093)
 38:   1404.91   0.000437    2.21  0.000097  ( 0.009766  0.001194  0.000510)
 39:   1436.05   0.008040   40.63  0.001747  ( 0.029066  0.029903  0.002827)
 40:   1471.50   0.001196    6.05  0.000254  (-0.001016 -0.001640  0.015810)
 41:   1476.18   0.001695    8.57  0.000358  ( 0.000722  0.002348 -0.018772)
 42:   1479.08   0.000020    0.10  0.000004  (-0.000019  0.002018  0.000292)
 43:   1496.65   0.007755   39.19  0.001617  (-0.016621 -0.036438 -0.003616)
 44:   1545.26   0.005173   26.14  0.001045  ( 0.032179  0.002936  0.000737)
 45:   1613.57   0.006002   30.33  0.001161  ( 0.014333  0.030810  0.002467)
 46:   1649.09   0.005474   27.66  0.001036  ( 0.030770  0.009372  0.001108)
 47:   3006.29   0.007957   40.21  0.000826  ( 0.027171 -0.009348 -0.000582)
 48:   3010.13   0.006121   30.94  0.000635  ( 0.024433 -0.006020  0.001191)
 49:   3066.49   0.003061   15.47  0.000312  ( 0.000280 -0.001544  0.017580)
 50:   3069.01   0.002925   14.78  0.000297  (-0.001437 -0.000735  0.017171)
 51:   3102.08   0.003191   16.13  0.000321  (-0.007912 -0.016017 -0.001358)
 52:   3106.79   0.003219   16.27  0.000323  ( 0.001303 -0.017872 -0.001494)
 53:   3133.36   0.004010   20.26  0.000399  (-0.000569  0.019923  0.001436)
 54:   3147.78   0.002152   10.88  0.000213  ( 0.012324 -0.007831 -0.000391)
 55:   3166.03   0.003102   15.68  0.000306  (-0.006763 -0.016075 -0.001277)
 56:   3756.55   0.008998   45.47  0.000747  ( 0.002189  0.027174  0.002061)

--------------------------
THERMOCHEMISTRY AT 298.15K
--------------------------

Temperature         ...   298.15 K
Pressure            ...     1.00 atm
Total Mass          ...   122.17 AMU
Quasi RRHO          ...     True
Cut-Off Frequency   ...     1.00 cm^-1

Throughout the following assumptions are being made:
  (1) The electronic state is orbitally nondegenerate
  (2) There are no thermally accessible electronically excited states
  (3) Hindered rotations indicated by low frequency modes are not
      treated as such but are treated as vibrations and this may
      cause some error
  (4) All equations used are the standard statistical mechanics
      equations for an ideal gas
  (5) All vibrations are strictly harmonic

freq.      74.31  E(vib)   ...       0.49
freq.     134.78  E(vib)   ...       0.42
freq.     143.96  E(vib)   ...       0.41
freq.     224.20  E(vib)   ...       0.33
freq.     287.39  E(vib)   ...       0.27
freq.     305.85  E(vib)   ...       0.26
freq.     319.43  E(vib)   ...       0.25
freq.     433.43  E(vib)   ...       0.17
freq.     451.98  E(vib)   ...       0.16
freq.     452.49  E(vib)   ...       0.16
freq.     508.31  E(vib)   ...       0.14
freq.     574.78  E(vib)   ...       0.11
freq.     600.67  E(vib)   ...       0.10
freq.     718.69  E(vib)   ...       0.07
freq.     736.72  E(vib)   ...       0.06
freq.     768.08  E(vib)   ...       0.06
freq.     801.54  E(vib)   ...       0.05
freq.     827.67  E(vib)   ...       0.04
freq.     922.74  E(vib)   ...       0.03
freq.     945.60  E(vib)   ...       0.03
freq.    1015.46  E(vib)   ...       0.02
freq.    1026.91  E(vib)   ...       0.02
freq.    1049.74  E(vib)   ...       0.02
freq.    1056.55  E(vib)   ...       0.02
freq.    1135.33  E(vib)   ...       0.01
freq.    1169.34  E(vib)   ...       0.01
freq.    1196.04  E(vib)   ...       0.01
freq.    1245.47  E(vib)   ...       0.01
freq.    1289.41  E(vib)   ...       0.01
freq.    1325.25  E(vib)   ...       0.01
freq.    1355.40  E(vib)   ...       0.01
freq.    1400.24  E(vib)   ...       0.00
freq.    1404.91  E(vib)   ...       0.00
freq.    1436.05  E(vib)   ...       0.00
freq.    1471.50  E(vib)   ...       0.00
freq.    1476.18  E(vib)   ...       0.00
freq.    1479.08  E(vib)   ...       0.00
freq.    1496.65  E(vib)   ...       0.00
freq.    1545.26  E(vib)   ...       0.00
freq.    1613.57  E(vib)   ...       0.00
freq.    1649.09  E(vib)   ...       0.00
freq.    3006.29  E(vib)   ...       0.00
freq.    3010.13  E(vib)   ...       0.00
freq.    3066.49  E(vib)   ...       0.00
freq.    3069.01  E(vib)   ...       0.00
freq.    3102.08  E(vib)   ...       0.00
freq.    3106.79  E(vib)   ...       0.00
freq.    3133.36  E(vib)   ...       0.00
freq.    3147.78  E(vib)   ...       0.00
freq.    3166.03  E(vib)   ...       0.00
freq.    3756.55  E(vib)   ...       0.00

------------
INNER ENERGY
------------

The inner energy is: U= E(el) + E(ZPE) + E(vib) + E(rot) + E(trans)
    E(el)   - is the total energy from the electronic structure calculation
              = E(kin-el) + E(nuc-el) + E(el-el) + E(nuc-nuc)
    E(ZPE)  - the the zero temperature vibrational energy from the frequency calculation
    E(vib)  - the the finite temperature correction to E(ZPE) due to population
              of excited vibrational states
    E(rot)  - is the rotational thermal energy
    E(trans)- is the translational thermal energy

Summary of contributions to the inner energy U:
Electronic energy                ...   -386.03572668 Eh
Zero point energy                ...      0.15863919 Eh      99.55 kcal/mol
Thermal vibrational correction   ...      0.00605102 Eh       3.80 kcal/mol
Thermal rotational correction    ...      0.00141627 Eh       0.89 kcal/mol
Thermal translational correction ...      0.00141627 Eh       0.89 kcal/mol
-----------------------------------------------------------------------
Total thermal energy                   -385.86820392 Eh

Summary of corrections to the electronic energy:
(perhaps to be used in another calculation)
Total thermal correction                  0.00888357 Eh       5.57 kcal/mol
Non-thermal (ZPE) correction              0.15863919 Eh      99.55 kcal/mol
-----------------------------------------------------------------------
Total correction                          0.16752276 Eh     105.12 kcal/mol

--------
ENTHALPY
--------

The enthalpy is H = U + kB*T
                kB is Boltzmann's constant
Total thermal energy              ...   -385.86820392 Eh
Thermal Enthalpy correction       ...      0.00094421 Eh       0.59 kcal/mol
-----------------------------------------------------------------------
Total Enthalpy                    ...   -385.86725971 Eh

Note: Only C1 symmetry has been detected, increase convergence thresholds
      if your molecule has a higher symmetry. Symmetry factor of 1.0 is
      used for the rotational entropy correction.

Note: Rotational entropy computed according to Herzberg
Infrared and Raman Spectra, Chapter V,1, Van Nostrand Reinhold, 1945
Point Group:  C1, Symmetry Number:   1
Rotational constants in cm-1:     0.101857     0.043248     0.030703

Vibrational entropy computed according to the QRRHO of S. Grimme
Chem.Eur.J. 2012 18 9955 using a reference frequency of 100.0 cm-1

-------
ENTROPY
-------

The entropy contributions are T*S = T*(S(el)+S(vib)+S(rot)+S(trans))
     S(el)   - electronic entropy
     S(vib)  - vibrational entropy
     S(rot)  - rotational entropy
     S(trans)- translational entropy
The entropies will be listed as multiplied by the temperature to get
units of energy

Electronic entropy                ...      0.00000000 Eh      0.00 kcal/mol
Vibrational entropy               ...      0.01003777 Eh      6.30 kcal/mol
Rotational entropy                ...      0.01371637 Eh      8.61 kcal/mol
Translational entropy             ...      0.01915481 Eh     12.02 kcal/mol
-----------------------------------------------------------------------
Final entropy term                ...      0.04290895 Eh     26.93 kcal/mol

In case the symmetry of your molecule has not been determined correctly
or in case you have a reason to use a different symmetry number we print
out the resulting rotational entropy values for sn=1,12:

 non-linear molecules -----------------------------------
|  sn= 1 | S(rot)=       0.01371637 Eh      8.61 kcal/mol|
|  sn= 2 | S(rot)=       0.01306192 Eh      8.20 kcal/mol|
|  sn= 3 | S(rot)=       0.01267908 Eh      7.96 kcal/mol|
|  sn= 4 | S(rot)=       0.01240746 Eh      7.79 kcal/mol|
|  sn= 5 | S(rot)=       0.01219677 Eh      7.65 kcal/mol|
|  sn= 6 | S(rot)=       0.01202463 Eh      7.55 kcal/mol|
|  sn= 7 | S(rot)=       0.01187908 Eh      7.45 kcal/mol|
|  sn= 8 | S(rot)=       0.01175300 Eh      7.38 kcal/mol|
|  sn= 9 | S(rot)=       0.01164179 Eh      7.31 kcal/mol|

                             ****ORCA TERMINATED NORMALLY****
TOTAL RUN TIME: 0 days 0 hours 16 minutes 54 seconds 803 msec
