                         Program Version 6.0.0  -   RELEASE  -
|  1> ! r2SCAN-3c DEF2-TZVP FREQ
|  2> * xyzfile 0 1 vacuum_censo.xyz
|  3>
|  4>                          ****END OF INPUT****

CARTESIAN COORDINATES (ANGSTROEM)
---------------------------------
  C     -3.094726   -0.370021   -0.002228
  C     -1.630760   -0.023789   -0.012543
  C     -1.193414    1.295150   -0.105726
  C      0.169305    1.588578   -0.107941
  C      1.137657    0.594472   -0.017712
  C      0.686330   -0.729645    0.075860
  C     -0.670117   -1.034975    0.077483
  O      1.652525   -1.700048    0.164303
  C      2.607991    0.890808   -0.017235
  H     -3.341043   -1.073194   -0.805126
  H     -3.382035   -0.842037    0.943977
  H     -3.711403    0.522226   -0.133360
  H     -1.919110    2.099389   -0.177674
  H      0.492584    2.623407   -0.182251
  H     -0.987793   -2.074408    0.149936
  H      1.224641   -2.561601    0.220435
  H      3.115582    0.375871   -0.839030
  H      2.785027    1.963665   -0.117011
  H      3.080611    0.544751    0.907699

 Total Charge           Charge          ....    0
 Multiplicity           Mult            ....    1
 Number of Electrons    NEL             ....   66
 Basis Dimension        Dim             ....  339

ORBITAL ENERGIES
----------------

  NO   OCC          E(Eh)            E(eV)
   0   2.0000     -18.984959      -516.6070
   1   2.0000     -10.089936      -274.5611
   2   2.0000     -10.042444      -273.2688
   3   2.0000     -10.034356      -273.0487
   4   2.0000     -10.029655      -272.9208
   5   2.0000     -10.029538      -272.9176
   6   2.0000     -10.029227      -272.9091
   7   2.0000     -10.022622      -272.7294
   8   2.0000     -10.022538      -272.7271
   9   2.0000      -1.025228       -27.8979
  10   2.0000      -0.819228       -22.2923
  11   2.0000      -0.751624       -20.4527
  12   2.0000      -0.701581       -19.0910
  13   2.0000      -0.684618       -18.6294
  14   2.0000      -0.622505       -16.9392
  15   2.0000      -0.589254       -16.0344
  16   2.0000      -0.539951       -14.6928
  17   2.0000      -0.500892       -13.6300
  18   2.0000      -0.450664       -12.2632
  19   2.0000      -0.439460       -11.9583
  20   2.0000      -0.400039       -10.8856
  21   2.0000      -0.394287       -10.7291
  22   2.0000      -0.384178       -10.4540
  23   2.0000      -0.373854       -10.1731
  24   2.0000      -0.368902       -10.0383
  25   2.0000      -0.358855        -9.7649
  26   2.0000      -0.351805        -9.5731
  27   2.0000      -0.335864        -9.1393
  28   2.0000      -0.314027        -8.5451
  29   2.0000      -0.302890        -8.2421
  30   2.0000      -0.298590        -8.1250
  31   2.0000      -0.221023        -6.0143
  32   2.0000      -0.198221        -5.3939
  33   0.0000      -0.028777        -0.7831
  34   0.0000      -0.011986        -0.3261
  35   0.0000       0.035395         0.9632
  36   0.0000       0.061372         1.6700
  37   0.0000       0.073719         2.0060

MULLIKEN ATOMIC CHARGES
-----------------------
   0 C :   -0.350130
   1 C :    0.177001
   2 C :   -0.223848
   3 C :   -0.121366
   4 C :   -0.004621
   5 C :    0.302126
   6 C :   -0.314416
   7 O :   -0.405930
   8 C :   -0.307670
   9 H :    0.114387
  10 H :    0.116016
  11 H :    0.109475
  12 H :    0.092247
  13 H :    0.094997
  14 H :    0.080048
  15 H :    0.309074
  16 H :    0.114954
  17 H :    0.103156
  18 H :    0.114497
Sum of atomic charges:    0.0000000

LOEWDIN ATOMIC CHARGES
----------------------
   0 C :   -0.254165
   1 C :   -0.178579
   2 C :   -0.139058
   3 C :   -0.116309
   4 C :   -0.160803
   5 C :   -0.241515
   6 C :   -0.125512
   7 O :    0.084248
   8 C :   -0.251236
   9 H :    0.128018
  10 H :    0.128655
  11 H :    0.125951
  12 H :    0.142404
  13 H :    0.144940
  14 H :    0.142089
  15 H :    0.185066
  16 H :    0.130703
  17 H :    0.124342
  18 H :    0.130760

  Mayer bond orders larger than 0.100000
B(  0-C ,  1-C ) :   0.8980 B(  0-C ,  9-H ) :   0.9688 B(  0-C , 10-H ) :   0.9645
B(  0-C , 11-H ) :   0.9902 B(  1-C ,  2-C ) :   1.3660 B(  1-C ,  6-C ) :   1.3223
B(  2-C ,  3-C ) :   1.3908 B(  2-C , 12-H ) :   0.9809 B(  3-C ,  4-C ) :   1.3883
B(  3-C , 13-H ) :   0.9775 B(  4-C ,  5-C ) :   1.2889 B(  4-C ,  8-C ) :   0.9515
B(  5-C ,  6-C ) :   1.3660 B(  5-C ,  7-O ) :   1.1398 B(  6-C , 14-H ) :   0.9734
B(  7-O , 15-H ) :   0.8866 B(  8-C , 16-H ) :   0.9590 B(  8-C , 17-H ) :   0.9837
B(  8-C , 18-H ) :   0.9584

Dispersion correction           -0.006112281
FINAL SINGLE POINT ENERGY      -386.035905044024

DIPOLE MOMENT
-------------

Method             : SCF
Type of density    : Electron Density
Multiplicity       :   1
Irrep              :   0
Energy             :  -386.0369415312746924 Eh
Relativity type    :
Basis              : AO
                                X                 Y                 Z
Electronic contribution:      2.131539552      -1.801202538       0.155183804
Nuclear contribution   :     -2.447411138       1.382841117      -0.125985642
                        -----------------------------------------
Total Dipole Moment    :     -0.315871586      -0.418361421       0.029198162
                        -----------------------------------------
Magnitude (a.u.)       :      0.525027304
Magnitude (Debye)      :      1.334513352

VIBRATIONAL FREQUENCIES
-----------------------

Scaling factor for frequencies =  1.000000000  (already applied!)

     0:       0.00 cm**-1
     1:       0.00 cm**-1
     2:       0.00 cm**-1
     3:       0.00 cm**-1
     4:       0.00 cm**-1
     5:       0.00 cm**-1
     6:      66.16 cm**-1
     7:     133.56 cm**-1
     8:     145.55 cm**-1
     9:     220.83 cm**-1
    10:     288.68 cm**-1
    11:     304.91 cm**-1
    12:     312.30 cm**-1
    13:     380.01 cm**-1
    14:     449.21 cm**-1
    15:     450.70 cm**-1
    16:     506.81 cm**-1
    17:     576.19 cm**-1
    18:     599.38 cm**-1
    19:     718.31 cm**-1
    20:     737.23 cm**-1
    21:     771.00 cm**-1
    22:     800.79 cm**-1
    23:     831.44 cm**-1
    24:     922.29 cm**-1
    25:     948.41 cm**-1
    26:    1016.98 cm**-1
    27:    1025.85 cm**-1
    28:    1049.75 cm**-1
    29:    1056.03 cm**-1
    30:    1135.97 cm**-1
    31:    1172.96 cm**-1
    32:    1193.23 cm**-1
    33:    1244.27 cm**-1
    34:    1299.62 cm**-1
    35:    1326.75 cm**-1
    36:    1361.80 cm**-1
    37:    1400.02 cm**-1
    38:    1403.27 cm**-1
    39:    1440.30 cm**-1
    40:    1470.55 cm**-1
    41:    1477.13 cm**-1
    42:    1478.81 cm**-1
    43:    1497.07 cm**-1
    44:    1549.44 cm**-1
    45:    1621.35 cm**-1
    46:    1653.61 cm**-1
    47:    3006.21 cm**-1
    48:    3013.97 cm**-1
    49:    3067.09 cm**-1
    50:    3073.84 cm**-1
    51:    3102.32 cm**-1
    52:    3109.25 cm**-1
    53:    3124.20 cm**-1
    54:    3150.15 cm**-1
    55:    3168.99 cm**-1
    56:    3806.44 cm**-1

IR SPECTRUM
-----------

 Mode   freq       eps      Int      T**2         TX        TY        TZ
       cm**-1   L/(mol*cm) km/mol    a.u.
----------------------------------------------------------------------------
  6:     66.16   0.000028    0.14  0.000134  (-0.000750  0.002853  0.011192)
  7:    133.56   0.000263    1.33  0.000615  ( 0.000142 -0.002084 -0.024707)
  8:    145.55   0.000085    0.43  0.000182  ( 0.000104  0.000439  0.013483)
  9:    220.83   0.000236    1.19  0.000334  ( 0.000351 -0.001170 -0.018223)
 10:    288.68   0.000283    1.43  0.000306  ( 0.005254 -0.016637  0.001173)
 11:    304.91   0.000603    3.05  0.000618  (-0.016373  0.018591 -0.001976)
 12:    312.30   0.002710   13.69  0.002708  ( 0.001351 -0.004447 -0.051827)
 13:    380.01   0.015993   80.82  0.013134  (-0.002102  0.008553  0.114263)
 14:    449.21   0.001475    7.45  0.001025  (-0.000501  0.002921  0.031873)
 15:    450.70   0.000273    1.38  0.000189  ( 0.002008 -0.013393  0.002394)
 16:    506.81   0.000467    2.36  0.000287  ( 0.007859 -0.014920  0.001752)
 17:    576.19   0.001521    7.69  0.000824  ( 0.019279 -0.021160  0.002098)
 18:    599.38   0.000774    3.91  0.000403  ( 0.000612 -0.001679 -0.019989)
 19:    718.31   0.000180    0.91  0.000078  (-0.000119  0.000089  0.008844)
 20:    737.23   0.001018    5.15  0.000431  ( 0.013730 -0.015556  0.000734)
 21:    771.00   0.000036    0.18  0.000015  (-0.003761 -0.000613  0.000138)
 22:    800.79   0.006765   34.19  0.002636  ( 0.000481 -0.004110 -0.051177)
 23:    831.44   0.001941    9.81  0.000728  (-0.000011  0.001887  0.026923)
 24:    922.29   0.000094    0.48  0.000032  (-0.000316  0.000524  0.005615)
 25:    948.41   0.001776    8.98  0.000584  (-0.017271  0.016862 -0.001355)
 26:   1016.98   0.004074   20.59  0.001250  ( 0.032792 -0.013159  0.001244)
 27:   1025.85   0.001179    5.96  0.000359  ( 0.018845 -0.001865  0.000240)
 28:   1049.75   0.000130    0.66  0.000039  (-0.003448 -0.000080  0.005185)
 29:   1056.03   0.000733    3.71  0.000217  (-0.001271  0.001288  0.014609)
 30:   1135.97   0.019619   99.15  0.005390  (-0.045501  0.057398 -0.004974)
 31:   1172.96   0.001207    6.10  0.000321  (-0.012153  0.013132 -0.000949)
 32:   1193.23   0.004484   22.66  0.001173  ( 0.024080 -0.024228  0.002416)
 33:   1244.27   0.012883   65.10  0.003231  (-0.046727  0.032208 -0.003196)
 34:   1299.62   0.008853   44.74  0.002126  (-0.027126  0.037124 -0.003439)
 35:   1326.75   0.002697   13.63  0.000634  ( 0.018015 -0.017524  0.001664)
 36:   1361.80   0.001934    9.77  0.000443  (-0.000288  0.020976 -0.001737)
 37:   1400.02   0.000184    0.93  0.000041  (-0.006327 -0.000918  0.000208)
 38:   1403.27   0.000386    1.95  0.000086  ( 0.009258 -0.000361  0.000292)
 39:   1440.30   0.007851   39.68  0.001701  ( 0.028795 -0.029371  0.003038)
 40:   1470.55   0.001315    6.65  0.000279  (-0.000377  0.001310  0.016649)
 41:   1477.13   0.001456    7.36  0.000308  ( 0.001384 -0.003760 -0.017077)
 42:   1478.81   0.000197    1.00  0.000042  ( 0.000587 -0.001790  0.006171)
 43:   1497.07   0.008156   41.22  0.001700  ( 0.017641 -0.037094  0.003606)
 44:   1549.44   0.005805   29.34  0.001169  ( 0.033727 -0.005562  0.000801)
 45:   1621.35   0.006282   31.75  0.001209  ( 0.014285 -0.031600  0.002553)
 46:   1653.61   0.005774   29.18  0.001090  ( 0.031401 -0.010110  0.001174)
 47:   3006.21   0.007662   38.72  0.000795  ( 0.026571  0.009388 -0.001094)
 48:   3013.97   0.006415   32.42  0.000664  (-0.024950 -0.006449 -0.000386)
 49:   3067.09   0.003127   15.80  0.000318  ( 0.000923  0.002019  0.017698)
 50:   3073.84   0.002855   14.43  0.000290  ( 0.000582 -0.001172 -0.016974)
 51:   3102.32   0.003210   16.22  0.000323  (-0.008333  0.015845 -0.001546)
 52:   3109.25   0.003105   15.69  0.000312  ( 0.000949  0.017569 -0.001427)
 53:   3124.20   0.004180   21.13  0.000418  (-0.000564 -0.020374  0.001464)
 54:   3150.15   0.002215   11.19  0.000219  ( 0.012185  0.008412 -0.000432)
 55:   3168.99   0.003217   16.26  0.000317  (-0.007094  0.016272 -0.001305)
 56:   3806.44   0.009086   45.91  0.000745  ( 0.002274 -0.027119  0.002058)

--------------------------
THERMOCHEMISTRY AT 298.15K
--------------------------

Temperature         ...   298.15 K
Pressure            ...     1.00 atm
Total Mass          ...   122.17 AMU
Quasi RRHO          ...     True
Cut-Off Frequency   ...     1.00 cm^-1

Throughout the following assumptions are being made:
  (1) The electronic state is orbitally nondegenerate
  (2) There are no thermally accessible electronically excited states
  (3) Hindered rotations indicated by low frequency modes are not
      treated as such but are treated as vibrations and this may
      cause some error
  (4) All equations used are the standard statistical mechanics
      equations for an ideal gas
  (5) All vibrations are strictly harmonic

freq.      66.16  E(vib)   ...       0.50
freq.     133.56  E(vib)   ...       0.42
freq.     145.55  E(vib)   ...       0.41
freq.     220.83  E(vib)   ...       0.33
freq.     288.68  E(vib)   ...       0.27
freq.     304.91  E(vib)   ...       0.26
freq.     312.30  E(vib)   ...       0.25
freq.     380.01  E(vib)   ...       0.21
freq.     449.21  E(vib)   ...       0.17
freq.     450.70  E(vib)   ...       0.17
freq.     506.81  E(vib)   ...       0.14
freq.     576.19  E(vib)   ...       0.11
freq.     599.38  E(vib)   ...       0.10
freq.     718.31  E(vib)   ...       0.07
freq.     737.23  E(vib)   ...       0.06
freq.     771.00  E(vib)   ...       0.05
freq.     800.79  E(vib)   ...       0.05
freq.     831.44  E(vib)   ...       0.04
freq.     922.29  E(vib)   ...       0.03
freq.     948.41  E(vib)   ...       0.03
freq.    1016.98  E(vib)   ...       0.02
freq.    1025.85  E(vib)   ...       0.02
freq.    1049.75  E(vib)   ...       0.02
freq.    1056.03  E(vib)   ...       0.02
freq.    1135.97  E(vib)   ...       0.01
freq.    1172.96  E(vib)   ...       0.01
freq.    1193.23  E(vib)   ...       0.01
freq.    1244.27  E(vib)   ...       0.01
freq.    1299.62  E(vib)   ...       0.01
freq.    1326.75  E(vib)   ...       0.01
freq.    1361.80  E(vib)   ...       0.01
freq.    1400.02  E(vib)   ...       0.00
freq.    1403.27  E(vib)   ...       0.00
freq.    1440.30  E(vib)   ...       0.00
freq.    1470.55  E(vib)   ...       0.00
freq.    1477.13  E(vib)   ...       0.00
freq.    1478.81  E(vib)   ...       0.00
freq.    1497.07  E(vib)   ...       0.00
freq.    1549.44  E(vib)   ...       0.00
freq.    1621.35  E(vib)   ...       0.00
freq.    1653.61  E(vib)   ...       0.00
freq.    3006.21  E(vib)   ...       0.00
freq.    3013.97  E(vib)   ...       0.00
freq.    3067.09  E(vib)   ...       0.00
freq.    3073.84  E(vib)   ...       0.00
freq.    3102.32  E(vib)   ...       0.00
freq.    3109.25  E(vib)   ...       0.00
freq.    3124.20  E(vib)   ...       0.00
freq.    3150.15  E(vib)   ...       0.00
freq.    3168.99  E(vib)   ...       0.00
freq.    3806.44  E(vib)   ...       0.00

------------
INNER ENERGY
------------

The inner energy is: U= E(el) + E(ZPE) + E(vib) + E(rot) + E(trans)
    E(el)   - is the total energy from the electronic structure calculation
              = E(kin-el) + E(nuc-el) + E(el-el) + E(nuc-nuc)
    E(ZPE)  - the the zero temperature vibrational energy from the frequency calculation
    E(vib)  - the the finite temperature correction to E(ZPE) due to population
              of excited vibrational states
    E(rot)  - is the rotational thermal energy
    E(trans)- is the translational thermal energy

Summary of contributions to the inner energy U:
Electronic energy                ...   -386.03590504 Eh
Zero point energy                ...      0.15869930 Eh      99.59 kcal/mol
Thermal vibrational correction   ...      0.00613267 Eh       3.85 kcal/mol
Thermal rotational correction    ...      0.00141627 Eh       0.89 kcal/mol
Thermal translational correction ...      0.00141627 Eh       0.89 kcal/mol
-----------------------------------------------------------------------
Total thermal energy                   -385.86824052 Eh

Summary of corrections to the electronic energy:
(perhaps to be used in another calculation)
Total thermal correction                  0.00896522 Eh       5.63 kcal/mol
Non-thermal (ZPE) correction              0.15869930 Eh      99.59 kcal/mol
-----------------------------------------------------------------------
Total correction                          0.16766452 Eh     105.21 kcal/mol

--------
ENTHALPY
--------

The enthalpy is H = U + kB*T
                kB is Boltzmann's constant
Total thermal energy              ...   -385.86824052 Eh
Thermal Enthalpy correction       ...      0.00094421 Eh       0.59 kcal/mol
-----------------------------------------------------------------------
Total Enthalpy                    ...   -385.86729631 Eh

Note: Only C1 symmetry has been detected, increase convergence thresholds
      if your molecule has a higher symmetry. Symmetry factor of 1.0 is
      used for the rotational entropy correction.

Note: Rotational entropy computed according to Herzberg
Infrared and Raman Spectra, Chapter V,1, Van Nostrand Reinhold, 1945
Point Group:  C1, Symmetry Number:   1
Rotational constants in cm-1:     0.102659     0.043236     0.030770

Vibrational entropy computed according to the QRRHO of S. Grimme
Chem.Eur.J. 2012 18 9955 using a reference frequency of 100.0 cm-1

-------
ENTROPY
-------

The entropy contributions are T*S = T*(S(el)+S(vib)+S(rot)+S(trans))
     S(el)   - electronic entropy
     S(vib)  - vibrational entropy
     S(rot)  - rotational entropy
     S(trans)- translational entropy
The entropies will be listed as multiplied by the temperature to get
units of energy

Electronic entropy                ...      0.00000000 Eh      0.00 kcal/mol
Vibrational entropy               ...      0.01019338 Eh      6.40 kcal/mol
Rotational entropy                ...      0.01371178 Eh      8.60 kcal/mol
Translational entropy             ...      0.01915481 Eh     12.02 kcal/mol
-----------------------------------------------------------------------
Final entropy term                ...      0.04305997 Eh     27.02 kcal/mol

In case the symmetry of your molecule has not been determined correctly
or in case you have a reason to use a different symmetry number we print
out the resulting rotational entropy values for sn=1,12:

 non-linear molecules -----------------------------------
|  sn= 1 | S(rot)=       0.01371178 Eh      8.60 kcal/mol|
|  sn= 2 | S(rot)=       0.01305732 Eh      8.19 kcal/mol|
|  sn= 3 | S(rot)=       0.01267449 Eh      7.95 kcal/mol|
|  sn= 4 | S(rot)=       0.01240287 Eh      7.78 kcal/mol|
|  sn= 5 | S(rot)=       0.01219218 Eh      7.65 kcal/mol|
|  sn= 6 | S(rot)=       0.01202003 Eh      7.54 kcal/mol|
|  sn= 7 | S(rot)=       0.01187449 Eh      7.45 kcal/mol|
|  sn= 8 | S(rot)=       0.01174841 Eh      7.37 kcal/mol|
|  sn= 9 | S(rot)=       0.01163720 Eh      7.30 kcal/mol|

                             ****ORCA TERMINATED NORMALLY****
TOTAL RUN TIME: 0 days 0 hours 16 minutes 58 seconds 141 msec
