                         Program Version 6.0.1  -  RELEASE   -
|  1> ! r2scan-3c def2/J RI DEFGRID2 scfconv6 printgap
|  2> %output
|  3>     printlevel normal
|  4> end
|  5> * xyz 0 1
|  6> C -2.5680898415 -0.657055019 -0.3168262191
|  7> C -1.1900829618 -0.2842321976 0.2380069393
|  8> H -1.2461078644 -0.219702977 1.3357407034
|  9> C -0.7122005282 1.0661688141 -0.3079123997
| 10> H -0.7006682249 1.0249319124 -1.4095123981
| 11> C 0.7197024711 1.3370600336 0.1706343694
| 12> H 0.7207419825 1.4377290563 1.2688968969
| 13> C 1.619246491 0.1598788159 -0.2064265027
| 14> H 1.6658406146 0.070861664 -1.3031873231
| 15> C 1.0082250081 -1.1368765175 0.344862626
| 16> H 0.9958394996 -1.081671093 1.4558926194
| 17> O -0.2978669288 -1.325857618 -0.1284819346
| 18> O 1.7943646413 -2.1964289936 -0.0846809808
| 19> O 2.8983597875 0.3915090122 0.326246533
| 20> O 1.1562718606 2.5366623422 -0.4186644857
| 21> O -1.5880834957 2.0650138146 0.1350263085
| 22> O -3.0508901085 -1.8475410141 0.2392855762
| 23> H -2.4936493845 -0.737041609 -1.4099927811
| 24> H -3.275847571 0.1305509497 -0.0573080956
| 25> H 1.270720242 -3.0043255012 -0.0336884185
| 26> H 3.4152840248 -0.4147850994 0.2105393619
| 27> H 2.1047921931 2.6070300278 -0.2562008996
| 28> H -1.1695691838 2.9135223885 -0.0616313861
| 29> H -2.3819266614 -2.5272864599 0.094893118
| 30> *
| 31>
| 32>                          ****END OF INPUT****

CARTESIAN COORDINATES (ANGSTROEM)
---------------------------------
  C     -2.568090   -0.657055   -0.316826
  C     -1.190083   -0.284232    0.238007
  H     -1.246108   -0.219703    1.335741
  C     -0.712201    1.066169   -0.307912
  H     -0.700668    1.024932   -1.409512
  C      0.719702    1.337060    0.170634
  H      0.720742    1.437729    1.268897
  C      1.619246    0.159879   -0.206427
  H      1.665841    0.070862   -1.303187
  C      1.008225   -1.136877    0.344863
  H      0.995839   -1.081671    1.455893
  O     -0.297867   -1.325858   -0.128482
  O      1.794365   -2.196429   -0.084681
  O      2.898360    0.391509    0.326247
  O      1.156272    2.536662   -0.418664
  O     -1.588083    2.065014    0.135026
  O     -3.050890   -1.847541    0.239286
  H     -2.493649   -0.737042   -1.409993
  H     -3.275848    0.130551   -0.057308
  H      1.270720   -3.004326   -0.033688
  H      3.415284   -0.414785    0.210539
  H      2.104792    2.607030   -0.256201
  H     -1.169569    2.913522   -0.061631
  H     -2.381927   -2.527286    0.094893

 Total Charge           Charge          ....    0
 Multiplicity           Mult            ....    1
 Number of Electrons    NEL             ....   96
 Basis Dimension        Dim             ....  318

ORBITAL ENERGIES
----------------

  NO   OCC          E(Eh)            E(eV)
   0   2.0000     -18.986226      -516.6415
   1   2.0000     -18.982240      -516.5330
   2   2.0000     -18.972660      -516.2723
   3   2.0000     -18.967428      -516.1300
   4   2.0000     -18.961995      -515.9821
   5   2.0000     -18.951546      -515.6978
   6   2.0000     -10.150907      -276.2202
   7   2.0000     -10.098671      -274.7988
   8   2.0000     -10.097577      -274.7690
   9   2.0000     -10.097234      -274.7597
  10   2.0000     -10.096701      -274.7452
  11   2.0000     -10.080483      -274.3039
  12   2.0000      -1.067259       -29.0416
  13   2.0000      -1.023415       -27.8485
  14   2.0000      -1.013901       -27.5897
  15   2.0000      -1.000353       -27.2210
  16   2.0000      -0.993398       -27.0317
  17   2.0000      -0.987423       -26.8691
  18   2.0000      -0.760954       -20.7066
  19   2.0000      -0.744848       -20.2683
  20   2.0000      -0.661956       -18.0127
  21   2.0000      -0.622853       -16.9487
  22   2.0000      -0.598725       -16.2921
  23   2.0000      -0.566302       -15.4098
  24   2.0000      -0.546647       -14.8750
  25   2.0000      -0.512719       -13.9518
  26   2.0000      -0.497206       -13.5297
  27   2.0000      -0.488738       -13.2992
  28   2.0000      -0.478691       -13.0258
  29   2.0000      -0.465710       -12.6726
  30   2.0000      -0.441866       -12.0238
  31   2.0000      -0.428179       -11.6514
  32   2.0000      -0.416863       -11.3434
  33   2.0000      -0.396328       -10.7846
  34   2.0000      -0.391701       -10.6587
  35   2.0000      -0.385475       -10.4893
  36   2.0000      -0.360970        -9.8225
  37   2.0000      -0.351878        -9.5751
  38   2.0000      -0.342282        -9.3140
  39   2.0000      -0.326985        -8.8977
  40   2.0000      -0.316378        -8.6091
  41   2.0000      -0.299695        -8.1551
  42   2.0000      -0.282298        -7.6817
  43   2.0000      -0.275687        -7.5018
  44   2.0000      -0.257431        -7.0051
  45   2.0000      -0.248278        -6.7560
  46   2.0000      -0.241893        -6.5822
  47   2.0000      -0.237805        -6.4710
  48   0.0000       0.025920         0.7053
  49   0.0000       0.038297         1.0421
  50   0.0000       0.070704         1.9240
  51   0.0000       0.077281         2.1029
  52   0.0000       0.084643         2.3033

MULLIKEN ATOMIC CHARGES
-----------------------
   0 C :   -0.271033
   1 C :   -0.061881
   2 H :    0.184757
   3 C :    0.030001
   4 H :    0.170948
   5 C :   -0.048196
   6 H :    0.173216
   7 C :    0.054886
   8 H :    0.173497
   9 C :   -0.062751
  10 H :    0.148555
  11 O :   -0.224713
  12 O :   -0.399658
  13 O :   -0.446106
  14 O :   -0.445050
  15 O :   -0.441082
  16 O :   -0.406387
  17 H :    0.140362
  18 H :    0.168231
  19 H :    0.308918
  20 H :    0.315646
  21 H :    0.316376
  22 H :    0.317521
  23 H :    0.303941
Sum of atomic charges:   -0.0000000

LOEWDIN ATOMIC CHARGES
----------------------
   0 C :    0.044236
   1 C :    0.119110
   2 H :    0.189764
   3 C :    0.113931
   4 H :    0.183885
   5 C :    0.107052
   6 H :    0.186118
   7 C :    0.115188
   8 H :    0.188753
   9 C :    0.298292
  10 H :    0.181104
  11 O :   -0.692044
  12 O :   -0.504708
  13 O :   -0.569241
  14 O :   -0.572831
  15 O :   -0.570945
  16 O :   -0.584682
  17 H :    0.167760
  18 H :    0.196878
  19 H :    0.282901
  20 H :    0.282408
  21 H :    0.282839
  22 H :    0.283478
  23 H :    0.270756

  Mayer bond orders larger than 0.100000
B(  0-C ,  1-C ) :   0.9376 B(  0-C , 16-O ) :   1.0055 B(  0-C , 17-H ) :   0.9930
B(  0-C , 18-H ) :   0.9603 B(  1-C ,  2-H ) :   0.9535 B(  1-C ,  3-C ) :   0.8680
B(  1-C , 11-O ) :   0.7902 B(  3-C ,  4-H ) :   0.9598 B(  3-C ,  5-C ) :   0.8708
B(  3-C , 15-O ) :   0.8489 B(  5-C ,  6-H ) :   0.9879 B(  5-C ,  7-C ) :   0.8568
B(  5-C , 14-O ) :   0.9085 B(  7-C ,  8-H ) :   0.9671 B(  7-C ,  9-C ) :   0.8129
B(  7-C , 13-O ) :   0.8944 B(  9-C , 10-H ) :   0.9995 B(  9-C , 11-O ) :   0.9500
B(  9-C , 12-O ) :   1.0263 B( 12-O , 19-H ) :   0.8790 B( 13-O , 20-H ) :   0.8798
B( 14-O , 21-H ) :   0.8777 B( 15-O , 22-H ) :   0.8771 B( 16-O , 23-H ) :   0.8795

Dispersion correction           -0.007975581
FINAL SINGLE POINT ENERGY      -687.079782757365

DIPOLE MOMENT
-------------

Method             : SCF
Type of density    : Electron Density
Multiplicity       :   1
Irrep              :   0
Energy             :  -687.0913591619148519 Eh
Relativity type    :
Basis              : AO
                                X                 Y                 Z
Electronic contribution:      1.894619986      -0.559631885       0.078289474
Nuclear contribution   :     -1.013361292       0.181879063      -0.154303918
                        -----------------------------------------
Total Dipole Moment    :      0.881258694      -0.377752823      -0.076014445
                        -----------------------------------------
Magnitude (a.u.)       :      0.961817174
Magnitude (Debye)      :      2.444744969

Rotational constants in cm-1:             0.039475             0.026216             0.016426
Rotational constants in MHz :          1183.437591           785.926823           492.446881

                             ****ORCA TERMINATED NORMALLY****
TOTAL RUN TIME: 0 days 0 hours 0 minutes 36 seconds 841 msec
