                         Program Version 6.0.1  -  RELEASE   -
|  1> ! pbe def2-sv(p) def2/J RI DEFGRID1 loosescf d4 GCP(DFT/SV(P)) printgap
|  2> %output
|  3>     printlevel normal
|  4> end
|  5> * xyz 0 1
|  6> C -3.4625741349 0.4207573959 -3.39324e-05
|  7> C -2.6996531334 1.5747942295 -2.18449e-05
|  8> C -1.3169347675 1.4887173963 -7.7062e-06
|  9> C -0.7099367487 0.2499469947 -5.5261e-06
| 10> C -1.4643296663 -0.9198139657 -1.79672e-05
| 11> C -2.8504473575 -0.8202248228 -3.2288e-05
| 12> O -0.8110896173 -2.1041330018 -1.56343e-05
| 13> I 1.3913942663 0.0698300156 1.43365e-05
| 14> H -4.5400753645 0.4817133778 -4.4154e-05
| 15> H -3.1747752833 2.5431637975 -2.24087e-05
| 16> H -0.7136676459 2.3832354656 2.9536e-06
| 17> H -3.4449798313 -1.7240756124 -4.18778e-05
| 18> H -1.4345623129 -2.8396480525 -3.01769e-05
| 19> *
| 20>
| 21>                          ****END OF INPUT****

CARTESIAN COORDINATES (ANGSTROEM)
---------------------------------
  C     -3.462574    0.420757   -0.000034
  C     -2.699653    1.574794   -0.000022
  C     -1.316935    1.488717   -0.000008
  C     -0.709937    0.249947   -0.000006
  C     -1.464330   -0.919814   -0.000018
  C     -2.850447   -0.820225   -0.000032
  O     -0.811090   -2.104133   -0.000016
  I      1.391394    0.069830    0.000014
  H     -4.540075    0.481713   -0.000044
  H     -3.174775    2.543164   -0.000022
  H     -0.713668    2.383235    0.000003
  H     -3.444980   -1.724076   -0.000042
  H     -1.434562   -2.839648   -0.000030

 Total Charge           Charge          ....    0
 Multiplicity           Mult            ....    1
 Number of Electrons    NEL             ....   74
 Basis Dimension        Dim             ....  134

ORBITAL ENERGIES
----------------

  NO   OCC          E(Eh)            E(eV)
   0   2.0000     -18.798004      -511.5197
   1   2.0000      -9.970058      -271.2991
   2   2.0000      -9.938246      -270.4334
   3   2.0000      -9.906095      -269.5586
   4   2.0000      -9.905968      -269.5551
   5   2.0000      -9.903015      -269.4747
   6   2.0000      -9.896401      -269.2948
   7   2.0000      -6.598850      -179.5638
   8   2.0000      -4.671357      -127.1141
   9   2.0000      -4.653884      -126.6386
  10   2.0000      -4.652911      -126.6121
  11   2.0000      -1.807535       -49.1855
  12   2.0000      -1.802819       -49.0572
  13   2.0000      -1.802155       -49.0391
  14   2.0000      -1.788058       -48.6555
  15   2.0000      -1.788036       -48.6549
  16   2.0000      -0.981716       -26.7138
  17   2.0000      -0.788045       -21.4438
  18   2.0000      -0.698975       -19.0201
  19   2.0000      -0.678203       -18.4548
  20   2.0000      -0.623329       -16.9616
  21   2.0000      -0.581259       -15.8169
  22   2.0000      -0.539247       -14.6737
  23   2.0000      -0.507268       -13.8035
  24   2.0000      -0.446900       -12.1608
  25   2.0000      -0.432222       -11.7614
  26   2.0000      -0.401160       -10.9161
  27   2.0000      -0.382498       -10.4083
  28   2.0000      -0.371523       -10.1097
  29   2.0000      -0.341997        -9.3062
  30   2.0000      -0.330938        -9.0053
  31   2.0000      -0.310951        -8.4614
  32   2.0000      -0.300003        -8.1635
  33   2.0000      -0.262216        -7.1353
  34   2.0000      -0.219773        -5.9803
  35   2.0000      -0.219068        -5.9611
  36   2.0000      -0.198931        -5.4132
  37   0.0000      -0.051140        -1.3916
  38   0.0000      -0.046861        -1.2751
  39   0.0000      -0.030090        -0.8188
  40   0.0000       0.014905         0.4056
  41   0.0000       0.050355         1.3702

MULLIKEN ATOMIC CHARGES
-----------------------
   0 C :   -0.052106
   1 C :   -0.042896
   2 C :   -0.107838
   3 C :   -0.126170
   4 C :    0.204673
   5 C :   -0.150825
   6 O :   -0.311313
   7 I :    0.054104
   8 H :    0.057951
   9 H :    0.057503
  10 H :    0.063004
  11 H :    0.033970
  12 H :    0.319942
Sum of atomic charges:    0.0000000

LOEWDIN ATOMIC CHARGES
----------------------
   0 C :   -0.115561
   1 C :   -0.140617
   2 C :   -0.123798
   3 C :   -0.197630
   4 C :    0.007691
   5 C :   -0.168967
   6 O :   -0.220125
   7 I :    0.146648
   8 H :    0.127147
   9 H :    0.127341
  10 H :    0.132201
  11 H :    0.123931
  12 H :    0.301738

  Mayer bond orders larger than 0.100000
B(  0-C ,  1-C ) :   1.3733 B(  0-C ,  5-C ) :   1.3643 B(  0-C ,  8-H ) :   0.9629
B(  1-C ,  2-C ) :   1.3692 B(  1-C ,  9-H ) :   0.9661 B(  2-C ,  3-C ) :   1.4267
B(  2-C , 10-H ) :   0.9608 B(  3-C ,  4-C ) :   1.3716 B(  3-C ,  7-I ) :   1.0215
B(  4-C ,  5-C ) :   1.3378 B(  4-C ,  6-O ) :   1.2397 B(  5-C , 11-H ) :   0.9574
B(  6-O , 12-H ) :   0.8370

Dispersion correction           -0.016206622
FINAL SINGLE POINT ENERGY      -603.901127853992

DIPOLE MOMENT
-------------

Method             : SCF
Type of density    : Electron Density
Multiplicity       :   1
Irrep              :   0
Energy             :  -603.9377226119172519 Eh
Relativity type    :
Basis              : AO
                                X                 Y                 Z
Electronic contribution:    112.506271538       3.870185583       0.001153572
Nuclear contribution   :   -113.445420759      -4.304922900      -0.001167645
                        -----------------------------------------
Total Dipole Moment    :     -0.939149221      -0.434737318      -0.000014072
                        -----------------------------------------
Magnitude (a.u.)       :      1.034890233
Magnitude (Debye)      :      2.630481925

Rotational constants in cm-1:             0.097848             0.024654             0.019693
Rotational constants in MHz :          2933.394946           739.121571           590.367796

                             ****ORCA TERMINATED NORMALLY****
TOTAL RUN TIME: 0 days 0 hours 0 minutes 16 seconds 335 msec
