                         Program Version 6.0.1  -  RELEASE   -
|  1> # input to generate an atomic fitting density for I
|  2> # this file is used internally by ORCA
|  3> #
|  4> # atomic ground state (Mult=2): 1s2 2s2 2p6 3s2 3p6 4s2 3d10 4p6 5s2 4d10 5p5
|  5> #
|  6> ! ROHF def2-SVP def2/J Conv LeanSCF AODIIS SOSCF NoMulliken NoLoewdin NoMayer NoPrintMOs
|  7>
|  8> %output print[p_atomdensfit] 2 end
|  9>
| 10> %scf
| 11>   guess     HCore
| 12>   maxiter    1000
| 13>   maxdisk  500000
| 14>   diismaxeq     8
| 15>   soscfstart 1e-4
| 16>   lshift  1.000000
| 17>   ignoreconv true
| 18>
| 19>   hftyp        rohf
| 20>   rohf_case    sahf
| 21>   rohf_numop   2
| 22>   rohf_norb[1] 3
| 23>   rohf_nel[1]  5
| 24>
| 25> end
| 26>
| 27> %basis
| 28>   NewECP 53
| 29>     N_core 28
| 30>     lmax f
| 31>     s 7
| 32>       1      40.0158350000     49.9942930000  2
| 33>       2      17.4297470000    281.0253170000  2
| 34>       3       9.0054840000     61.5733260000  2
| 35>       4      19.4586090000     21.8420400000  2
| 36>       5      19.3492600000     28.4681910000  2
| 37>       6       4.8237670000      0.2437130000  2
| 38>       7       4.8843150000      0.3208040000  2
| 39>     p 8
| 40>       1      15.3554660000     67.4428410000  2
| 41>       2      14.9718330000    134.8811370000  2
| 42>       3       8.9601640000     14.6750510000  2
| 43>       4       8.2590960000     29.3756660000  2
| 44>       5      19.4586090000     21.8420400000  2
| 45>       6      19.3492600000     28.4681910000  2
| 46>       7       4.8237670000      0.2437130000  2
| 47>       8       4.8843150000      0.3208040000  2
| 48>     d 10
| 49>       1      15.0689080000     35.4395290000  2
| 50>       2      14.5553220000     53.1760570000  2
| 51>       3       6.7186470000      9.0671950000  2
| 52>       4       6.4563930000     13.2069370000  2
| 53>       5       1.1917790000      0.0893350000  2
| 54>       6       1.2911570000      0.0523800000  2
| 55>       7      19.4586090000     21.8420400000  2
| 56>       8      19.3492600000     28.4681910000  2
| 57>       9       4.8237670000      0.2437130000  2
| 58>      10       4.8843150000      0.3208040000  2
| 59>     f 4
| 60>       1      19.4586090000    -21.8420400000  2
| 61>       2      19.3492600000    -28.4681910000  2
| 62>       3       4.8237670000     -0.2437130000  2
| 63>       4       4.8843150000     -0.3208040000  2
| 64>   end
| 65>   NewGTO 53
| 66>     s 6
| 67>      1     445.9048917600      0.0022025754
| 68>      2      23.3368424120     -0.1647691779
| 69>      3      19.5834461040      0.4005236426
| 70>      4       8.5112089186     -0.8303440534
| 71>      5       2.1996161861      0.9103490390
| 72>      6       1.0668970454      0.4634503367
| 73>     s 2
| 74>      1      11.7205475720     -0.0469729845
| 75>      2       1.7625986449      1.0252380966
| 76>     s 1
| 77>      1       0.2869747632      1.0000000000
| 78>     s 1
| 79>      1       0.1122760961      1.0000000000
| 80>     p 4
| 81>      1      20.4990272540      0.0845621086
| 82>      2      10.5587545760     -0.4205167918
| 83>      3       1.5015895485      0.9157047730
| 84>      4       0.6459717310      0.1839785228
| 85>     p 1
| 86>      1       3.0288656771      1.0000000000
| 87>     p 1
| 88>      1       0.3450659184      1.0000000000
| 89>     p 1
| 90>      1       0.1113451381      1.0000000000
| 91>     d 5
| 92>      1      51.2353549200      0.0041015169
| 93>      2      15.6162394820     -0.0051611250
| 94>      3       4.5266002139      0.2963519699
| 95>      4       2.0529808766      0.5199519651
| 96>      5       0.8764028162      0.3175071685
| 97>     d 1
| 98>      1       0.3090000000      1.0000000000
| 99>   end
|100>   NewAuxGTO 53
|101>     S 1
|102>      1 1310.72 1.0
|103>     S 1
|104>      1  655.36 1.0
|105>     S 1
|106>      1  327.68 1.0
|107>     S 1
|108>      1  163.84 1.0
|109>     S 1
|110>      1   81.82 1.0
|111>     S 1
|112>      1   40.96 1.0
|113>     S 1
|114>      1   20.48 1.0
|115>     S 1
|116>      1   10.24 1.0
|117>     S 1
|118>      1    5.12 1.0
|119>     S 1
|120>      1    2.56 1.0
|121>     S 1
|122>      1    1.28 1.0
|123>     S 1
|124>      1    0.64 1.0
|125>     S 1
|126>      1    0.32 1.0
|127>     S 1
|128>      1    0.16 1.0
|129>     S 1
|130>      1    0.08 1.0
|131>     S 1
|132>      1    0.04 1.0
|133>     S 1
|134>      1    0.02 1.0
|135>     S 1
|136>      1    0.01 1.0
|137>   end
|138> end
|139>
|140> * xyz 0 2
|141> 53  0.0 0.0 0.0
|142> *
|143>
|144>
|145>                          ****END OF INPUT****

CARTESIAN COORDINATES (ANGSTROEM)
---------------------------------
  I      0.000000    0.000000    0.000000

 Total Charge           Charge          ....    0
 Multiplicity           Mult            ....    2
 Number of Electrons    NEL             ....   25
 Basis Dimension        Dim             ....   26

ORBITAL ENERGIES
----------------

  NO   OCC          E(Eh)            E(eV)
   0   2.0000      -7.757886      -211.1028
   1   2.0000      -5.605819      -152.5421
   2   2.0000      -5.605819      -152.5421
   3   2.0000      -5.605819      -152.5421
   4   2.0000      -2.299782       -62.5803
   5   2.0000      -2.299782       -62.5803
   6   2.0000      -2.299782       -62.5803
   7   2.0000      -2.299782       -62.5803
   8   2.0000      -2.299782       -62.5803
   9   2.0000      -0.874803       -23.8046
  10   1.6667      -0.400308       -10.8929
  11   1.6667      -0.400308       -10.8929
  12   1.6667      -0.400308       -10.8929
  13   0.0000       0.344364         9.3706
  14   0.0000       0.494154        13.4466
  15   0.0000       0.494154        13.4466
  16   0.0000       0.494154        13.4466
  17   0.0000       0.529267        14.4021

FINAL SINGLE POINT ENERGY      -296.646254369666

DIPOLE MOMENT
-------------

Method             : SCF
Type of density    : Electron Density
Multiplicity       :   2
Irrep              :   0
Energy             :  -296.6462543696661669 Eh
Relativity type    :
Basis              : AO
                                X                 Y                 Z
Electronic contribution:      0.000000000       0.000000000       0.000000000
Nuclear contribution   :      0.000000000       0.000000000       0.000000000
                        -----------------------------------------
Total Dipole Moment    :      0.000000000       0.000000000       0.000000000
                        -----------------------------------------
Magnitude (a.u.)       :      0.000000000
Magnitude (Debye)      :      0.000000000

Rotational constants in cm-1:             0.000000             0.000000             0.000000
Rotational constants in MHz :             0.000000             0.000000             0.000000

                             ****ORCA TERMINATED NORMALLY****
TOTAL RUN TIME: 0 days 0 hours 0 minutes 6 seconds 199 msec
