                         Program Version 6.0.1  -  RELEASE   -
|  1> ! pbe def2-sv(p) def2/J RI DEFGRID1 loosescf d4 GCP(DFT/SV(P)) printgap
|  2> %output
|  3>     printlevel normal
|  4> end
|  5> * xyz 0 1
|  6> C -2.2198176456 -1.2121898649 0.0948071194
|  7> C -0.8467917918 -0.5933177899 0.3989413238
|  8> H -0.7826806187 -0.3565366252 1.4749302025
|  9> C -0.6350929222 0.7016208062 -0.3967961091
| 10> H -0.6967343899 0.4475308598 -1.4709591401
| 11> C 0.7650006405 1.2818543963 -0.1092859293
| 12> H 0.6334169642 2.1042221345 0.6114636552
| 13> C 1.7138058319 0.2309331887 0.5054987216
| 14> H 2.7405937816 0.5185783468 0.2345657267
| 15> C 1.4410840421 -1.1362963293 -0.1379757108
| 16> H 2.0703652108 -1.907866726 0.3229977222
| 17> O 0.114706556 -1.5725151943 0.0657852807
| 18> O 1.7748384529 -1.1120518458 -1.4854834091
| 19> O 1.5690940153 0.11800194 1.8965050242
| 20> O 1.3767189871 1.7541330789 -1.2903836306
| 21> O -1.5802052757 1.6909668165 -0.0766527211
| 22> O -3.2848767156 -0.4130539325 0.5604620769
| 23> H -2.2480093764 -2.2172031472 0.527819235
| 24> H -2.3527236094 -1.2993927141 -0.985781696
| 25> H 1.5589527125 -0.2465613471 -1.8650563642
| 26> H 1.8592578275 0.9377223692 2.3132200814
| 27> H 0.8216366086 2.4486011925 -1.6641786825
| 28> H -2.452570765 1.2667417243 -0.0218070942
| 29> H -3.2797830256 -0.4166080217 1.5247708093
| 30> *
| 31>
| 32>                          ****END OF INPUT****

CARTESIAN COORDINATES (ANGSTROEM)
---------------------------------
  C     -2.219818   -1.212190    0.094807
  C     -0.846792   -0.593318    0.398941
  H     -0.782681   -0.356537    1.474930
  C     -0.635093    0.701621   -0.396796
  H     -0.696734    0.447531   -1.470959
  C      0.765001    1.281854   -0.109286
  H      0.633417    2.104222    0.611464
  C      1.713806    0.230933    0.505499
  H      2.740594    0.518578    0.234566
  C      1.441084   -1.136296   -0.137976
  H      2.070365   -1.907867    0.322998
  O      0.114707   -1.572515    0.065785
  O      1.774838   -1.112052   -1.485483
  O      1.569094    0.118002    1.896505
  O      1.376719    1.754133   -1.290384
  O     -1.580205    1.690967   -0.076653
  O     -3.284877   -0.413054    0.560462
  H     -2.248009   -2.217203    0.527819
  H     -2.352724   -1.299393   -0.985782
  H      1.558953   -0.246561   -1.865056
  H      1.859258    0.937722    2.313220
  H      0.821637    2.448601   -1.664179
  H     -2.452571    1.266742   -0.021807
  H     -3.279783   -0.416608    1.524771

 Total Charge           Charge          ....    0
 Multiplicity           Mult            ....    1
 Number of Electrons    NEL             ....   96
 Basis Dimension        Dim             ....  192

ORBITAL ENERGIES
----------------

  NO   OCC          E(Eh)            E(eV)
   0   2.0000     -18.778432      -510.9871
   1   2.0000     -18.773639      -510.8567
   2   2.0000     -18.766149      -510.6529
   3   2.0000     -18.759937      -510.4838
   4   2.0000     -18.745001      -510.0774
   5   2.0000     -18.743085      -510.0253
   6   2.0000      -9.978487      -271.5284
   7   2.0000      -9.951171      -270.7851
   8   2.0000      -9.949661      -270.7440
   9   2.0000      -9.943699      -270.5818
  10   2.0000      -9.941705      -270.5276
  11   2.0000      -9.941096      -270.5110
  12   2.0000      -0.975477       -26.5441
  13   2.0000      -0.953222       -25.9385
  14   2.0000      -0.949662       -25.8416
  15   2.0000      -0.939327       -25.5604
  16   2.0000      -0.922606       -25.1054
  17   2.0000      -0.903483       -24.5850
  18   2.0000      -0.705038       -19.1851
  19   2.0000      -0.692476       -18.8432
  20   2.0000      -0.625757       -17.0277
  21   2.0000      -0.587029       -15.9739
  22   2.0000      -0.574691       -15.6381
  23   2.0000      -0.523076       -14.2336
  24   2.0000      -0.509178       -13.8554
  25   2.0000      -0.493546       -13.4301
  26   2.0000      -0.469481       -12.7752
  27   2.0000      -0.458998       -12.4900
  28   2.0000      -0.456840       -12.4313
  29   2.0000      -0.449570       -12.2334
  30   2.0000      -0.418466       -11.3870
  31   2.0000      -0.404386       -11.0039
  32   2.0000      -0.388893       -10.5823
  33   2.0000      -0.373679       -10.1683
  34   2.0000      -0.368004       -10.0139
  35   2.0000      -0.355565        -9.6754
  36   2.0000      -0.330135        -8.9834
  37   2.0000      -0.321778        -8.7560
  38   2.0000      -0.314122        -8.5477
  39   2.0000      -0.298575        -8.1246
  40   2.0000      -0.292080        -7.9479
  41   2.0000      -0.262640        -7.1468
  42   2.0000      -0.250595        -6.8190
  43   2.0000      -0.246942        -6.7196
  44   2.0000      -0.236909        -6.4466
  45   2.0000      -0.229513        -6.2454
  46   2.0000      -0.220228        -5.9927
  47   2.0000      -0.204413        -5.5624
  48   0.0000       0.009091         0.2474
  49   0.0000       0.014084         0.3832
  50   0.0000       0.021907         0.5961
  51   0.0000       0.049411         1.3445
  52   0.0000       0.064144         1.7454

MULLIKEN ATOMIC CHARGES
-----------------------
   0 C :    0.065738
   1 C :    0.014874
   2 H :    0.052770
   3 C :    0.025159
   4 H :    0.039357
   5 C :    0.060203
   6 H :    0.056292
   7 C :   -0.017441
   8 H :    0.089518
   9 C :    0.211370
  10 H :    0.070462
  11 O :   -0.303917
  12 O :   -0.395630
  13 O :   -0.402326
  14 O :   -0.414712
  15 O :   -0.433161
  16 O :   -0.436181
  17 H :    0.101092
  18 H :    0.090712
  19 H :    0.299376
  20 H :    0.305068
  21 H :    0.315183
  22 H :    0.298047
  23 H :    0.308146
Sum of atomic charges:   -0.0000000

LOEWDIN ATOMIC CHARGES
----------------------
   0 C :   -0.127653
   1 C :   -0.084968
   2 H :    0.100372
   3 C :   -0.082483
   4 H :    0.096877
   5 C :   -0.074372
   6 H :    0.108020
   7 C :   -0.090790
   8 H :    0.114845
   9 C :    0.008452
  10 H :    0.109332
  11 O :   -0.141577
  12 O :   -0.305929
  13 O :   -0.306589
  14 O :   -0.312296
  15 O :   -0.335791
  16 O :   -0.319924
  17 H :    0.111159
  18 H :    0.118355
  19 H :    0.268979
  20 H :    0.289006
  21 H :    0.295478
  22 H :    0.270767
  23 H :    0.290730

  Mayer bond orders larger than 0.100000
B(  0-C ,  1-C ) :   1.0170 B(  0-C , 16-O ) :   1.0171 B(  0-C , 17-H ) :   0.9220
B(  0-C , 18-H ) :   0.9143 B(  1-C ,  2-H ) :   0.8598 B(  1-C ,  3-C ) :   1.0795
B(  1-C , 11-O ) :   1.0016 B(  3-C ,  4-H ) :   0.8484 B(  3-C ,  5-C ) :   1.0173
B(  3-C , 15-O ) :   1.0959 B(  5-C ,  6-H ) :   0.8590 B(  5-C ,  7-C ) :   0.9962
B(  5-C , 14-O ) :   1.0387 B(  7-C ,  8-H ) :   0.8922 B(  7-C ,  9-C ) :   1.0277
B(  7-C , 13-O ) :   1.0369 B(  9-C , 10-H ) :   0.8981 B(  9-C , 11-O ) :   1.0386
B(  9-C , 12-O ) :   1.1468 B( 12-O , 19-H ) :   0.8118 B( 13-O , 20-H ) :   0.8463
B( 14-O , 21-H ) :   0.8422 B( 15-O , 22-H ) :   0.7975 B( 16-O , 22-H ) :   0.1262
B( 16-O , 23-H ) :   0.8428

Dispersion correction           -0.024918455
FINAL SINGLE POINT ENERGY      -685.693890105741

DIPOLE MOMENT
-------------

Method             : SCF
Type of density    : Electron Density
Multiplicity       :   1
Irrep              :   0
Energy             :  -685.8269848545427294 Eh
Relativity type    :
Basis              : AO
                                X                 Y                 Z
Electronic contribution:      1.651699493      -0.241534982      -0.239249153
Nuclear contribution   :     -1.997127806       1.207029389       0.935146539
                        -----------------------------------------
Total Dipole Moment    :     -0.345428313       0.965494407       0.695897386
                        -----------------------------------------
Magnitude (a.u.)       :      1.239263226
Magnitude (Debye)      :      3.149956788

Rotational constants in cm-1:             0.043413             0.025094             0.021740
Rotational constants in MHz :          1301.483640           752.290453           651.747688

                             ****ORCA TERMINATED NORMALLY****
TOTAL RUN TIME: 0 days 0 hours 0 minutes 7 seconds 851 msec
