                         Program Version 6.0.1  -  RELEASE   -
|  1> ! pbe def2-sv(p) def2/J RI DEFGRID1 loosescf d4 GCP(DFT/SV(P)) printgap
|  2> %output
|  3>     printlevel normal
|  4> end
|  5> * xyz 0 1
|  6> C -2.1054316198 -1.3644199056 -0.0495357278
|  7> C -0.9679928678 -0.5458039943 0.5942127329
|  8> H -1.3185409112 -0.1920682771 1.575662793
|  9> C -0.6161263612 0.6676761628 -0.2746922982
| 10> H -0.5424164053 0.3765970908 -1.3289295448
| 11> C 0.7313133855 1.2582598736 0.1579788874
| 12> H 0.6862625923 1.5315118518 1.2264535892
| 13> C 1.8429218738 0.2138349611 -0.0012331473
| 14> H 2.3110442241 0.3694318257 -0.9821658902
| 15> C 1.2600872583 -1.219730624 0.0138624599
| 16> H 2.0100334109 -1.8991699295 0.4531450704
| 17> O 0.1589332199 -1.3694978047 0.8617505285
| 18> O 0.9731693553 -1.5807584772 -1.3053471716
| 19> O 2.7569254968 0.4042880739 1.0453379644
| 20> O 1.0411159802 2.3853570233 -0.6174566614
| 21> O -1.6279436469 1.6521837407 -0.2318750269
| 22> O -3.3192589519 -0.6660897177 -0.0427504909
| 23> H -2.2644630707 -2.2749425742 0.533109219
| 24> H -1.8157816883 -1.643379108 -1.0738707999
| 25> H 0.6174291378 -2.4782531741 -1.3152659653
| 26> H 3.5685018494 -0.0804939266 0.8606897687
| 27> H 0.2126100761 2.8452857569 -0.8130725097
| 28> H -1.7421634685 1.9454139175 0.6818944718
| 29> H -3.1769517062 0.1962310608 -0.4592633429
| 30> *
| 31>
| 32>                          ****END OF INPUT****

CARTESIAN COORDINATES (ANGSTROEM)
---------------------------------
  C     -2.105432   -1.364420   -0.049536
  C     -0.967993   -0.545804    0.594213
  H     -1.318541   -0.192068    1.575663
  C     -0.616126    0.667676   -0.274692
  H     -0.542416    0.376597   -1.328930
  C      0.731313    1.258260    0.157979
  H      0.686263    1.531512    1.226454
  C      1.842922    0.213835   -0.001233
  H      2.311044    0.369432   -0.982166
  C      1.260087   -1.219731    0.013862
  H      2.010033   -1.899170    0.453145
  O      0.158933   -1.369498    0.861751
  O      0.973169   -1.580758   -1.305347
  O      2.756925    0.404288    1.045338
  O      1.041116    2.385357   -0.617457
  O     -1.627944    1.652184   -0.231875
  O     -3.319259   -0.666090   -0.042750
  H     -2.264463   -2.274943    0.533109
  H     -1.815782   -1.643379   -1.073871
  H      0.617429   -2.478253   -1.315266
  H      3.568502   -0.080494    0.860690
  H      0.212610    2.845286   -0.813073
  H     -1.742163    1.945414    0.681894
  H     -3.176952    0.196231   -0.459263

 Total Charge           Charge          ....    0
 Multiplicity           Mult            ....    1
 Number of Electrons    NEL             ....   96
 Basis Dimension        Dim             ....  192

ORBITAL ENERGIES
----------------

  NO   OCC          E(Eh)            E(eV)
   0   2.0000     -18.787809      -511.2423
   1   2.0000     -18.776598      -510.9372
   2   2.0000     -18.772035      -510.8131
   3   2.0000     -18.755897      -510.3739
   4   2.0000     -18.746858      -510.1279
   5   2.0000     -18.742237      -510.0022
   6   2.0000      -9.991423      -271.8804
   7   2.0000      -9.953611      -270.8515
   8   2.0000      -9.950207      -270.7589
   9   2.0000      -9.945578      -270.6329
  10   2.0000      -9.944957      -270.6160
  11   2.0000      -9.930990      -270.2360
  12   2.0000      -0.991109       -26.9695
  13   2.0000      -0.966856       -26.3095
  14   2.0000      -0.938347       -25.5337
  15   2.0000      -0.924889       -25.1675
  16   2.0000      -0.920479       -25.0475
  17   2.0000      -0.917313       -24.9614
  18   2.0000      -0.711398       -19.3581
  19   2.0000      -0.696648       -18.9568
  20   2.0000      -0.617431       -16.8012
  21   2.0000      -0.603337       -16.4176
  22   2.0000      -0.567434       -15.4407
  23   2.0000      -0.530433       -14.4338
  24   2.0000      -0.514930       -14.0120
  25   2.0000      -0.493390       -13.4258
  26   2.0000      -0.486642       -13.2422
  27   2.0000      -0.469672       -12.7804
  28   2.0000      -0.449300       -12.2261
  29   2.0000      -0.421055       -11.4575
  30   2.0000      -0.412572       -11.2266
  31   2.0000      -0.408314       -11.1108
  32   2.0000      -0.384454       -10.4615
  33   2.0000      -0.377769       -10.2796
  34   2.0000      -0.375125       -10.2077
  35   2.0000      -0.361826        -9.8458
  36   2.0000      -0.348785        -9.4909
  37   2.0000      -0.315740        -8.5917
  38   2.0000      -0.307975        -8.3804
  39   2.0000      -0.300103        -8.1662
  40   2.0000      -0.290106        -7.8942
  41   2.0000      -0.273890        -7.4529
  42   2.0000      -0.263820        -7.1789
  43   2.0000      -0.245605        -6.6832
  44   2.0000      -0.243183        -6.6173
  45   2.0000      -0.230235        -6.2650
  46   2.0000      -0.216836        -5.9004
  47   2.0000      -0.202104        -5.4995
  48   0.0000       0.005585         0.1520
  49   0.0000       0.020891         0.5685
  50   0.0000       0.026255         0.7144
  51   0.0000       0.035648         0.9700
  52   0.0000       0.062882         1.7111

MULLIKEN ATOMIC CHARGES
-----------------------
   0 C :    0.079986
   1 C :    0.040978
   2 H :    0.060921
   3 C :   -0.022653
   4 H :    0.087126
   5 C :    0.056956
   6 H :    0.052202
   7 C :    0.104326
   8 H :    0.079364
   9 C :    0.132111
  10 H :    0.049356
  11 O :   -0.303718
  12 O :   -0.394468
  13 O :   -0.406305
  14 O :   -0.406343
  15 O :   -0.418290
  16 O :   -0.443009
  17 H :    0.089212
  18 H :    0.055960
  19 H :    0.305103
  20 H :    0.301200
  21 H :    0.297096
  22 H :    0.306317
  23 H :    0.296573
Sum of atomic charges:   -0.0000000

LOEWDIN ATOMIC CHARGES
----------------------
   0 C :   -0.129582
   1 C :   -0.076128
   2 H :    0.110606
   3 C :   -0.096505
   4 H :    0.124633
   5 C :   -0.064768
   6 H :    0.105429
   7 C :   -0.070999
   8 H :    0.117223
   9 C :   -0.012381
  10 H :    0.093714
  11 O :   -0.135945
  12 O :   -0.312411
  13 O :   -0.309324
  14 O :   -0.316792
  15 O :   -0.299546
  16 O :   -0.338566
  17 H :    0.113028
  18 H :    0.090793
  19 H :    0.284754
  20 H :    0.286953
  21 H :    0.277357
  22 H :    0.287703
  23 H :    0.270752

  Mayer bond orders larger than 0.100000
B(  0-C ,  1-C ) :   1.0427 B(  0-C , 16-O ) :   1.0848 B(  0-C , 17-H ) :   0.9215
B(  0-C , 18-H ) :   0.9043 B(  1-C ,  2-H ) :   0.8774 B(  1-C ,  3-C ) :   0.9681
B(  1-C , 11-O ) :   0.9681 B(  3-C ,  4-H ) :   0.8577 B(  3-C ,  5-C ) :   1.0730
B(  3-C , 15-O ) :   0.9766 B(  5-C ,  6-H ) :   0.8521 B(  5-C ,  7-C ) :   1.0206
B(  5-C , 14-O ) :   1.1072 B(  7-C ,  8-H ) :   0.8729 B(  7-C ,  9-C ) :   0.9942
B(  7-C , 13-O ) :   1.0921 B(  9-C , 10-H ) :   0.8955 B(  9-C , 11-O ) :   1.0835
B(  9-C , 12-O ) :   1.0844 B( 12-O , 19-H ) :   0.8330 B( 13-O , 20-H ) :   0.8486
B( 14-O , 21-H ) :   0.8297 B( 15-O , 22-H ) :   0.8371 B( 16-O , 23-H ) :   0.8224

Dispersion correction           -0.024673072
FINAL SINGLE POINT ENERGY      -685.692117889603

DIPOLE MOMENT
-------------

Method             : SCF
Type of density    : Electron Density
Multiplicity       :   1
Irrep              :   0
Energy             :  -685.8239868286725596 Eh
Relativity type    :
Basis              : AO
                                X                 Y                 Z
Electronic contribution:      1.702286498       0.894413719       0.565155450
Nuclear contribution   :     -1.364761069      -1.210990384      -0.606243528
                        -----------------------------------------
Total Dipole Moment    :      0.337525429      -0.316576665      -0.041088078
                        -----------------------------------------
Magnitude (a.u.)       :      0.464577690
Magnitude (Debye)      :      1.180862642

Rotational constants in cm-1:             0.043965             0.025998             0.019309
Rotational constants in MHz :          1318.038987           779.398340           578.877972

                             ****ORCA TERMINATED NORMALLY****
TOTAL RUN TIME: 0 days 0 hours 0 minutes 8 seconds 334 msec
