                         Program Version 6.0.1  -  RELEASE   -
|  1> ! r2scan-3c def2/J RI DEFGRID2 scfconv6 printgap
|  2> %output
|  3>     printlevel normal
|  4> end
|  5> * xyz 0 1
|  6> C -1.8129072829 -1.4610414761 0.0001123122
|  7> C -0.5225713164 -0.6990306084 1.75192e-05
|  8> C 0.6891167679 -1.3754762444 -8.6656e-05
|  9> C 1.8917433811 -0.6913847686 -0.0001147033
| 10> C 1.8917814541 0.6913231437 0.0001037454
| 11> C 0.6891851503 1.3754481901 0.0001072163
| 12> C -0.5225327024 0.6990424441 1.30478e-05
| 13> C -1.8128113019 1.4611133556 -0.0001343939
| 14> H -2.4062588995 -1.2119504762 0.879614846
| 15> H -2.4061698539 -1.2124357735 -0.8795838955
| 16> H -1.627718806 -2.5322849107 0.000430687
| 17> H 0.6903718316 -2.4567026434 -8.41973e-05
| 18> H 2.8239707375 -1.2370374801 -0.0002265905
| 19> H 2.8240425572 1.2369084495 9.83572e-05
| 20> H 0.6903990104 2.4566767304 0.0001247465
| 21> H -1.6275518818 2.5323154042 -0.0005353262
| 22> H -2.4061428261 1.211971138 -0.8796522885
| 23> H -2.4061680261 1.2126106329 0.8795981134
| 24> *
| 25>
| 26>                          ****END OF INPUT****

CARTESIAN COORDINATES (ANGSTROEM)
---------------------------------
  C     -1.812907   -1.461041    0.000112
  C     -0.522571   -0.699031    0.000018
  C      0.689117   -1.375476   -0.000087
  C      1.891743   -0.691385   -0.000115
  C      1.891781    0.691323    0.000104
  C      0.689185    1.375448    0.000107
  C     -0.522533    0.699042    0.000013
  C     -1.812811    1.461113   -0.000134
  H     -2.406259   -1.211950    0.879615
  H     -2.406170   -1.212436   -0.879584
  H     -1.627719   -2.532285    0.000431
  H      0.690372   -2.456703   -0.000084
  H      2.823971   -1.237037   -0.000227
  H      2.824043    1.236908    0.000098
  H      0.690399    2.456677    0.000125
  H     -1.627552    2.532315   -0.000535
  H     -2.406143    1.211971   -0.879652
  H     -2.406168    1.212611    0.879598

 Total Charge           Charge          ....    0
 Multiplicity           Mult            ....    1
 Number of Electrons    NEL             ....   58
 Basis Dimension        Dim             ....  202

ORBITAL ENERGIES
----------------

  NO   OCC          E(Eh)            E(eV)
   0   2.0000     -10.038169      -273.1525
   1   2.0000     -10.037762      -273.1414
   2   2.0000     -10.027004      -272.8486
   3   2.0000     -10.026993      -272.8484
   4   2.0000     -10.026299      -272.8295
   5   2.0000     -10.026204      -272.8269
   6   2.0000     -10.025826      -272.8166
   7   2.0000     -10.025459      -272.8066
   8   2.0000      -0.827983       -22.5306
   9   2.0000      -0.745379       -20.2828
  10   2.0000      -0.730456       -19.8767
  11   2.0000      -0.664889       -18.0925
  12   2.0000      -0.640283       -17.4230
  13   2.0000      -0.563700       -15.3391
  14   2.0000      -0.539690       -14.6857
  15   2.0000      -0.467969       -12.7341
  16   2.0000      -0.440136       -11.9767
  17   2.0000      -0.412734       -11.2311
  18   2.0000      -0.407752       -11.0955
  19   2.0000      -0.379281       -10.3208
  20   2.0000      -0.371624       -10.1124
  21   2.0000      -0.370219       -10.0742
  22   2.0000      -0.356220        -9.6932
  23   2.0000      -0.352545        -9.5932
  24   2.0000      -0.324065        -8.8183
  25   2.0000      -0.301957        -8.2167
  26   2.0000      -0.300322        -8.1722
  27   2.0000      -0.227054        -6.1784
  28   2.0000      -0.217571        -5.9204
  29   0.0000      -0.023108        -0.6288
  30   0.0000      -0.022657        -0.6165
  31   0.0000       0.084924         2.3109
  32   0.0000       0.098095         2.6693
  33   0.0000       0.099462         2.7065

MULLIKEN ATOMIC CHARGES
-----------------------
   0 C :   -0.551085
   1 C :    0.164120
   2 C :   -0.215123
   3 C :   -0.158606
   4 C :   -0.158616
   5 C :   -0.215114
   6 C :    0.164119
   7 C :   -0.551071
   8 H :    0.160778
   9 H :    0.160816
  10 H :    0.150189
  11 H :    0.144847
  12 H :    0.144062
  13 H :    0.144063
  14 H :    0.144845
  15 H :    0.150188
  16 H :    0.160772
  17 H :    0.160815
Sum of atomic charges:   -0.0000000

LOEWDIN ATOMIC CHARGES
----------------------
   0 C :   -0.387486
   1 C :   -0.096172
   2 C :   -0.164328
   3 C :   -0.170441
   4 C :   -0.170440
   5 C :   -0.164327
   6 C :   -0.096177
   7 C :   -0.387488
   8 H :    0.163292
   9 H :    0.163292
  10 H :    0.159450
  11 H :    0.166453
  12 H :    0.165941
  13 H :    0.165942
  14 H :    0.166453
  15 H :    0.159445
  16 H :    0.163294
  17 H :    0.163298

  Mayer bond orders larger than 0.100000
B(  0-C ,  1-C ) :   0.7958 B(  0-C ,  8-H ) :   0.9798 B(  0-C ,  9-H ) :   0.9798
B(  0-C , 10-H ) :   0.9886 B(  1-C ,  2-C ) :   1.4169 B(  1-C ,  6-C ) :   1.4572
B(  2-C ,  3-C ) :   1.4419 B(  2-C , 11-H ) :   0.9300 B(  3-C ,  4-C ) :   1.4382
B(  3-C , 12-H ) :   0.9475 B(  4-C ,  5-C ) :   1.4419 B(  4-C , 13-H ) :   0.9475
B(  5-C ,  6-C ) :   1.4169 B(  5-C , 14-H ) :   0.9300 B(  6-C ,  7-C ) :   0.7958
B(  7-C , 15-H ) :   0.9885 B(  7-C , 16-H ) :   0.9798 B(  7-C , 17-H ) :   0.9798

Dispersion correction           -0.005781363
FINAL SINGLE POINT ENERGY      -310.783938774731

DIPOLE MOMENT
-------------

Method             : SCF
Type of density    : Electron Density
Multiplicity       :   1
Irrep              :   0
Energy             :  -310.7841724423867049 Eh
Relativity type    :
Basis              : AO
                                X                 Y                 Z
Electronic contribution:      5.203526526      -0.000063160       0.000159210
Nuclear contribution   :     -5.489430681       0.000066677      -0.000202220
                        -----------------------------------------
Total Dipole Moment    :     -0.285904156       0.000003516      -0.000043010
                        -----------------------------------------
Magnitude (a.u.)       :      0.285904159
Magnitude (Debye)      :      0.726710619

Rotational constants in cm-1:             0.107256             0.072748             0.044054
Rotational constants in MHz :          3215.442617          2180.919407          1320.697443

                             ****ORCA TERMINATED NORMALLY****
TOTAL RUN TIME: 0 days 0 hours 0 minutes 18 seconds 675 msec
