                         Program Version 6.0.1  -  RELEASE   -
|  1> ! r2scan-3c def2/J RI DEFGRID2 scfconv6 printgap
|  2> %output
|  3>     printlevel normal
|  4> end
|  5> * xyz 0 1
|  6> C -2.8612996143 -0.3959404333 0.1151608411
|  7> N -1.8191240136 0.5679034119 -0.1348810127
|  8> C -0.4815534324 0.2489993588 -0.039026596
|  9> C -0.0208551722 -1.0688440613 -0.0467278173
| 10> C 1.3351468931 -1.3350984729 -0.013546915
| 11> C 2.2599067205 -0.3068299673 0.0306607909
| 12> C 1.8117338215 1.004628764 0.0417389302
| 13> C 0.4613066067 1.2811112936 0.0098051189
| 14> H -3.8260380788 0.0977062972 0.0164888194
| 15> H -2.7959267904 -0.8436115421 1.1155391045
| 16> H -2.8108089196 -1.194750418 -0.6262785057
| 17> H -2.0382393892 1.5137068507 0.1391593649
| 18> H -0.7203590395 -1.8891940291 -0.0784772717
| 19> H 1.6713570321 -2.3622496267 -0.0194732392
| 20> H 3.3171610691 -0.5227075256 0.0585034436
| 21> H 2.5215939509 1.8185243905 0.0796984198
| 22> H 0.1170635218 2.3065970463 0.0206508974
| 23> *
| 24>
| 25>                          ****END OF INPUT****

CARTESIAN COORDINATES (ANGSTROEM)
---------------------------------
  C     -2.861300   -0.395940    0.115161
  N     -1.819124    0.567903   -0.134881
  C     -0.481553    0.248999   -0.039027
  C     -0.020855   -1.068844   -0.046728
  C      1.335147   -1.335098   -0.013547
  C      2.259907   -0.306830    0.030661
  C      1.811734    1.004629    0.041739
  C      0.461307    1.281111    0.009805
  H     -3.826038    0.097706    0.016489
  H     -2.795927   -0.843612    1.115539
  H     -2.810809   -1.194750   -0.626279
  H     -2.038239    1.513707    0.139159
  H     -0.720359   -1.889194   -0.078477
  H      1.671357   -2.362250   -0.019473
  H      3.317161   -0.522708    0.058503
  H      2.521594    1.818524    0.079698
  H      0.117064    2.306597    0.020651

 Total Charge           Charge          ....    0
 Multiplicity           Mult            ....    1
 Number of Electrons    NEL             ....   58
 Basis Dimension        Dim             ....  202

ORBITAL ENERGIES
----------------

  NO   OCC          E(Eh)            E(eV)
   0   2.0000     -14.172400      -385.6506
   1   2.0000     -10.068351      -273.9738
   2   2.0000     -10.063478      -273.8412
   3   2.0000     -10.026197      -272.8267
   4   2.0000     -10.025818      -272.8164
   5   2.0000     -10.022488      -272.7258
   6   2.0000     -10.020825      -272.6805
   7   2.0000     -10.014907      -272.5195
   8   2.0000      -0.904544       -24.6139
   9   2.0000      -0.806674       -21.9507
  10   2.0000      -0.712380       -19.3848
  11   2.0000      -0.705930       -19.2093
  12   2.0000      -0.647559       -17.6210
  13   2.0000      -0.575843       -15.6695
  14   2.0000      -0.553022       -15.0485
  15   2.0000      -0.499474       -13.5914
  16   2.0000      -0.463499       -12.6124
  17   2.0000      -0.435935       -11.8624
  18   2.0000      -0.413542       -11.2531
  19   2.0000      -0.404950       -11.0192
  20   2.0000      -0.388011       -10.5583
  21   2.0000      -0.381897       -10.3919
  22   2.0000      -0.359449        -9.7811
  23   2.0000      -0.342554        -9.3214
  24   2.0000      -0.319322        -8.6892
  25   2.0000      -0.301840        -8.2135
  26   2.0000      -0.270341        -7.3563
  27   2.0000      -0.228752        -6.2247
  28   2.0000      -0.175837        -4.7848
  29   0.0000      -0.023453        -0.6382
  30   0.0000      -0.004988        -0.1357
  31   0.0000       0.069009         1.8778
  32   0.0000       0.091941         2.5019
  33   0.0000       0.102489         2.7889

MULLIKEN ATOMIC CHARGES
-----------------------
   0 C :   -0.405555
   1 N :   -0.192576
   2 C :    0.361386
   3 C :   -0.317969
   4 C :   -0.146643
   5 C :   -0.203152
   6 C :   -0.125407
   7 C :   -0.375693
   8 H :    0.145829
   9 H :    0.152590
  10 H :    0.154088
  11 H :    0.245250
  12 H :    0.140364
  13 H :    0.143452
  14 H :    0.144965
  15 H :    0.145170
  16 H :    0.133903
Sum of atomic charges:    0.0000000

LOEWDIN ATOMIC CHARGES
----------------------
   0 C :   -0.134522
   1 N :   -0.753088
   2 C :    0.136101
   3 C :   -0.173608
   4 C :   -0.154593
   5 C :   -0.206133
   6 C :   -0.157197
   7 C :   -0.160748
   8 H :    0.176542
   9 H :    0.160494
  10 H :    0.171993
  11 H :    0.259838
  12 H :    0.170952
  13 H :    0.166046
  14 H :    0.164610
  15 H :    0.166324
  16 H :    0.166988

  Mayer bond orders larger than 0.100000
B(  0-C ,  1-N ) :   0.8851 B(  0-C ,  8-H ) :   0.9717 B(  0-C ,  9-H ) :   0.9500
B(  0-C , 10-H ) :   0.9664 B(  1-N ,  2-C ) :   1.1364 B(  1-N , 11-H ) :   0.9204
B(  2-C ,  3-C ) :   1.3346 B(  2-C ,  7-C ) :   1.3058 B(  3-C ,  4-C ) :   1.4130
B(  3-C , 12-H ) :   0.9469 B(  4-C ,  5-C ) :   1.4350 B(  4-C , 13-H ) :   0.9507
B(  5-C ,  6-C ) :   1.4059 B(  5-C , 14-H ) :   0.9496 B(  6-C ,  7-C ) :   1.4486
B(  6-C , 15-H ) :   0.9425 B(  7-C , 16-H ) :   0.9467

Dispersion correction           -0.005296809
FINAL SINGLE POINT ENERGY      -326.814310143157

DIPOLE MOMENT
-------------

Method             : SCF
Type of density    : Electron Density
Multiplicity       :   1
Irrep              :   0
Energy             :  -326.8179668603929144 Eh
Relativity type    :
Basis              : AO
                                X                 Y                 Z
Electronic contribution:      3.566083511       1.178952054      -0.457829915
Nuclear contribution   :     -4.291959918      -1.006335409       0.661430148
                        -----------------------------------------
Total Dipole Moment    :     -0.725876406       0.172616645       0.203600233
                        -----------------------------------------
Magnitude (a.u.)       :      0.773399068
Magnitude (Debye)      :      1.965824203

Rotational constants in cm-1:             0.168420             0.051079             0.039594
Rotational constants in MHz :          5049.103340          1531.303532          1186.994752

                             ****ORCA TERMINATED NORMALLY****
TOTAL RUN TIME: 0 days 0 hours 0 minutes 18 seconds 564 msec
