                         Program Version 6.0.1  -  RELEASE   -
|  1> ! pbe def2-sv(p) def2/J RI DEFGRID1 loosescf d4 GCP(DFT/SV(P)) printgap
|  2> %output
|  3>     printlevel normal
|  4> end
|  5> * xyz 0 1
|  6> C -1.8098758531 -1.0417348759 -0.6563471408
|  7> C -1.0191919186 -0.4610133905 0.534499989
|  8> H -1.6573928402 -0.5272146945 1.4268489845
|  9> C -0.6918479425 1.0327829728 0.3302918516
| 10> H -1.5250411129 1.4795064742 -0.2234181601
| 11> C 0.6036523843 1.2386936522 -0.4794998695
| 12> H 0.8929185745 2.2914601758 -0.3552743456
| 13> C 1.7330962021 0.3554804734 0.0877436365
| 14> H 2.6153415412 0.4206142034 -0.5729007127
| 15> C 1.2653400292 -1.1154484709 0.1103963905
| 16> H 2.0037409265 -1.737455654 0.6376098613
| 17> O 0.1060355797 -1.2554546864 0.8848252603
| 18> O 1.1763185905 -1.6356208539 -1.1718792574
| 19> O 2.0433726624 0.8272225382 1.3775513396
| 20> O 0.3651395666 0.935879245 -1.8392399356
| 21> O -0.6158733571 1.7204573574 1.5479260315
| 22> O -3.1452365396 -0.6092360266 -0.6540477002
| 23> H -1.7413653795 -2.1374866986 -0.6139332954
| 24> H -1.4035339072 -0.6927229826 -1.6068792732
| 25> H 0.6645479336 -1.0214844173 -1.7236601904
| 26> H 2.6007331565 0.1821743177 1.8280161629
| 27> H 1.056886657 1.3307034016 -2.3816514324
| 28> H 0.2100107228 1.4626109073 1.9846966677
| 29> H -3.569127156 -0.8891730625 0.1655810043
| 30> *
| 31>
| 32>                          ****END OF INPUT****

CARTESIAN COORDINATES (ANGSTROEM)
---------------------------------
  C     -1.809876   -1.041735   -0.656347
  C     -1.019192   -0.461013    0.534500
  H     -1.657393   -0.527215    1.426849
  C     -0.691848    1.032783    0.330292
  H     -1.525041    1.479506   -0.223418
  C      0.603652    1.238694   -0.479500
  H      0.892919    2.291460   -0.355274
  C      1.733096    0.355480    0.087744
  H      2.615342    0.420614   -0.572901
  C      1.265340   -1.115448    0.110396
  H      2.003741   -1.737456    0.637610
  O      0.106036   -1.255455    0.884825
  O      1.176319   -1.635621   -1.171879
  O      2.043373    0.827223    1.377551
  O      0.365140    0.935879   -1.839240
  O     -0.615873    1.720457    1.547926
  O     -3.145237   -0.609236   -0.654048
  H     -1.741365   -2.137487   -0.613933
  H     -1.403534   -0.692723   -1.606879
  H      0.664548   -1.021484   -1.723660
  H      2.600733    0.182174    1.828016
  H      1.056887    1.330703   -2.381651
  H      0.210011    1.462611    1.984697
  H     -3.569127   -0.889173    0.165581

 Total Charge           Charge          ....    0
 Multiplicity           Mult            ....    1
 Number of Electrons    NEL             ....   96
 Basis Dimension        Dim             ....  192

ORBITAL ENERGIES
----------------

  NO   OCC          E(Eh)            E(eV)
   0   2.0000     -18.790771      -511.3229
   1   2.0000     -18.783579      -511.1272
   2   2.0000     -18.764385      -510.6049
   3   2.0000     -18.753927      -510.3203
   4   2.0000     -18.746539      -510.1193
   5   2.0000     -18.736668      -509.8506
   6   2.0000      -9.989090      -271.8170
   7   2.0000      -9.960219      -271.0313
   8   2.0000      -9.956925      -270.9417
   9   2.0000      -9.940534      -270.4957
  10   2.0000      -9.938600      -270.4431
  11   2.0000      -9.925497      -270.0865
  12   2.0000      -0.986090       -26.8329
  13   2.0000      -0.960230       -26.1292
  14   2.0000      -0.953639       -25.9498
  15   2.0000      -0.926321       -25.2065
  16   2.0000      -0.920311       -25.0429
  17   2.0000      -0.907083       -24.6830
  18   2.0000      -0.706750       -19.2317
  19   2.0000      -0.694028       -18.8855
  20   2.0000      -0.614185       -16.7128
  21   2.0000      -0.599824       -16.3220
  22   2.0000      -0.575801       -15.6683
  23   2.0000      -0.531296       -14.4573
  24   2.0000      -0.516567       -14.0565
  25   2.0000      -0.490336       -13.3427
  26   2.0000      -0.474137       -12.9019
  27   2.0000      -0.459833       -12.5127
  28   2.0000      -0.452778       -12.3207
  29   2.0000      -0.441817       -12.0224
  30   2.0000      -0.425976       -11.5914
  31   2.0000      -0.400008       -10.8848
  32   2.0000      -0.385824       -10.4988
  33   2.0000      -0.374373       -10.1872
  34   2.0000      -0.364913        -9.9298
  35   2.0000      -0.354415        -9.6441
  36   2.0000      -0.338425        -9.2090
  37   2.0000      -0.318396        -8.6640
  38   2.0000      -0.315065        -8.5733
  39   2.0000      -0.299194        -8.1415
  40   2.0000      -0.286800        -7.8042
  41   2.0000      -0.273851        -7.4519
  42   2.0000      -0.267198        -7.2708
  43   2.0000      -0.246696        -6.7129
  44   2.0000      -0.235939        -6.4202
  45   2.0000      -0.226067        -6.1516
  46   2.0000      -0.220606        -6.0030
  47   2.0000      -0.196514        -5.3474
  48   0.0000      -0.005346        -0.1455
  49   0.0000       0.007858         0.2138
  50   0.0000       0.030860         0.8397
  51   0.0000       0.061577         1.6756
  52   0.0000       0.066489         1.8093

MULLIKEN ATOMIC CHARGES
-----------------------
   0 C :    0.019959
   1 C :    0.003244
   2 H :    0.064342
   3 C :    0.094401
   4 H :    0.086291
   5 C :   -0.016770
   6 H :    0.091367
   7 C :    0.023490
   8 H :    0.066203
   9 C :    0.180505
  10 H :    0.060252
  11 O :   -0.297731
  12 O :   -0.404345
  13 O :   -0.416540
  14 O :   -0.408019
  15 O :   -0.427026
  16 O :   -0.429540
  17 H :    0.087334
  18 H :    0.091110
  19 H :    0.306512
  20 H :    0.312953
  21 H :    0.316080
  22 H :    0.299916
  23 H :    0.296010
Sum of atomic charges:    0.0000000

LOEWDIN ATOMIC CHARGES
----------------------
   0 C :   -0.147166
   1 C :   -0.080848
   2 H :    0.114297
   3 C :   -0.064476
   4 H :    0.124738
   5 C :   -0.071863
   6 H :    0.114442
   7 C :   -0.098430
   8 H :    0.100054
   9 C :   -0.014455
  10 H :    0.102076
  11 O :   -0.141038
  12 O :   -0.307519
  13 O :   -0.305302
  14 O :   -0.302424
  15 O :   -0.318254
  16 O :   -0.328941
  17 H :    0.101166
  18 H :    0.111493
  19 H :    0.268126
  20 H :    0.293040
  21 H :    0.297398
  22 H :    0.271350
  23 H :    0.282537

  Mayer bond orders larger than 0.100000
B(  0-C ,  1-C ) :   1.0179 B(  0-C , 16-O ) :   1.0461 B(  0-C , 17-H ) :   0.9111
B(  0-C , 18-H ) :   0.9032 B(  1-C ,  2-H ) :   0.8963 B(  1-C ,  3-C ) :   0.9819
B(  1-C , 11-O ) :   1.0017 B(  3-C ,  4-H ) :   0.8824 B(  3-C ,  5-C ) :   1.0036
B(  3-C , 15-O ) :   1.0587 B(  5-C ,  6-H ) :   0.9032 B(  5-C ,  7-C ) :   0.9818
B(  5-C , 14-O ) :   1.0297 B(  7-C ,  8-H ) :   0.8956 B(  7-C ,  9-C ) :   0.9740
B(  7-C , 13-O ) :   1.0211 B(  9-C , 10-H ) :   0.9074 B(  9-C , 11-O ) :   1.0630
B(  9-C , 12-O ) :   1.1440 B( 12-O , 19-H ) :   0.7910 B( 13-O , 20-H ) :   0.8383
B( 14-O , 19-H ) :   0.1077 B( 14-O , 21-H ) :   0.8370 B( 15-O , 22-H ) :   0.8167
B( 16-O , 23-H ) :   0.8511

Dispersion correction           -0.025964975
FINAL SINGLE POINT ENERGY      -685.694711007996

DIPOLE MOMENT
-------------

Method             : SCF
Type of density    : Electron Density
Multiplicity       :   1
Irrep              :   0
Energy             :  -685.8282140836062126 Eh
Relativity type    :
Basis              : AO
                                X                 Y                 Z
Electronic contribution:      0.987023611      -0.002727862       1.317382315
Nuclear contribution   :      0.137545039       0.151296289      -1.344090917
                        -----------------------------------------
Total Dipole Moment    :      1.124568650       0.148568427      -0.026708602
                        -----------------------------------------
Magnitude (a.u.)       :      1.134654386
Magnitude (Debye)      :      2.884062250

Rotational constants in cm-1:             0.040932             0.028429             0.024488
Rotational constants in MHz :          1227.115010           852.281832           734.143838

                             ****ORCA TERMINATED NORMALLY****
TOTAL RUN TIME: 0 days 0 hours 19 minutes 57 seconds 894 msec
