                         Program Version 6.0.1  -  RELEASE   -
|  1> ! pbe def2-sv(p) def2/J RI DEFGRID1 loosescf d4 GCP(DFT/SV(P)) printgap
|  2> %output
|  3>     printlevel normal
|  4> end
|  5> * xyz 0 1
|  6> C -1.8043416936 -1.0814748823 -0.6551914831
|  7> C -1.0503705266 -0.4842530049 0.5559296944
|  8> H -1.720099784 -0.5851860531 1.4221879018
|  9> C -0.7067999051 1.0053496605 0.3907527153
| 10> H -1.5541976275 1.511543659 -0.0965922374
| 11> C 0.5510199994 1.2359814619 -0.4790157043
| 12> H 0.8206480162 2.295161879 -0.3764439619
| 13> C 1.7071458511 0.3796290898 0.0568160197
| 14> H 2.5381756007 0.4055711814 -0.6578186576
| 15> C 1.2493651362 -1.0920501476 0.171820062
| 16> H 2.0085317924 -1.6469028117 0.743315502
| 17> O 0.0800675872 -1.2658561336 0.9195363384
| 18> O 1.133325323 -1.6038494051 -1.1338769654
| 19> O 2.2049361476 0.8483896391 1.2728889381
| 20> O 0.2946110159 0.9984102205 -1.8368392205
| 21> O -0.4450517608 1.6071393045 1.6435225945
| 22> O -3.0790633495 -0.5124946531 -0.8132570583
| 23> H -1.9680254365 -2.1433767822 -0.4490697082
| 24> H -1.2164760724 -0.9842937394 -1.5718998077
| 25> H 0.9050381708 -2.5398879258 -1.0866779897
| 26> H 1.4496264875 1.0812853851 1.8356635611
| 27> H 0.5782401408 0.0961305173 -2.0441499005
| 28> H -1.2006967468 1.4734072251 2.2271256261
| 29> H -2.9948856479 0.3365160683 -1.2606028383
| 30> *
| 31>
| 32>                          ****END OF INPUT****

CARTESIAN COORDINATES (ANGSTROEM)
---------------------------------
  C     -1.804342   -1.081475   -0.655191
  C     -1.050371   -0.484253    0.555930
  H     -1.720100   -0.585186    1.422188
  C     -0.706800    1.005350    0.390753
  H     -1.554198    1.511544   -0.096592
  C      0.551020    1.235981   -0.479016
  H      0.820648    2.295162   -0.376444
  C      1.707146    0.379629    0.056816
  H      2.538176    0.405571   -0.657819
  C      1.249365   -1.092050    0.171820
  H      2.008532   -1.646903    0.743316
  O      0.080068   -1.265856    0.919536
  O      1.133325   -1.603849   -1.133877
  O      2.204936    0.848390    1.272889
  O      0.294611    0.998410   -1.836839
  O     -0.445052    1.607139    1.643523
  O     -3.079063   -0.512495   -0.813257
  H     -1.968025   -2.143377   -0.449070
  H     -1.216476   -0.984294   -1.571900
  H      0.905038   -2.539888   -1.086678
  H      1.449626    1.081285    1.835664
  H      0.578240    0.096131   -2.044150
  H     -1.200697    1.473407    2.227126
  H     -2.994886    0.336516   -1.260603

 Total Charge           Charge          ....    0
 Multiplicity           Mult            ....    1
 Number of Electrons    NEL             ....   96
 Basis Dimension        Dim             ....  192

ORBITAL ENERGIES
----------------

  NO   OCC          E(Eh)            E(eV)
   0   2.0000     -18.786227      -511.1992
   1   2.0000     -18.778800      -510.9971
   2   2.0000     -18.777484      -510.9613
   3   2.0000     -18.756651      -510.3944
   4   2.0000     -18.752418      -510.2792
   5   2.0000     -18.740468      -509.9541
   6   2.0000      -9.991128      -271.8724
   7   2.0000      -9.955080      -270.8915
   8   2.0000      -9.952263      -270.8149
   9   2.0000      -9.946049      -270.6458
  10   2.0000      -9.942814      -270.5577
  11   2.0000      -9.937317      -270.4081
  12   2.0000      -0.995026       -27.0760
  13   2.0000      -0.956670       -26.0323
  14   2.0000      -0.935059       -25.4442
  15   2.0000      -0.933362       -25.3981
  16   2.0000      -0.926124       -25.2011
  17   2.0000      -0.919039       -25.0083
  18   2.0000      -0.707910       -19.2632
  19   2.0000      -0.691523       -18.8173
  20   2.0000      -0.632138       -17.2014
  21   2.0000      -0.588263       -16.0075
  22   2.0000      -0.583927       -15.8895
  23   2.0000      -0.526323       -14.3220
  24   2.0000      -0.521908       -14.2018
  25   2.0000      -0.497569       -13.5395
  26   2.0000      -0.480902       -13.0860
  27   2.0000      -0.459998       -12.5172
  28   2.0000      -0.448505       -12.2044
  29   2.0000      -0.423647       -11.5280
  30   2.0000      -0.418766       -11.3952
  31   2.0000      -0.408066       -11.1040
  32   2.0000      -0.393373       -10.7042
  33   2.0000      -0.390605       -10.6289
  34   2.0000      -0.370349       -10.0777
  35   2.0000      -0.361704        -9.8425
  36   2.0000      -0.341294        -9.2871
  37   2.0000      -0.331878        -9.0309
  38   2.0000      -0.314141        -8.5482
  39   2.0000      -0.296964        -8.0808
  40   2.0000      -0.284956        -7.7540
  41   2.0000      -0.274121        -7.4592
  42   2.0000      -0.263130        -7.1601
  43   2.0000      -0.258454        -7.0329
  44   2.0000      -0.243493        -6.6258
  45   2.0000      -0.224934        -6.1208
  46   2.0000      -0.217180        -5.9098
  47   2.0000      -0.207365        -5.6427
  48   0.0000       0.006659         0.1812
  49   0.0000       0.010743         0.2923
  50   0.0000       0.020359         0.5540
  51   0.0000       0.053159         1.4465
  52   0.0000       0.059831         1.6281

MULLIKEN ATOMIC CHARGES
-----------------------
   0 C :    0.012855
   1 C :    0.045713
   2 H :    0.062567
   3 C :    0.034739
   4 H :    0.053928
   5 C :    0.049237
   6 H :    0.087296
   7 C :    0.018490
   8 H :    0.088502
   9 C :    0.179915
  10 H :    0.077583
  11 O :   -0.304915
  12 O :   -0.414784
  13 O :   -0.421078
  14 O :   -0.423271
  15 O :   -0.424845
  16 O :   -0.430826
  17 H :    0.083008
  18 H :    0.072418
  19 H :    0.311903
  20 H :    0.302292
  21 H :    0.321569
  22 H :    0.311152
  23 H :    0.306552
Sum of atomic charges:    0.0000000

LOEWDIN ATOMIC CHARGES
----------------------
   0 C :   -0.146553
   1 C :   -0.076756
   2 H :    0.112814
   3 C :   -0.076764
   4 H :    0.099447
   5 C :   -0.066579
   6 H :    0.118458
   7 C :   -0.084645
   8 H :    0.121453
   9 C :   -0.009602
  10 H :    0.105500
  11 O :   -0.137243
  12 O :   -0.314402
  13 O :   -0.313111
  14 O :   -0.317309
  15 O :   -0.308761
  16 O :   -0.330867
  17 H :    0.112198
  18 H :    0.098087
  19 H :    0.290908
  20 H :    0.272694
  21 H :    0.275538
  22 H :    0.291559
  23 H :    0.283937

  Mayer bond orders larger than 0.100000
B(  0-C ,  1-C ) :   1.0255 B(  0-C , 16-O ) :   1.0713 B(  0-C , 17-H ) :   0.9139
B(  0-C , 18-H ) :   0.9064 B(  1-C ,  2-H ) :   0.8901 B(  1-C ,  3-C ) :   0.9877
B(  1-C , 11-O ) :   0.9884 B(  3-C ,  4-H ) :   0.8885 B(  3-C ,  5-C ) :   0.9615
B(  3-C , 15-O ) :   0.9931 B(  5-C ,  6-H ) :   0.9020 B(  5-C ,  7-C ) :   1.0128
B(  5-C , 14-O ) :   1.0910 B(  7-C ,  8-H ) :   0.8954 B(  7-C ,  9-C ) :   0.9712
B(  7-C , 13-O ) :   1.0790 B(  9-C , 10-H ) :   0.9040 B(  9-C , 11-O ) :   1.0727
B(  9-C , 12-O ) :   1.0559 B( 12-O , 19-H ) :   0.8309 B( 13-O , 20-H ) :   0.8091
B( 14-O , 21-H ) :   0.7996 B( 15-O , 20-H ) :   0.1036 B( 15-O , 22-H ) :   0.8399
B( 16-O , 23-H ) :   0.8440

Dispersion correction           -0.026099964
FINAL SINGLE POINT ENERGY      -685.698803159416

DIPOLE MOMENT
-------------

Method             : SCF
Type of density    : Electron Density
Multiplicity       :   1
Irrep              :   0
Energy             :  -685.8325978847223041 Eh
Relativity type    :
Basis              : AO
                                X                 Y                 Z
Electronic contribution:      1.658418754       0.151802121       1.326807879
Nuclear contribution   :     -2.205768731      -0.655685762      -1.232888556
                        -----------------------------------------
Total Dipole Moment    :     -0.547349977      -0.503883641       0.093919323
                        -----------------------------------------
Magnitude (a.u.)       :      0.749874363
Magnitude (Debye)      :      1.906029155

Rotational constants in cm-1:             0.041383             0.028571             0.024780
Rotational constants in MHz :          1240.643992           856.536572           742.898149

                             ****ORCA TERMINATED NORMALLY****
TOTAL RUN TIME: 0 days 0 hours 0 minutes 9 seconds 836 msec
