                         Program Version 6.0.0  -   RELEASE  -
|  1> ! r2SCAN-3c DEF2-TZVP FREQ
|  2> * xyzfile 0 1 censo.xyz
|  3>
|  4>                          ****END OF INPUT****

CARTESIAN COORDINATES (ANGSTROEM)
---------------------------------
  C     -2.351600    0.137600   -1.262602
  C     -1.699029   -0.429681    0.003526
  C     -2.354089    0.159597    1.258238
  C     -0.201345   -0.200357    0.002270
  C      0.687419   -1.278757    0.006907
  C      2.066669   -1.074234    0.004982
  C      2.581380    0.219117   -0.001621
  C      1.705834    1.304361   -0.006293
  C      0.329808    1.095635   -0.004404
  H     -1.901159   -0.287130   -2.165518
  H     -2.239244    1.226527   -1.305300
  H     -3.422786   -0.090473   -1.274352
  H     -1.859838   -1.514757    0.012846
  H     -1.904231   -0.247883    2.169360
  H     -3.424893   -0.070081    1.272676
  H     -2.243931    1.249319    1.281334
  H      0.293281   -2.291825    0.012084
  H      2.738391   -1.927545    0.008662
  H      3.654634    0.381968   -0.003091
  H      2.096905    2.317491   -0.011431
  H     -0.338667    1.952115   -0.008168

 Total Charge           Charge          ....    0
 Multiplicity           Mult            ....    1
 Number of Electrons    NEL             ....   66
 Basis Dimension        Dim             ....  351

ORBITAL ENERGIES
----------------

  NO   OCC          E(Eh)            E(eV)
   0   2.0000     -10.042648      -273.2743
   1   2.0000     -10.040478      -273.2153
   2   2.0000     -10.035003      -273.0663
   3   2.0000     -10.034475      -273.0519
   4   2.0000     -10.033010      -273.0121
   5   2.0000     -10.032680      -273.0031
   6   2.0000     -10.032400      -272.9955
   7   2.0000     -10.022805      -272.7344
   8   2.0000     -10.022803      -272.7343
   9   2.0000      -0.823629       -22.4121
  10   2.0000      -0.768546       -20.9132
  11   2.0000      -0.710314       -19.3286
  12   2.0000      -0.696041       -18.9402
  13   2.0000      -0.651591       -17.7307
  14   2.0000      -0.587495       -15.9865
  15   2.0000      -0.570396       -15.5213
  16   2.0000      -0.529726       -14.4146
  17   2.0000      -0.477845       -13.0028
  18   2.0000      -0.438083       -11.9209
  19   2.0000      -0.422362       -11.4930
  20   2.0000      -0.401794       -10.9334
  21   2.0000      -0.396041       -10.7768
  22   2.0000      -0.385672       -10.4947
  23   2.0000      -0.383395       -10.4327
  24   2.0000      -0.356812        -9.7093
  25   2.0000      -0.344861        -9.3841
  26   2.0000      -0.334573        -9.1042
  27   2.0000      -0.318246        -8.6599
  28   2.0000      -0.311945        -8.4884
  29   2.0000      -0.295119        -8.0306
  30   2.0000      -0.292528        -7.9601
  31   2.0000      -0.234173        -6.3722
  32   2.0000      -0.225087        -6.1249
  33   0.0000      -0.033127        -0.9014
  34   0.0000      -0.028892        -0.7862
  35   0.0000       0.043720         1.1897
  36   0.0000       0.066295         1.8040
  37   0.0000       0.069198         1.8830

MULLIKEN ATOMIC CHARGES
-----------------------
   0 C :   -0.331476
   1 C :   -0.006359
   2 C :   -0.331544
   3 C :    0.249436
   4 C :   -0.221834
   5 C :   -0.084304
   6 C :   -0.132843
   7 C :   -0.098326
   8 C :   -0.242586
   9 H :    0.114260
  10 H :    0.097777
  11 H :    0.105324
  12 H :    0.047736
  13 H :    0.114306
  14 H :    0.105381
  15 H :    0.097679
  16 H :    0.097317
  17 H :    0.105426
  18 H :    0.107115
  19 H :    0.105094
  20 H :    0.102423
Sum of atomic charges:   -0.0000000

LOEWDIN ATOMIC CHARGES
----------------------
   0 C :   -0.272706
   1 C :   -0.267598
   2 C :   -0.272772
   3 C :   -0.122965
   4 C :   -0.115293
   5 C :   -0.141344
   6 C :   -0.147781
   7 C :   -0.141155
   8 C :   -0.110178
   9 H :    0.123233
  10 H :    0.120037
  11 H :    0.119830
  12 H :    0.151725
  13 H :    0.123248
  14 H :    0.119850
  15 H :    0.119972
  16 H :    0.144099
  17 H :    0.142031
  18 H :    0.141345
  19 H :    0.142049
  20 H :    0.144374

  Mayer bond orders larger than 0.100000
B(  0-C ,  1-C ) :   0.9726 B(  0-C ,  9-H ) :   0.9755 B(  0-C , 10-H ) :   0.9670
B(  0-C , 11-H ) :   0.9727 B(  1-C ,  2-C ) :   0.9727 B(  1-C ,  3-C ) :   0.8896
B(  1-C , 12-H ) :   0.9622 B(  2-C , 13-H ) :   0.9756 B(  2-C , 14-H ) :   0.9728
B(  2-C , 15-H ) :   0.9670 B(  3-C ,  4-C ) :   1.3417 B(  3-C ,  8-C ) :   1.2969
B(  4-C ,  5-C ) :   1.4127 B(  4-C , 16-H ) :   0.9753 B(  5-C ,  6-C ) :   1.3966
B(  5-C , 17-H ) :   0.9722 B(  6-C ,  7-C ) :   1.3807 B(  6-C , 18-H ) :   0.9693
B(  7-C ,  8-C ) :   1.4410 B(  7-C , 19-H ) :   0.9699 B(  8-C , 20-H ) :   0.9758

Dispersion correction           -0.006998334
FINAL SINGLE POINT ENERGY      -350.108489236545

DIPOLE MOMENT
-------------

Method             : SCF
Type of density    : Electron Density
Multiplicity       :   1
Irrep              :   0
Energy             :  -350.1083641947939213 Eh
Relativity type    :
Basis              : AO
                                X                 Y                 Z
Electronic contribution:      7.925343746      -0.697053395       0.010319284
Nuclear contribution   :     -8.076147790       0.663773737      -0.010322781
                        -----------------------------------------
Total Dipole Moment    :     -0.150804044      -0.033279658      -0.000003497
                        -----------------------------------------
Magnitude (a.u.)       :      0.154432494
Magnitude (Debye)      :      0.392536206

VIBRATIONAL FREQUENCIES
-----------------------

Scaling factor for frequencies =  1.000000000  (already applied!)

     0:       0.00 cm**-1
     1:       0.00 cm**-1
     2:       0.00 cm**-1
     3:       0.00 cm**-1
     4:       0.00 cm**-1
     5:       0.00 cm**-1
     6:      52.00 cm**-1
     7:     131.06 cm**-1
     8:     224.57 cm**-1
     9:     250.49 cm**-1
    10:     284.26 cm**-1
    11:     310.04 cm**-1
    12:     321.61 cm**-1
    13:     411.39 cm**-1
    14:     468.89 cm**-1
    15:     547.49 cm**-1
    16:     570.24 cm**-1
    17:     637.39 cm**-1
    18:     712.44 cm**-1
    19:     758.05 cm**-1
    20:     775.67 cm**-1
    21:     847.68 cm**-1
    22:     901.49 cm**-1
    23:     910.21 cm**-1
    24:     931.55 cm**-1
    25:     952.16 cm**-1
    26:     963.69 cm**-1
    27:     975.11 cm**-1
    28:    1019.97 cm**-1
    29:    1047.85 cm**-1
    30:    1068.86 cm**-1
    31:    1106.47 cm**-1
    32:    1117.05 cm**-1
    33:    1172.05 cm**-1
    34:    1180.23 cm**-1
    35:    1201.36 cm**-1
    36:    1231.49 cm**-1
    37:    1308.26 cm**-1
    38:    1333.70 cm**-1
    39:    1349.02 cm**-1
    40:    1376.03 cm**-1
    41:    1385.55 cm**-1
    42:    1409.09 cm**-1
    43:    1476.61 cm**-1
    44:    1479.25 cm**-1
    45:    1481.46 cm**-1
    46:    1494.99 cm**-1
    47:    1499.61 cm**-1
    48:    1521.57 cm**-1
    49:    1613.59 cm**-1
    50:    1632.23 cm**-1
    51:    3000.13 cm**-1
    52:    3002.88 cm**-1
    53:    3015.60 cm**-1
    54:    3076.67 cm**-1
    55:    3082.03 cm**-1
    56:    3084.13 cm**-1
    57:    3086.97 cm**-1
    58:    3144.71 cm**-1
    59:    3149.49 cm**-1
    60:    3159.42 cm**-1
    61:    3166.89 cm**-1
    62:    3178.57 cm**-1

IR SPECTRUM
-----------

 Mode   freq       eps      Int      T**2         TX        TY        TZ
       cm**-1   L/(mol*cm) km/mol    a.u.
----------------------------------------------------------------------------
  6:     52.00   0.000004    0.02  0.000024  ( 0.000136  0.000085  0.004872)
  7:    131.06   0.000119    0.60  0.000283  ( 0.000186  0.000027 -0.016830)
  8:    224.57   0.000026    0.13  0.000036  ( 0.003943 -0.004500  0.000043)
  9:    250.49   0.000000    0.00  0.000000  ( 0.000006 -0.000041  0.000608)
 10:    284.26   0.000022    0.11  0.000024  ( 0.004824 -0.000660 -0.000020)
 11:    310.04   0.000009    0.05  0.000009  ( 0.001790 -0.002457  0.000117)
 12:    321.61   0.000036    0.18  0.000035  (-0.000252  0.000065  0.005885)
 13:    411.39   0.000002    0.01  0.000002  (-0.000030 -0.000523  0.001260)
 14:    468.89   0.000041    0.21  0.000028  ( 0.005248  0.000120 -0.000012)
 15:    547.49   0.003208   16.21  0.001828  ( 0.000136  0.000121  0.042759)
 16:    570.24   0.000028    0.14  0.000015  (-0.003680  0.001301  0.000215)
 17:    637.39   0.000004    0.02  0.000002  ( 0.000590 -0.001349  0.000002)
 18:    712.44   0.009248   46.74  0.004051  ( 0.000056  0.000024  0.063646)
 19:    758.05   0.000262    1.32  0.000108  (-0.010255 -0.001660 -0.000017)
 20:    775.67   0.003935   19.89  0.001583  (-0.000079  0.000045 -0.039788)
 21:    847.68   0.000000    0.00  0.000000  ( 0.000014  0.000048 -0.000342)
 22:    901.49   0.000128    0.64  0.000044  (-0.005662  0.003480 -0.000018)
 23:    910.21   0.000286    1.45  0.000098  ( 0.000231  0.000037  0.009900)
 24:    931.55   0.000141    0.71  0.000047  (-0.000024 -0.000024  0.006867)
 25:    952.16   0.000001    0.00  0.000000  (-0.000196  0.000396  0.000189)
 26:    963.69   0.000001    0.00  0.000000  (-0.000057  0.000050 -0.000541)
 27:    975.11   0.000011    0.06  0.000004  ( 0.000162  0.000002 -0.001892)
 28:   1019.97   0.000159    0.80  0.000049  (-0.006587 -0.002273  0.000000)
 29:   1047.85   0.001590    8.04  0.000474  (-0.021576 -0.002849  0.000017)
 30:   1068.86   0.001575    7.96  0.000460  ( 0.017181  0.012826 -0.000037)
 31:   1106.47   0.001673    8.45  0.000472  ( 0.016289 -0.014369  0.000052)
 32:   1117.05   0.000204    1.03  0.000057  ( 0.000066  0.000068 -0.007553)
 33:   1172.05   0.000113    0.57  0.000030  ( 0.005089  0.002065  0.000003)
 34:   1180.23   0.000025    0.12  0.000006  ( 0.001731  0.001871 -0.000013)
 35:   1201.36   0.000011    0.06  0.000003  ( 0.001269  0.001112  0.000004)
 36:   1231.49   0.000110    0.56  0.000028  (-0.004709 -0.002380  0.000055)
 37:   1308.26   0.000836    4.23  0.000200  ( 0.013681  0.003513  0.000023)
 38:   1333.70   0.000368    1.86  0.000086  (-0.000028 -0.000107 -0.009272)
 39:   1349.02   0.000097    0.49  0.000023  (-0.004582  0.001232  0.000032)
 40:   1376.03   0.000377    1.91  0.000086  (-0.008048  0.004553 -0.000079)
 41:   1385.55   0.001129    5.71  0.000254  ( 0.000093 -0.000159 -0.015948)
 42:   1409.09   0.000839    4.24  0.000186  ( 0.005044 -0.012664  0.000093)
 43:   1476.61   0.000065    0.33  0.000014  ( 0.000018  0.000290  0.003704)
 44:   1479.25   0.001462    7.39  0.000308  ( 0.002675 -0.017356 -0.000014)
 45:   1481.46   0.000613    3.10  0.000129  ( 0.000041 -0.000054  0.011363)
 46:   1494.99   0.001441    7.28  0.000301  ( 0.005713 -0.016374  0.000203)
 47:   1499.61   0.001481    7.49  0.000308  ( 0.005091  0.016802 -0.000144)
 48:   1521.57   0.003057   15.45  0.000627  (-0.024185 -0.006483  0.000058)
 49:   1613.59   0.000242    1.22  0.000047  ( 0.001051 -0.006756  0.000046)
 50:   1632.23   0.001611    8.14  0.000308  (-0.017550 -0.000226 -0.000014)
 51:   3000.13   0.006186   31.26  0.000643  (-0.000517 -0.000047 -0.025361)
 52:   3002.88   0.005864   29.63  0.000609  ( 0.023224 -0.008353 -0.000482)
 53:   3015.60   0.002795   14.12  0.000289  ( 0.000477  0.016999 -0.000169)
 54:   3076.67   0.000003    0.02  0.000000  ( 0.000195  0.000177  0.000531)
 55:   3082.03   0.015067   76.14  0.001526  (-0.035196 -0.016935  0.000029)
 56:   3084.13   0.003808   19.25  0.000385  (-0.000282  0.000376  0.019625)
 57:   3086.97   0.006795   34.34  0.000687  ( 0.008244 -0.024875  0.000452)
 58:   3144.71   0.001616    8.17  0.000160  ( 0.010360  0.007285 -0.000038)
 59:   3149.49   0.000504    2.55  0.000050  (-0.005572  0.004351 -0.000027)
 60:   3159.42   0.001462    7.39  0.000144  ( 0.011153  0.004471 -0.000028)
 61:   3166.89   0.006965   35.20  0.000686  (-0.006274  0.025436 -0.000121)
 62:   3178.57   0.002946   14.89  0.000289  (-0.016774 -0.002811  0.000023)

--------------------------
THERMOCHEMISTRY AT 298.15K
--------------------------

Temperature         ...   298.15 K
Pressure            ...     1.00 atm
Total Mass          ...   120.19 AMU
Quasi RRHO          ...     True
Cut-Off Frequency   ...     1.00 cm^-1

Throughout the following assumptions are being made:
  (1) The electronic state is orbitally nondegenerate
  (2) There are no thermally accessible electronically excited states
  (3) Hindered rotations indicated by low frequency modes are not
      treated as such but are treated as vibrations and this may
      cause some error
  (4) All equations used are the standard statistical mechanics
      equations for an ideal gas
  (5) All vibrations are strictly harmonic

freq.      52.00  E(vib)   ...       0.52
freq.     131.06  E(vib)   ...       0.42
freq.     224.57  E(vib)   ...       0.33
freq.     250.49  E(vib)   ...       0.30
freq.     284.26  E(vib)   ...       0.28
freq.     310.04  E(vib)   ...       0.26
freq.     321.61  E(vib)   ...       0.25
freq.     411.39  E(vib)   ...       0.19
freq.     468.89  E(vib)   ...       0.16
freq.     547.49  E(vib)   ...       0.12
freq.     570.24  E(vib)   ...       0.11
freq.     637.39  E(vib)   ...       0.09
freq.     712.44  E(vib)   ...       0.07
freq.     758.05  E(vib)   ...       0.06
freq.     775.67  E(vib)   ...       0.05
freq.     847.68  E(vib)   ...       0.04
freq.     901.49  E(vib)   ...       0.03
freq.     910.21  E(vib)   ...       0.03
freq.     931.55  E(vib)   ...       0.03
freq.     952.16  E(vib)   ...       0.03
freq.     963.69  E(vib)   ...       0.03
freq.     975.11  E(vib)   ...       0.03
freq.    1019.97  E(vib)   ...       0.02
freq.    1047.85  E(vib)   ...       0.02
freq.    1068.86  E(vib)   ...       0.02
freq.    1106.47  E(vib)   ...       0.02
freq.    1117.05  E(vib)   ...       0.01
freq.    1172.05  E(vib)   ...       0.01
freq.    1180.23  E(vib)   ...       0.01
freq.    1201.36  E(vib)   ...       0.01
freq.    1231.49  E(vib)   ...       0.01
freq.    1308.26  E(vib)   ...       0.01
freq.    1333.70  E(vib)   ...       0.01
freq.    1349.02  E(vib)   ...       0.01
freq.    1376.03  E(vib)   ...       0.01
freq.    1385.55  E(vib)   ...       0.00
freq.    1409.09  E(vib)   ...       0.00
freq.    1476.61  E(vib)   ...       0.00
freq.    1479.25  E(vib)   ...       0.00
freq.    1481.46  E(vib)   ...       0.00
freq.    1494.99  E(vib)   ...       0.00
freq.    1499.61  E(vib)   ...       0.00
freq.    1521.57  E(vib)   ...       0.00
freq.    1613.59  E(vib)   ...       0.00
freq.    1632.23  E(vib)   ...       0.00
freq.    3000.13  E(vib)   ...       0.00
freq.    3002.88  E(vib)   ...       0.00
freq.    3015.60  E(vib)   ...       0.00
freq.    3076.67  E(vib)   ...       0.00
freq.    3082.03  E(vib)   ...       0.00
freq.    3084.13  E(vib)   ...       0.00
freq.    3086.97  E(vib)   ...       0.00
freq.    3144.71  E(vib)   ...       0.00
freq.    3149.49  E(vib)   ...       0.00
freq.    3159.42  E(vib)   ...       0.00
freq.    3166.89  E(vib)   ...       0.00
freq.    3178.57  E(vib)   ...       0.00

------------
INNER ENERGY
------------

The inner energy is: U= E(el) + E(ZPE) + E(vib) + E(rot) + E(trans)
    E(el)   - is the total energy from the electronic structure calculation
              = E(kin-el) + E(nuc-el) + E(el-el) + E(nuc-nuc)
    E(ZPE)  - the the zero temperature vibrational energy from the frequency calculation
    E(vib)  - the the finite temperature correction to E(ZPE) due to population
              of excited vibrational states
    E(rot)  - is the rotational thermal energy
    E(trans)- is the translational thermal energy

Summary of contributions to the inner energy U:
Electronic energy                ...   -350.10848924 Eh
Zero point energy                ...      0.18360046 Eh     115.21 kcal/mol
Thermal vibrational correction   ...      0.00574373 Eh       3.60 kcal/mol
Thermal rotational correction    ...      0.00141627 Eh       0.89 kcal/mol
Thermal translational correction ...      0.00141627 Eh       0.89 kcal/mol
-----------------------------------------------------------------------
Total thermal energy                   -349.91631250 Eh

Summary of corrections to the electronic energy:
(perhaps to be used in another calculation)
Total thermal correction                  0.00857627 Eh       5.38 kcal/mol
Non-thermal (ZPE) correction              0.18360046 Eh     115.21 kcal/mol
-----------------------------------------------------------------------
Total correction                          0.19217673 Eh     120.59 kcal/mol

--------
ENTHALPY
--------

The enthalpy is H = U + kB*T
                kB is Boltzmann's constant
Total thermal energy              ...   -349.91631250 Eh
Thermal Enthalpy correction       ...      0.00094421 Eh       0.59 kcal/mol
-----------------------------------------------------------------------
Total Enthalpy                    ...   -349.91536829 Eh

Note: Only C1 symmetry has been detected, increase convergence thresholds
      if your molecule has a higher symmetry. Symmetry factor of 1.0 is
      used for the rotational entropy correction.

Note: Rotational entropy computed according to Herzberg
Infrared and Raman Spectra, Chapter V,1, Van Nostrand Reinhold, 1945
Point Group:  C1, Symmetry Number:   1
Rotational constants in cm-1:     0.112052     0.036184     0.033199

Vibrational entropy computed according to the QRRHO of S. Grimme
Chem.Eur.J. 2012 18 9955 using a reference frequency of 100.0 cm-1

-------
ENTROPY
-------

The entropy contributions are T*S = T*(S(el)+S(vib)+S(rot)+S(trans))
     S(el)   - electronic entropy
     S(vib)  - vibrational entropy
     S(rot)  - rotational entropy
     S(trans)- translational entropy
The entropies will be listed as multiplied by the temperature to get
units of energy

Electronic entropy                ...      0.00000000 Eh      0.00 kcal/mol
Vibrational entropy               ...      0.00939867 Eh      5.90 kcal/mol
Rotational entropy                ...      0.01371864 Eh      8.61 kcal/mol
Translational entropy             ...      0.01913176 Eh     12.01 kcal/mol
-----------------------------------------------------------------------
Final entropy term                ...      0.04224907 Eh     26.51 kcal/mol

In case the symmetry of your molecule has not been determined correctly
or in case you have a reason to use a different symmetry number we print
out the resulting rotational entropy values for sn=1,12:

 non-linear molecules -----------------------------------
|  sn= 1 | S(rot)=       0.01371864 Eh      8.61 kcal/mol|
|  sn= 2 | S(rot)=       0.01306418 Eh      8.20 kcal/mol|
|  sn= 3 | S(rot)=       0.01268135 Eh      7.96 kcal/mol|

                             ****ORCA TERMINATED NORMALLY****
TOTAL RUN TIME: 0 days 0 hours 19 minutes 51 seconds 306 msec
