                         Program Version 6.0.0  -   RELEASE  -
|  1> ! r2SCAN-3c DEF2-TZVP FREQ
|  2> * xyzfile 0 1 vacuum_censo.xyz
|  3>
|  4>                          ****END OF INPUT****

CARTESIAN COORDINATES (ANGSTROEM)
---------------------------------
  C     -2.355006    0.148431   -1.262718
  C     -1.698741   -0.425369   -0.000320
  C     -2.353849    0.145050    1.264228
  C     -0.200573   -0.196945   -0.000451
  C      0.332694    1.096188    0.000340
  C      1.707288    1.303311    0.000620
  C      2.580011    0.218032    0.000107
  C      2.064120   -1.073046   -0.000745
  C      0.686197   -1.274837   -0.001026
  H     -1.897918   -0.265129   -2.166418
  H     -2.246537    1.237512   -1.299299
  H     -3.425485   -0.081655   -1.278683
  H     -1.859135   -1.511367   -0.001714
  H     -1.896095   -0.271171    2.166368
  H     -3.424387   -0.084747    1.280470
  H     -2.244929    1.233986    1.303749
  H     -0.333147    1.954536    0.000783
  H      2.099571    2.315603    0.001267
  H      3.653121    0.379250    0.000378
  H      2.734430   -1.927005   -0.001171
  H      0.290928   -2.287357   -0.001668

 Total Charge           Charge          ....    0
 Multiplicity           Mult            ....    1
 Number of Electrons    NEL             ....   66
 Basis Dimension        Dim             ....  351

ORBITAL ENERGIES
----------------

  NO   OCC          E(Eh)            E(eV)
   0   2.0000     -10.042767      -273.2776
   1   2.0000     -10.040120      -273.2055
   2   2.0000     -10.034501      -273.0527
   3   2.0000     -10.033991      -273.0388
   4   2.0000     -10.032546      -272.9994
   5   2.0000     -10.032241      -272.9911
   6   2.0000     -10.031924      -272.9825
   7   2.0000     -10.022658      -272.7304
   8   2.0000     -10.022656      -272.7303
   9   2.0000      -0.824287       -22.4300
  10   2.0000      -0.768391       -20.9090
  11   2.0000      -0.710706       -19.3393
  12   2.0000      -0.696331       -18.9481
  13   2.0000      -0.651825       -17.7370
  14   2.0000      -0.587528       -15.9875
  15   2.0000      -0.570551       -15.5255
  16   2.0000      -0.529965       -14.4211
  17   2.0000      -0.478022       -13.0076
  18   2.0000      -0.437910       -11.9161
  19   2.0000      -0.422187       -11.4883
  20   2.0000      -0.401923       -10.9369
  21   2.0000      -0.395971       -10.7749
  22   2.0000      -0.386112       -10.5067
  23   2.0000      -0.383449       -10.4342
  24   2.0000      -0.356600        -9.7036
  25   2.0000      -0.345066        -9.3897
  26   2.0000      -0.335226        -9.1220
  27   2.0000      -0.317729        -8.6458
  28   2.0000      -0.312005        -8.4901
  29   2.0000      -0.294829        -8.0227
  30   2.0000      -0.292577        -7.9614
  31   2.0000      -0.234391        -6.3781
  32   2.0000      -0.225428        -6.1342
  33   0.0000      -0.032783        -0.8921
  34   0.0000      -0.028650        -0.7796
  35   0.0000       0.043720         1.1897
  36   0.0000       0.066367         1.8059
  37   0.0000       0.069399         1.8884

MULLIKEN ATOMIC CHARGES
-----------------------
   0 C :   -0.332031
   1 C :   -0.006694
   2 C :   -0.332022
   3 C :    0.248386
   4 C :   -0.242569
   5 C :   -0.098189
   6 C :   -0.131692
   7 C :   -0.085322
   8 C :   -0.218942
   9 H :    0.114432
  10 H :    0.097655
  11 H :    0.105695
  12 H :    0.046994
  13 H :    0.114429
  14 H :    0.105683
  15 H :    0.097674
  16 H :    0.102436
  17 H :    0.104959
  18 H :    0.106875
  19 H :    0.105221
  20 H :    0.097022
Sum of atomic charges:   -0.0000000

LOEWDIN ATOMIC CHARGES
----------------------
   0 C :   -0.272825
   1 C :   -0.266695
   2 C :   -0.272806
   3 C :   -0.123592
   4 C :   -0.110216
   5 C :   -0.141263
   6 C :   -0.147778
   7 C :   -0.141452
   8 C :   -0.115274
   9 H :    0.123194
  10 H :    0.119738
  11 H :    0.119691
  12 H :    0.151910
  13 H :    0.123194
  14 H :    0.119683
  15 H :    0.119753
  16 H :    0.144634
  17 H :    0.142185
  18 H :    0.141448
  19 H :    0.142172
  20 H :    0.144299

  Mayer bond orders larger than 0.100000
B(  0-C ,  1-C ) :   0.9729 B(  0-C ,  9-H ) :   0.9757 B(  0-C , 10-H ) :   0.9673
B(  0-C , 11-H ) :   0.9725 B(  1-C ,  2-C ) :   0.9729 B(  1-C ,  3-C ) :   0.8898
B(  1-C , 12-H ) :   0.9619 B(  2-C , 13-H ) :   0.9756 B(  2-C , 14-H ) :   0.9725
B(  2-C , 15-H ) :   0.9674 B(  3-C ,  4-C ) :   1.2983 B(  3-C ,  8-C ) :   1.3415
B(  4-C ,  5-C ) :   1.4411 B(  4-C , 16-H ) :   0.9759 B(  5-C ,  6-C ) :   1.3811
B(  5-C , 17-H ) :   0.9700 B(  6-C ,  7-C ) :   1.3968 B(  6-C , 18-H ) :   0.9693
B(  7-C ,  8-C ) :   1.4132 B(  7-C , 19-H ) :   0.9724 B(  8-C , 20-H ) :   0.9754

Dispersion correction           -0.006998447
FINAL SINGLE POINT ENERGY      -350.108548531859

DIPOLE MOMENT
-------------

Method             : SCF
Type of density    : Electron Density
Multiplicity       :   1
Irrep              :   0
Energy             :  -350.1084239874344917 Eh
Relativity type    :
Basis              : AO
                                X                 Y                 Z
Electronic contribution:      7.924212718      -0.682541171      -0.003283514
Nuclear contribution   :     -8.071231481       0.650851816       0.003389917
                        -----------------------------------------
Total Dipole Moment    :     -0.147018763      -0.031689355       0.000106403
                        -----------------------------------------
Magnitude (a.u.)       :      0.150395290
Magnitude (Debye)      :      0.382274446

VIBRATIONAL FREQUENCIES
-----------------------

Scaling factor for frequencies =  1.000000000  (already applied!)

     0:       0.00 cm**-1
     1:       0.00 cm**-1
     2:       0.00 cm**-1
     3:       0.00 cm**-1
     4:       0.00 cm**-1
     5:       0.00 cm**-1
     6:      44.62 cm**-1
     7:     128.29 cm**-1
     8:     221.52 cm**-1
     9:     241.84 cm**-1
    10:     274.49 cm**-1
    11:     308.30 cm**-1
    12:     319.64 cm**-1
    13:     408.64 cm**-1
    14:     466.95 cm**-1
    15:     546.03 cm**-1
    16:     569.14 cm**-1
    17:     637.78 cm**-1
    18:     711.14 cm**-1
    19:     757.50 cm**-1
    20:     774.72 cm**-1
    21:     847.40 cm**-1
    22:     899.75 cm**-1
    23:     910.41 cm**-1
    24:     928.58 cm**-1
    25:     952.12 cm**-1
    26:     961.78 cm**-1
    27:     974.98 cm**-1
    28:    1022.68 cm**-1
    29:    1050.16 cm**-1
    30:    1069.78 cm**-1
    31:    1108.02 cm**-1
    32:    1117.25 cm**-1
    33:    1170.82 cm**-1
    34:    1181.55 cm**-1
    35:    1203.11 cm**-1
    36:    1232.51 cm**-1
    37:    1311.14 cm**-1
    38:    1335.60 cm**-1
    39:    1354.99 cm**-1
    40:    1378.23 cm**-1
    41:    1384.16 cm**-1
    42:    1407.52 cm**-1
    43:    1476.71 cm**-1
    44:    1480.48 cm**-1
    45:    1481.94 cm**-1
    46:    1494.20 cm**-1
    47:    1499.15 cm**-1
    48:    1524.22 cm**-1
    49:    1619.70 cm**-1
    50:    1638.23 cm**-1
    51:    3004.37 cm**-1
    52:    3006.38 cm**-1
    53:    3008.98 cm**-1
    54:    3079.54 cm**-1
    55:    3084.92 cm**-1
    56:    3090.72 cm**-1
    57:    3092.83 cm**-1
    58:    3146.04 cm**-1
    59:    3151.27 cm**-1
    60:    3161.73 cm**-1
    61:    3169.52 cm**-1
    62:    3181.68 cm**-1

IR SPECTRUM
-----------

 Mode   freq       eps      Int      T**2         TX        TY        TZ
       cm**-1   L/(mol*cm) km/mol    a.u.
----------------------------------------------------------------------------
  6:     44.62   0.000003    0.02  0.000024  ( 0.000129  0.000167 -0.004874)
  7:    128.29   0.000116    0.59  0.000283  (-0.000063  0.000066 -0.016833)
  8:    221.52   0.000024    0.12  0.000034  ( 0.003611 -0.004524 -0.000010)
  9:    241.84   0.000000    0.00  0.000000  ( 0.000002 -0.000019 -0.000219)
 10:    274.49   0.000023    0.11  0.000026  (-0.004962  0.001042  0.000001)
 11:    308.30   0.000009    0.04  0.000009  (-0.001661  0.002470  0.000017)
 12:    319.64   0.000034    0.17  0.000033  ( 0.000043 -0.000100  0.005764)
 13:    408.64   0.000002    0.01  0.000001  ( 0.000035  0.000018 -0.001094)
 14:    466.95   0.000042    0.21  0.000028  (-0.005273 -0.000208 -0.000006)
 15:    546.03   0.003167   16.00  0.001810  ( 0.000009 -0.000072 -0.042541)
 16:    569.14   0.000029    0.15  0.000016  ( 0.003705 -0.001445  0.000023)
 17:    637.78   0.000004    0.02  0.000002  (-0.000552  0.001320 -0.000003)
 18:    711.14   0.009218   46.58  0.004045  ( 0.000040  0.000059  0.063600)
 19:    757.50   0.000270    1.37  0.000111  ( 0.010400  0.001792  0.000017)
 20:    774.72   0.003812   19.27  0.001536  (-0.000031  0.000096  0.039188)
 21:    847.40   0.000000    0.00  0.000000  (-0.000010 -0.000008  0.000198)
 22:    899.75   0.000133    0.67  0.000046  (-0.005803  0.003525  0.000004)
 23:    910.41   0.000284    1.44  0.000097  (-0.000024  0.000032  0.009870)
 24:    928.58   0.000149    0.75  0.000050  (-0.000005 -0.000002 -0.007084)
 25:    952.12   0.000001    0.00  0.000000  (-0.000046 -0.000027 -0.000443)
 26:    961.78   0.000000    0.00  0.000000  (-0.000005 -0.000011  0.000361)
 27:    974.98   0.000013    0.07  0.000004  (-0.000015  0.000024 -0.002071)
 28:   1022.68   0.000118    0.60  0.000036  (-0.005566 -0.002235  0.000002)
 29:   1050.16   0.001760    8.90  0.000523  ( 0.022629  0.003318  0.000001)
 30:   1069.78   0.001475    7.45  0.000430  ( 0.016621  0.012408 -0.000002)
 31:   1108.02   0.001651    8.34  0.000465  ( 0.015770 -0.014708 -0.000008)
 32:   1117.25   0.000218    1.10  0.000061  (-0.000019 -0.000013 -0.007800)
 33:   1170.82   0.000120    0.61  0.000032  (-0.005251 -0.002111  0.000004)
 34:   1181.55   0.000023    0.12  0.000006  (-0.001726 -0.001754 -0.000002)
 35:   1203.11   0.000010    0.05  0.000003  ( 0.001105  0.001166  0.000000)
 36:   1232.51   0.000115    0.58  0.000029  (-0.004914 -0.002230 -0.000012)
 37:   1311.14   0.000850    4.29  0.000202  ( 0.013826  0.003323 -0.000010)
 38:   1335.60   0.000388    1.96  0.000091  ( 0.000008 -0.000015  0.009517)
 39:   1354.99   0.000046    0.23  0.000011  (-0.003025  0.001190 -0.000004)
 40:   1378.23   0.000391    1.98  0.000088  (-0.008177  0.004650  0.000020)
 41:   1384.16   0.001141    5.77  0.000257  ( 0.000028 -0.000026  0.016040)
 42:   1407.52   0.000801    4.05  0.000178  ( 0.004838 -0.012413 -0.000015)
 43:   1476.71   0.000002    0.01  0.000000  ( 0.000007  0.000027 -0.000692)
 44:   1480.48   0.000675    3.41  0.000142  ( 0.000010 -0.000115  0.011926)
 45:   1481.94   0.001535    7.76  0.000323  ( 0.002758 -0.017764 -0.000063)
 46:   1494.20   0.001904    9.62  0.000398  (-0.003909  0.019553  0.000039)
 47:   1499.15   0.001077    5.44  0.000224  ( 0.007190  0.013133  0.000011)
 48:   1524.22   0.002930   14.81  0.000600  (-0.023883 -0.005433 -0.000003)
 49:   1619.70   0.000228    1.15  0.000044  ( 0.001051 -0.006544 -0.000007)
 50:   1638.23   0.001565    7.91  0.000298  (-0.017265 -0.000202  0.000008)
 51:   3004.37   0.006002   30.33  0.000623  ( 0.000133  0.000021 -0.024968)
 52:   3006.38   0.004388   22.18  0.000456  (-0.021281 -0.001606 -0.000148)
 53:   3008.98   0.004974   25.14  0.000516  (-0.011025  0.019858  0.000003)
 54:   3079.54   0.000028    0.14  0.000003  (-0.000023 -0.000025  0.001674)
 55:   3084.92   0.014692   74.25  0.001486  (-0.031049 -0.022851 -0.000007)
 56:   3090.72   0.003865   19.53  0.000390  ( 0.000094 -0.000087  0.019755)
 57:   3092.83   0.006404   32.37  0.000646  ( 0.016673 -0.019189 -0.000111)
 58:   3146.04   0.001748    8.83  0.000173  ( 0.010182  0.008347  0.000005)
 59:   3151.27   0.000744    3.76  0.000074  ( 0.007140 -0.004761 -0.000004)
 60:   3161.73   0.001178    5.95  0.000116  (-0.010253 -0.003336 -0.000004)
 61:   3169.52   0.006849   34.61  0.000674  ( 0.005667 -0.025342 -0.000015)
 62:   3181.68   0.003096   15.65  0.000304  ( 0.017218  0.002681  0.000003)

--------------------------
THERMOCHEMISTRY AT 298.15K
--------------------------

Temperature         ...   298.15 K
Pressure            ...     1.00 atm
Total Mass          ...   120.19 AMU
Quasi RRHO          ...     True
Cut-Off Frequency   ...     1.00 cm^-1

Throughout the following assumptions are being made:
  (1) The electronic state is orbitally nondegenerate
  (2) There are no thermally accessible electronically excited states
  (3) Hindered rotations indicated by low frequency modes are not
      treated as such but are treated as vibrations and this may
      cause some error
  (4) All equations used are the standard statistical mechanics
      equations for an ideal gas
  (5) All vibrations are strictly harmonic

freq.      44.62  E(vib)   ...       0.53
freq.     128.29  E(vib)   ...       0.43
freq.     221.52  E(vib)   ...       0.33
freq.     241.84  E(vib)   ...       0.31
freq.     274.49  E(vib)   ...       0.28
freq.     308.30  E(vib)   ...       0.26
freq.     319.64  E(vib)   ...       0.25
freq.     408.64  E(vib)   ...       0.19
freq.     466.95  E(vib)   ...       0.16
freq.     546.03  E(vib)   ...       0.12
freq.     569.14  E(vib)   ...       0.11
freq.     637.78  E(vib)   ...       0.09
freq.     711.14  E(vib)   ...       0.07
freq.     757.50  E(vib)   ...       0.06
freq.     774.72  E(vib)   ...       0.05
freq.     847.40  E(vib)   ...       0.04
freq.     899.75  E(vib)   ...       0.03
freq.     910.41  E(vib)   ...       0.03
freq.     928.58  E(vib)   ...       0.03
freq.     952.12  E(vib)   ...       0.03
freq.     961.78  E(vib)   ...       0.03
freq.     974.98  E(vib)   ...       0.03
freq.    1022.68  E(vib)   ...       0.02
freq.    1050.16  E(vib)   ...       0.02
freq.    1069.78  E(vib)   ...       0.02
freq.    1108.02  E(vib)   ...       0.02
freq.    1117.25  E(vib)   ...       0.01
freq.    1170.82  E(vib)   ...       0.01
freq.    1181.55  E(vib)   ...       0.01
freq.    1203.11  E(vib)   ...       0.01
freq.    1232.51  E(vib)   ...       0.01
freq.    1311.14  E(vib)   ...       0.01
freq.    1335.60  E(vib)   ...       0.01
freq.    1354.99  E(vib)   ...       0.01
freq.    1378.23  E(vib)   ...       0.01
freq.    1384.16  E(vib)   ...       0.00
freq.    1407.52  E(vib)   ...       0.00
freq.    1476.71  E(vib)   ...       0.00
freq.    1480.48  E(vib)   ...       0.00
freq.    1481.94  E(vib)   ...       0.00
freq.    1494.20  E(vib)   ...       0.00
freq.    1499.15  E(vib)   ...       0.00
freq.    1524.22  E(vib)   ...       0.00
freq.    1619.70  E(vib)   ...       0.00
freq.    1638.23  E(vib)   ...       0.00
freq.    3004.37  E(vib)   ...       0.00
freq.    3006.38  E(vib)   ...       0.00
freq.    3008.98  E(vib)   ...       0.00
freq.    3079.54  E(vib)   ...       0.00
freq.    3084.92  E(vib)   ...       0.00
freq.    3090.72  E(vib)   ...       0.00
freq.    3092.83  E(vib)   ...       0.00
freq.    3146.04  E(vib)   ...       0.00
freq.    3151.27  E(vib)   ...       0.00
freq.    3161.73  E(vib)   ...       0.00
freq.    3169.52  E(vib)   ...       0.00
freq.    3181.68  E(vib)   ...       0.00

------------
INNER ENERGY
------------

The inner energy is: U= E(el) + E(ZPE) + E(vib) + E(rot) + E(trans)
    E(el)   - is the total energy from the electronic structure calculation
              = E(kin-el) + E(nuc-el) + E(el-el) + E(nuc-nuc)
    E(ZPE)  - the the zero temperature vibrational energy from the frequency calculation
    E(vib)  - the the finite temperature correction to E(ZPE) due to population
              of excited vibrational states
    E(rot)  - is the rotational thermal energy
    E(trans)- is the translational thermal energy

Summary of contributions to the inner energy U:
Electronic energy                ...   -350.10854853 Eh
Zero point energy                ...      0.18363344 Eh     115.23 kcal/mol
Thermal vibrational correction   ...      0.00580450 Eh       3.64 kcal/mol
Thermal rotational correction    ...      0.00141627 Eh       0.89 kcal/mol
Thermal translational correction ...      0.00141627 Eh       0.89 kcal/mol
-----------------------------------------------------------------------
Total thermal energy                   -349.91627805 Eh

Summary of corrections to the electronic energy:
(perhaps to be used in another calculation)
Total thermal correction                  0.00863705 Eh       5.42 kcal/mol
Non-thermal (ZPE) correction              0.18363344 Eh     115.23 kcal/mol
-----------------------------------------------------------------------
Total correction                          0.19227049 Eh     120.65 kcal/mol

--------
ENTHALPY
--------

The enthalpy is H = U + kB*T
                kB is Boltzmann's constant
Total thermal energy              ...   -349.91627805 Eh
Thermal Enthalpy correction       ...      0.00094421 Eh       0.59 kcal/mol
-----------------------------------------------------------------------
Total Enthalpy                    ...   -349.91533384 Eh

Note: Only C1 symmetry has been detected, increase convergence thresholds
      if your molecule has a higher symmetry. Symmetry factor of 1.0 is
      used for the rotational entropy correction.

Note: Rotational entropy computed according to Herzberg
Infrared and Raman Spectra, Chapter V,1, Van Nostrand Reinhold, 1945
Point Group:  C1, Symmetry Number:   1
Rotational constants in cm-1:     0.112089     0.036165     0.033219

Vibrational entropy computed according to the QRRHO of S. Grimme
Chem.Eur.J. 2012 18 9955 using a reference frequency of 100.0 cm-1

-------
ENTROPY
-------

The entropy contributions are T*S = T*(S(el)+S(vib)+S(rot)+S(trans))
     S(el)   - electronic entropy
     S(vib)  - vibrational entropy
     S(rot)  - rotational entropy
     S(trans)- translational entropy
The entropies will be listed as multiplied by the temperature to get
units of energy

Electronic entropy                ...      0.00000000 Eh      0.00 kcal/mol
Vibrational entropy               ...      0.00955964 Eh      6.00 kcal/mol
Rotational entropy                ...      0.01371845 Eh      8.61 kcal/mol
Translational entropy             ...      0.01913176 Eh     12.01 kcal/mol
-----------------------------------------------------------------------
Final entropy term                ...      0.04240984 Eh     26.61 kcal/mol

In case the symmetry of your molecule has not been determined correctly
or in case you have a reason to use a different symmetry number we print
out the resulting rotational entropy values for sn=1,12:

 non-linear molecules -----------------------------------
|  sn= 1 | S(rot)=       0.01371845 Eh      8.61 kcal/mol|
|  sn= 2 | S(rot)=       0.01306399 Eh      8.20 kcal/mol|
|  sn= 3 | S(rot)=       0.01268116 Eh      7.96 kcal/mol|

                             ****ORCA TERMINATED NORMALLY****
TOTAL RUN TIME: 0 days 0 hours 19 minutes 54 seconds 638 msec
