                         Program Version 6.0.1  -  RELEASE   -
|  1> ! r2scan-3c def2/J RI DEFGRID2 scfconv6 printgap
|  2> %output
|  3>     printlevel normal
|  4> end
|  5> * xyz 0 1
|  6> C -1.9581122837 0.4587458641 -0.062634914
|  7> C -0.8907218022 -0.6108153326 0.1249057755
|  8> C 0.5598461711 -0.1662683779 0.0241047118
|  9> O 1.4749483183 -0.949274512 0.1554810975
| 10> N 0.7794419488 1.1456069135 -0.2189721199
| 11> H -2.9430151208 0.0062449206 0.0319634815
| 12> H -1.8769968661 1.2357751238 0.6954223801
| 13> H -1.895327499 0.9109695839 -1.0508336268
| 14> H -1.0220698005 -1.4030952812 -0.6159999519
| 15> H -1.0013975643 -1.0806031611 1.1052141227
| 16> H 0.0387922781 1.8118751254 -0.3308846138
| 17> H 1.7323949449 1.4607983135 -0.2892765624
| 18> *
| 19>
| 20>                          ****END OF INPUT****

CARTESIAN COORDINATES (ANGSTROEM)
---------------------------------
  C     -1.958112    0.458746   -0.062635
  C     -0.890722   -0.610815    0.124906
  C      0.559846   -0.166268    0.024105
  O      1.474948   -0.949275    0.155481
  N      0.779442    1.145607   -0.218972
  H     -2.943015    0.006245    0.031963
  H     -1.876997    1.235775    0.695422
  H     -1.895327    0.910970   -1.050834
  H     -1.022070   -1.403095   -0.616000
  H     -1.001398   -1.080603    1.105214
  H      0.038792    1.811875   -0.330885
  H      1.732395    1.460798   -0.289277

 Total Charge           Charge          ....    0
 Multiplicity           Mult            ....    1
 Number of Electrons    NEL             ....   40
 Basis Dimension        Dim             ....  140

ORBITAL ENERGIES
----------------

  NO   OCC          E(Eh)            E(eV)
   0   2.0000     -18.905584      -514.4471
   1   2.0000     -14.180888      -385.8816
   2   2.0000     -10.126840      -275.5653
   3   2.0000     -10.042829      -273.2793
   4   2.0000     -10.038442      -273.1599
   5   2.0000      -0.998719       -27.1765
   6   2.0000      -0.873481       -23.7686
   7   2.0000      -0.750652       -20.4263
   8   2.0000      -0.628810       -17.1108
   9   2.0000      -0.554951       -15.1010
  10   2.0000      -0.515229       -14.0201
  11   2.0000      -0.442249       -12.0342
  12   2.0000      -0.426218       -11.5980
  13   2.0000      -0.393298       -10.7022
  14   2.0000      -0.371477       -10.1084
  15   2.0000      -0.355152        -9.6642
  16   2.0000      -0.341842        -9.3020
  17   2.0000      -0.322025        -8.7627
  18   2.0000      -0.243128        -6.6159
  19   2.0000      -0.214476        -5.8362
  20   0.0000       0.004554         0.1239
  21   0.0000       0.062007         1.6873
  22   0.0000       0.112938         3.0732
  23   0.0000       0.117778         3.2049
  24   0.0000       0.140226         3.8157

MULLIKEN ATOMIC CHARGES
-----------------------
   0 C :   -0.523773
   1 C :   -0.235361
   2 C :    0.260867
   3 O :   -0.407682
   4 N :   -0.385000
   5 H :    0.155921
   6 H :    0.154445
   7 H :    0.154877
   8 H :    0.163334
   9 H :    0.163427
  10 H :    0.255271
  11 H :    0.243673
Sum of atomic charges:    0.0000000

LOEWDIN ATOMIC CHARGES
----------------------
   0 C :   -0.420411
   1 C :   -0.253716
   2 C :    0.296830
   3 O :   -0.458203
   4 N :   -0.506986
   5 H :    0.158291
   6 H :    0.151751
   7 H :    0.151873
   8 H :    0.180529
   9 H :    0.180524
  10 H :    0.258039
  11 H :    0.261479

  Mayer bond orders larger than 0.100000
B(  0-C ,  1-C ) :   0.8600 B(  0-C ,  5-H ) :   0.9550 B(  0-C ,  6-H ) :   0.9838
B(  0-C ,  7-H ) :   0.9840 B(  1-C ,  2-C ) :   1.0094 B(  1-C ,  8-H ) :   0.9277
B(  1-C ,  9-H ) :   0.9273 B(  2-C ,  3-O ) :   1.9587 B(  2-C ,  4-N ) :   1.0973
B(  4-N , 10-H ) :   0.9059 B(  4-N , 11-H ) :   0.9205

Dispersion correction           -0.002476578
FINAL SINGLE POINT ENERGY      -248.471851617305

DIPOLE MOMENT
-------------

Method             : SCF
Type of density    : Electron Density
Multiplicity       :   1
Irrep              :   0
Energy             :  -248.4778653249121305 Eh
Relativity type    :
Basis              : AO
                                X                 Y                 Z
Electronic contribution:      5.529412580      -1.578999380       0.223321155
Nuclear contribution   :     -6.510655955       2.752259478      -0.425193184
                        -----------------------------------------
Total Dipole Moment    :     -0.981243375       1.173260098      -0.201872029
                        -----------------------------------------
Magnitude (a.u.)       :      1.542767038
Magnitude (Debye)      :      3.921402171

Rotational constants in cm-1:             0.317456             0.130137             0.095583
Rotational constants in MHz :          9517.095894          3901.415674          2865.492571

                             ****ORCA TERMINATED NORMALLY****
TOTAL RUN TIME: 0 days 0 hours 0 minutes 29 seconds 264 msec
