                         Program Version 6.0.1  -  RELEASE   -
|  1> ! pbe def2-sv(p) def2/J RI DEFGRID1 loosescf d4 GCP(DFT/SV(P)) printgap
|  2> %output
|  3>     printlevel normal
|  4> end
|  5> * xyz 0 1
|  6> C -2.2755807544 -1.07729768 -0.2229711395
|  7> C -0.899444194 -0.5817243501 0.2187074817
|  8> H -0.8295197164 -0.6860990397 1.3139330548
|  9> C -0.7228995918 0.9133676065 -0.1343893453
| 10> H -1.2765442567 1.14619074 -1.0542990697
| 11> C 0.7567163679 1.2430754325 -0.3946188004
| 12> H 0.9107482406 2.2931015311 -0.1008705347
| 13> C 1.6241480006 0.3342725048 0.4832676822
| 14> H 2.6922041442 0.5323511756 0.3099810281
| 15> C 1.3917857719 -1.1440419978 0.0510706724
| 16> H 1.6259240367 -1.7944206206 0.9085536901
| 17> O 0.0739432265 -1.3799446873 -0.4027137777
| 18> O 2.2446228257 -1.498421177 -0.9799004477
| 19> O 1.3737487418 0.5476320013 1.8473015326
| 20> O 1.0247437056 1.0603531378 -1.7648070354
| 21> O -1.1615651077 1.7175582765 0.9367785052
| 22> O -3.2416112067 -0.244418968 0.3873999845
| 23> H -2.3968922362 -2.1218622748 0.0855090395
| 24> H -2.338732311 -1.0224095708 -1.3167636894
| 25> H 1.8557022937 -1.1424883339 -1.7926595469
| 26> H 0.5410890163 1.0338923166 1.9435093902
| 27> H 1.931440082 1.3377253959 -1.9406468053
| 28> H -2.0861461936 1.4864157295 1.1026316528
| 29> H -4.1189603871 -0.5587737081 0.1465031838
| 30> *
| 31>
| 32>                          ****END OF INPUT****

CARTESIAN COORDINATES (ANGSTROEM)
---------------------------------
  C     -2.275581   -1.077298   -0.222971
  C     -0.899444   -0.581724    0.218707
  H     -0.829520   -0.686099    1.313933
  C     -0.722900    0.913368   -0.134389
  H     -1.276544    1.146191   -1.054299
  C      0.756716    1.243075   -0.394619
  H      0.910748    2.293102   -0.100871
  C      1.624148    0.334273    0.483268
  H      2.692204    0.532351    0.309981
  C      1.391786   -1.144042    0.051071
  H      1.625924   -1.794421    0.908554
  O      0.073943   -1.379945   -0.402714
  O      2.244623   -1.498421   -0.979900
  O      1.373749    0.547632    1.847302
  O      1.024744    1.060353   -1.764807
  O     -1.161565    1.717558    0.936779
  O     -3.241611   -0.244419    0.387400
  H     -2.396892   -2.121862    0.085509
  H     -2.338732   -1.022410   -1.316764
  H      1.855702   -1.142488   -1.792660
  H      0.541089    1.033892    1.943509
  H      1.931440    1.337725   -1.940647
  H     -2.086146    1.486416    1.102632
  H     -4.118960   -0.558774    0.146503

 Total Charge           Charge          ....    0
 Multiplicity           Mult            ....    1
 Number of Electrons    NEL             ....   96
 Basis Dimension        Dim             ....  192

ORBITAL ENERGIES
----------------

  NO   OCC          E(Eh)            E(eV)
   0   2.0000     -18.777988      -510.9750
   1   2.0000     -18.770480      -510.7707
   2   2.0000     -18.767136      -510.6797
   3   2.0000     -18.764211      -510.6002
   4   2.0000     -18.743973      -510.0494
   5   2.0000     -18.742764      -510.0165
   6   2.0000      -9.975316      -271.4421
   7   2.0000      -9.950020      -270.7538
   8   2.0000      -9.946845      -270.6674
   9   2.0000      -9.946749      -270.6648
  10   2.0000      -9.946539      -270.6591
  11   2.0000      -9.934343      -270.3272
  12   2.0000      -0.981601       -26.7107
  13   2.0000      -0.952533       -25.9197
  14   2.0000      -0.947890       -25.7934
  15   2.0000      -0.937257       -25.5041
  16   2.0000      -0.919813       -25.0294
  17   2.0000      -0.906999       -24.6807
  18   2.0000      -0.704992       -19.1838
  19   2.0000      -0.686879       -18.6909
  20   2.0000      -0.627920       -17.0866
  21   2.0000      -0.574922       -15.6444
  22   2.0000      -0.569343       -15.4926
  23   2.0000      -0.517456       -14.0807
  24   2.0000      -0.509281       -13.8582
  25   2.0000      -0.506999       -13.7961
  26   2.0000      -0.480121       -13.0648
  27   2.0000      -0.467766       -12.7286
  28   2.0000      -0.445418       -12.1204
  29   2.0000      -0.431705       -11.7473
  30   2.0000      -0.414154       -11.2697
  31   2.0000      -0.407867       -11.0986
  32   2.0000      -0.384438       -10.4611
  33   2.0000      -0.377093       -10.2612
  34   2.0000      -0.360338        -9.8053
  35   2.0000      -0.353263        -9.6128
  36   2.0000      -0.332195        -9.0395
  37   2.0000      -0.323767        -8.8101
  38   2.0000      -0.315806        -8.5935
  39   2.0000      -0.303783        -8.2664
  40   2.0000      -0.292557        -7.9609
  41   2.0000      -0.267296        -7.2735
  42   2.0000      -0.252755        -6.8778
  43   2.0000      -0.244610        -6.6562
  44   2.0000      -0.242565        -6.6005
  45   2.0000      -0.230483        -6.2718
  46   2.0000      -0.219934        -5.9847
  47   2.0000      -0.190305        -5.1785
  48   0.0000       0.000473         0.0129
  49   0.0000       0.013237         0.3602
  50   0.0000       0.048917         1.3311
  51   0.0000       0.055138         1.5004
  52   0.0000       0.063074         1.7163

MULLIKEN ATOMIC CHARGES
-----------------------
   0 C :    0.058869
   1 C :    0.014320
   2 H :    0.058167
   3 C :    0.018387
   4 H :    0.071520
   5 C :    0.039433
   6 H :    0.085493
   7 C :   -0.031356
   8 H :    0.069411
   9 C :    0.252471
  10 H :    0.068834
  11 O :   -0.304572
  12 O :   -0.403670
  13 O :   -0.417310
  14 O :   -0.411610
  15 O :   -0.421792
  16 O :   -0.449862
  17 H :    0.090966
  18 H :    0.084336
  19 H :    0.286216
  20 H :    0.306753
  21 H :    0.306708
  22 H :    0.313358
  23 H :    0.314930
Sum of atomic charges:    0.0000000

LOEWDIN ATOMIC CHARGES
----------------------
   0 C :   -0.119121
   1 C :   -0.076415
   2 H :    0.104092
   3 C :   -0.069354
   4 H :    0.112726
   5 C :   -0.072449
   6 H :    0.110045
   7 C :   -0.100389
   8 H :    0.108623
   9 C :    0.010795
  10 H :    0.101074
  11 O :   -0.145020
  12 O :   -0.304124
  13 O :   -0.317614
  14 O :   -0.309992
  15 O :   -0.313816
  16 O :   -0.341442
  17 H :    0.106016
  18 H :    0.103087
  19 H :    0.270444
  20 H :    0.274785
  21 H :    0.288890
  22 H :    0.283419
  23 H :    0.295740

  Mayer bond orders larger than 0.100000
B(  0-C ,  1-C ) :   1.0643 B(  0-C , 16-O ) :   1.0547 B(  0-C , 17-H ) :   0.9185
B(  0-C , 18-H ) :   0.9084 B(  1-C ,  2-H ) :   0.8649 B(  1-C ,  3-C ) :   0.9946
B(  1-C , 11-O ) :   1.0501 B(  3-C ,  4-H ) :   0.8764 B(  3-C ,  5-C ) :   1.0059
B(  3-C , 15-O ) :   1.0529 B(  5-C ,  6-H ) :   0.8957 B(  5-C ,  7-C ) :   1.0303
B(  5-C , 14-O ) :   1.0527 B(  7-C ,  8-H ) :   0.8983 B(  7-C ,  9-C ) :   0.9158
B(  7-C , 13-O ) :   1.0738 B(  9-C , 10-H ) :   0.9016 B(  9-C , 11-O ) :   1.0110
B(  9-C , 12-O ) :   1.1158 B( 12-O , 19-H ) :   0.8321 B( 13-O , 20-H ) :   0.8092
B( 14-O , 21-H ) :   0.8400 B( 15-O , 22-H ) :   0.8177 B( 16-O , 23-H ) :   0.8450

Dispersion correction           -0.025225729
FINAL SINGLE POINT ENERGY      -685.693696407120

DIPOLE MOMENT
-------------

Method             : SCF
Type of density    : Electron Density
Multiplicity       :   1
Irrep              :   0
Energy             :  -685.8272695927681752 Eh
Relativity type    :
Basis              : AO
                                X                 Y                 Z
Electronic contribution:      1.978051489      -0.178800233      -0.198346349
Nuclear contribution   :     -3.269270329       0.475488134      -0.369862967
                        -----------------------------------------
Total Dipole Moment    :     -1.291218840       0.296687901      -0.568209315
                        -----------------------------------------
Magnitude (a.u.)       :      1.441572624
Magnitude (Debye)      :      3.664186413

Rotational constants in cm-1:             0.044657             0.025591             0.022224
Rotational constants in MHz :          1338.792026           767.193456           666.269455

                             ****ORCA TERMINATED NORMALLY****
TOTAL RUN TIME: 0 days 0 hours 0 minutes 9 seconds 530 msec
