                         Program Version 6.0.1  -  RELEASE   -
|  1> ! r2scan-3c def2/J RI DEFGRID2 scfconv6 printgap
|  2> %output
|  3>     printlevel normal
|  4> end
|  5> * xyz 0 1
|  6> C -3.1509292306 -0.0353285649 1.0396420436
|  7> O -1.7496627921 -0.0145770594 0.8118848348
|  8> C -1.3610468116 -0.0284618025 -0.4705491355
|  9> O -2.1342714361 -0.0566061035 -1.3921189424
| 10> C 0.1462455104 -0.0054857346 -0.6001901926
| 11> C 0.7573963234 -1.2425587511 0.0669330615
| 12> C 2.2770613736 -1.2169838334 -0.0628967895
| 13> C 2.8463052875 0.053214821 0.5613262357
| 14> C 2.2371649272 1.2872453533 -0.0967416682
| 15> C 0.7174777635 1.267611911 0.0335573776
| 16> H -3.2850730038 -0.0231103701 2.118243461
| 17> H -3.5919125742 -0.935890916 0.6075864026
| 18> H -3.6220499858 0.8378867882 0.5838567102
| 19> H 0.377340262 -0.0160476101 -1.6700311011
| 20> H 0.4776872156 -1.2502735029 1.1220648136
| 21> H 0.3575609465 -2.1462000865 -0.3984251934
| 22> H 2.7009200738 -2.0958432025 0.4269496314
| 23> H 2.5520602929 -1.2570251373 -1.1192737773
| 24> H 2.6201632105 0.0640585347 1.6298906397
| 25> H 3.9321292897 0.0690219189 0.448222999
| 26> H 2.632928977 2.1922000706 0.3685180832
| 27> H 2.5106229953 1.3071037793 -1.1540918978
| 28> H 0.4377007605 1.2941461603 1.088333766
| 29> H 0.288996988 2.1454833685 -0.455014989
| 30> *
| 31>
| 32>                          ****END OF INPUT****

CARTESIAN COORDINATES (ANGSTROEM)
---------------------------------
  C     -3.150929   -0.035329    1.039642
  O     -1.749663   -0.014577    0.811885
  C     -1.361047   -0.028462   -0.470549
  O     -2.134271   -0.056606   -1.392119
  C      0.146246   -0.005486   -0.600190
  C      0.757396   -1.242559    0.066933
  C      2.277061   -1.216984   -0.062897
  C      2.846305    0.053215    0.561326
  C      2.237165    1.287245   -0.096742
  C      0.717478    1.267612    0.033557
  H     -3.285073   -0.023110    2.118243
  H     -3.591913   -0.935891    0.607586
  H     -3.622050    0.837887    0.583857
  H      0.377340   -0.016048   -1.670031
  H      0.477687   -1.250274    1.122065
  H      0.357561   -2.146200   -0.398425
  H      2.700920   -2.095843    0.426950
  H      2.552060   -1.257025   -1.119274
  H      2.620163    0.064059    1.629891
  H      3.932129    0.069022    0.448223
  H      2.632929    2.192200    0.368518
  H      2.510623    1.307104   -1.154092
  H      0.437701    1.294146    1.088334
  H      0.288997    2.145483   -0.455015

 Total Charge           Charge          ....    0
 Multiplicity           Mult            ....    1
 Number of Electrons    NEL             ....   78
 Basis Dimension        Dim             ....  270

ORBITAL ENERGIES
----------------

  NO   OCC          E(Eh)            E(eV)
   0   2.0000     -18.997045      -516.9359
   1   2.0000     -18.929525      -515.0986
   2   2.0000     -10.147960      -276.1400
   3   2.0000     -10.084387      -274.4101
   4   2.0000     -10.045159      -273.3427
   5   2.0000     -10.031704      -272.9765
   6   2.0000     -10.031650      -272.9751
   7   2.0000     -10.028044      -272.8770
   8   2.0000     -10.028023      -272.8764
   9   2.0000     -10.026408      -272.8324
  10   2.0000      -1.072346       -29.1800
  11   2.0000      -0.979534       -26.6545
  12   2.0000      -0.811715       -22.0879
  13   2.0000      -0.737317       -20.0634
  14   2.0000      -0.714855       -19.4522
  15   2.0000      -0.685741       -18.6600
  16   2.0000      -0.596674       -16.2363
  17   2.0000      -0.581906       -15.8345
  18   2.0000      -0.533805       -14.5256
  19   2.0000      -0.529606       -14.4113
  20   2.0000      -0.476378       -12.9629
  21   2.0000      -0.449880       -12.2418
  22   2.0000      -0.447747       -12.1838
  23   2.0000      -0.428731       -11.6664
  24   2.0000      -0.414607       -11.2820
  25   2.0000      -0.409212       -11.1352
  26   2.0000      -0.394860       -10.7447
  27   2.0000      -0.375817       -10.2265
  28   2.0000      -0.366371        -9.9695
  29   2.0000      -0.353334        -9.6147
  30   2.0000      -0.333342        -9.0707
  31   2.0000      -0.327463        -8.9107
  32   2.0000      -0.319090        -8.6829
  33   2.0000      -0.318094        -8.6558
  34   2.0000      -0.296889        -8.0788
  35   2.0000      -0.286959        -7.8085
  36   2.0000      -0.273581        -7.4445
  37   2.0000      -0.271954        -7.4002
  38   2.0000      -0.229463        -6.2440
  39   0.0000      -0.013302        -0.3620
  40   0.0000       0.060490         1.6460
  41   0.0000       0.092172         2.5081
  42   0.0000       0.097670         2.6577
  43   0.0000       0.106946         2.9102

MULLIKEN ATOMIC CHARGES
-----------------------
   0 C :   -0.296170
   1 O :   -0.197751
   2 C :    0.316309
   3 O :   -0.397323
   4 C :   -0.038942
   5 C :   -0.363313
   6 C :   -0.272434
   7 C :   -0.294766
   8 C :   -0.272297
   9 C :   -0.363548
  10 H :    0.148204
  11 H :    0.160406
  12 H :    0.160252
  13 H :    0.187084
  14 H :    0.169509
  15 H :    0.150244
  16 H :    0.148037
  17 H :    0.147256
  18 H :    0.144394
  19 H :    0.149857
  20 H :    0.148029
  21 H :    0.147225
  22 H :    0.169521
  23 H :    0.150217
Sum of atomic charges:    0.0000000

LOEWDIN ATOMIC CHARGES
----------------------
   0 C :   -0.045657
   1 O :   -0.616544
   2 C :    0.358862
   3 O :   -0.408893
   4 C :   -0.153412
   5 C :   -0.271406
   6 C :   -0.300017
   7 C :   -0.303812
   8 C :   -0.300023
   9 C :   -0.271484
  10 H :    0.174601
  11 H :    0.176212
  12 H :    0.176118
  13 H :    0.181994
  14 H :    0.169525
  15 H :    0.163351
  16 H :    0.156990
  17 H :    0.156360
  18 H :    0.155300
  19 H :    0.155719
  20 H :    0.156980
  21 H :    0.156353
  22 H :    0.169572
  23 H :    0.163312

  Mayer bond orders larger than 0.100000
B(  0-C ,  1-O ) :   0.8607 B(  0-C , 10-H ) :   0.9702 B(  0-C , 11-H ) :   0.9642
B(  0-C , 12-H ) :   0.9641 B(  1-O ,  2-C ) :   1.0014 B(  2-C ,  3-O ) :   1.8721
B(  2-C ,  4-C ) :   0.9979 B(  4-C ,  5-C ) :   0.9090 B(  4-C ,  9-C ) :   0.9088
B(  4-C , 13-H ) :   0.9538 B(  5-C ,  6-C ) :   0.8922 B(  5-C , 14-H ) :   0.9982
B(  5-C , 15-H ) :   0.9369 B(  6-C ,  7-C ) :   0.9158 B(  6-C , 16-H ) :   0.9444
B(  6-C , 17-H ) :   0.9909 B(  7-C ,  8-C ) :   0.9157 B(  7-C , 18-H ) :   0.9954
B(  7-C , 19-H ) :   0.9498 B(  8-C ,  9-C ) :   0.8920 B(  8-C , 20-H ) :   0.9443
B(  8-C , 21-H ) :   0.9910 B(  9-C , 22-H ) :   0.9981 B(  9-C , 23-H ) :   0.9369

Dispersion correction           -0.007622809
FINAL SINGLE POINT ENERGY      -463.636030385284

DIPOLE MOMENT
-------------

Method             : SCF
Type of density    : Electron Density
Multiplicity       :   1
Irrep              :   0
Energy             :  -463.6414691994590385 Eh
Relativity type    :
Basis              : AO
                                X                 Y                 Z
Electronic contribution:     -7.426892014      -0.155070091      -2.600659785
Nuclear contribution   :      7.812770595       0.172983813       3.365824616
                        -----------------------------------------
Total Dipole Moment    :      0.385878581       0.017913721       0.765164832
                        -----------------------------------------
Magnitude (a.u.)       :      0.857146662
Magnitude (Debye)      :      2.178693672

Rotational constants in cm-1:             0.091381             0.025297             0.024559
Rotational constants in MHz :          2739.522986           758.398215           736.253778

                             ****ORCA TERMINATED NORMALLY****
TOTAL RUN TIME: 0 days 0 hours 0 minutes 29 seconds 36 msec
