                         Program Version 6.0.0  -   RELEASE  -
|  1> ! r2SCAN-3c DEF2-TZVP FREQ
|  2> * xyzfile 0 1 censo.xyz
|  3>
|  4>                          ****END OF INPUT****

CARTESIAN COORDINATES (ANGSTROEM)
---------------------------------
  C     -2.800748   -0.828847    0.139187
  C     -1.951162    0.407266   -0.113741
  C     -0.463489    0.196448   -0.048758
  C      0.398002    1.271315   -0.312935
  N      1.724892    1.167071   -0.271450
  C      2.207937   -0.046166    0.042140
  C      1.369151   -1.114938    0.303540
  N      0.032237   -1.006595    0.261550
  H     -2.625125   -1.240041    1.137011
  H     -2.591354   -1.615647   -0.591005
  H     -3.860393   -0.569101    0.062437
  H     -2.207327    1.194214    0.607877
  H     -2.185258    0.831408   -1.098666
  H     -0.015796    2.245843   -0.565561
  H      3.287399   -0.162291    0.083597
  H      1.780247   -2.089973    0.554280

 Total Charge           Charge          ....    0
 Multiplicity           Mult            ....    1
 Number of Electrons    NEL             ....   58
 Basis Dimension        Dim             ....  296

ORBITAL ENERGIES
----------------

  NO   OCC          E(Eh)            E(eV)
   0   2.0000     -14.177444      -385.7879
   1   2.0000     -14.175452      -385.7337
   2   2.0000     -10.087165      -274.4857
   3   2.0000     -10.077856      -274.2324
   4   2.0000     -10.077724      -274.2288
   5   2.0000     -10.074623      -274.1444
   6   2.0000     -10.046446      -273.3777
   7   2.0000     -10.024055      -272.7684
   8   2.0000      -0.947096       -25.7718
   9   2.0000      -0.874719       -23.8023
  10   2.0000      -0.774299       -21.0698
  11   2.0000      -0.717002       -19.5106
  12   2.0000      -0.641991       -17.4695
  13   2.0000      -0.622875       -16.9493
  14   2.0000      -0.570042       -15.5116
  15   2.0000      -0.491600       -13.3771
  16   2.0000      -0.481906       -13.1133
  17   2.0000      -0.446987       -12.1631
  18   2.0000      -0.436271       -11.8715
  19   2.0000      -0.405592       -11.0367
  20   2.0000      -0.390839       -10.6353
  21   2.0000      -0.367729       -10.0064
  22   2.0000      -0.350664        -9.5421
  23   2.0000      -0.328895        -8.9497
  24   2.0000      -0.327200        -8.9036
  25   2.0000      -0.308113        -8.3842
  26   2.0000      -0.277271        -7.5449
  27   2.0000      -0.249475        -6.7886
  28   2.0000      -0.218844        -5.9551
  29   0.0000      -0.080864        -2.2004
  30   0.0000      -0.052030        -1.4158
  31   0.0000       0.044344         1.2067
  32   0.0000       0.075869         2.0645
  33   0.0000       0.078349         2.1320

MULLIKEN ATOMIC CHARGES
-----------------------
   0 C :   -0.289932
   1 C :   -0.149608
   2 C :    0.173322
   3 C :   -0.074458
   4 N :   -0.242984
   5 C :    0.000451
   6 C :   -0.019405
   7 N :   -0.270306
   8 H :    0.106954
   9 H :    0.105795
  10 H :    0.105672
  11 H :    0.102860
  12 H :    0.103172
  13 H :    0.116170
  14 H :    0.118591
  15 H :    0.113706
Sum of atomic charges:    0.0000000

LOEWDIN ATOMIC CHARGES
----------------------
   0 C :   -0.300632
   1 C :   -0.248914
   2 C :   -0.224286
   3 C :   -0.183572
   4 N :    0.141235
   5 C :   -0.218824
   6 C :   -0.210674
   7 N :    0.166725
   8 H :    0.123130
   9 H :    0.123008
  10 H :    0.118554
  11 H :    0.149666
  12 H :    0.149097
  13 H :    0.140523
  14 H :    0.137204
  15 H :    0.137760

  Mayer bond orders larger than 0.100000
B(  0-C ,  1-C ) :   1.0061 B(  0-C ,  8-H ) :   0.9708 B(  0-C ,  9-H ) :   0.9717
B(  0-C , 10-H ) :   0.9715 B(  1-C ,  2-C ) :   0.9701 B(  1-C , 11-H ) :   0.9512
B(  1-C , 12-H ) :   0.9561 B(  2-C ,  3-C ) :   1.3149 B(  2-C ,  7-N ) :   1.3848
B(  3-C ,  4-N ) :   1.5037 B(  3-C ,  6-C ) :   0.1019 B(  3-C , 13-H ) :   0.9867
B(  4-N ,  5-C ) :   1.3955 B(  5-C ,  6-C ) :   1.4064 B(  5-C , 14-H ) :   0.9688
B(  6-C ,  7-N ) :   1.4336 B(  6-C , 15-H ) :   0.9733

Dispersion correction           -0.004800219
FINAL SINGLE POINT ENERGY      -342.877952886770

DIPOLE MOMENT
-------------

Method             : SCF
Type of density    : Electron Density
Multiplicity       :   1
Irrep              :   0
Energy             :  -342.8826796761600235 Eh
Relativity type    :
Basis              : AO
                                X                 Y                 Z
Electronic contribution:      7.660698296       1.258232593      -0.161660977
Nuclear contribution   :     -7.972998371      -1.279623336       0.166624842
                        -----------------------------------------
Total Dipole Moment    :     -0.312300075      -0.021390744       0.004963864
                        -----------------------------------------
Magnitude (a.u.)       :      0.313071143
Magnitude (Debye)      :      0.795763605

VIBRATIONAL FREQUENCIES
-----------------------

Scaling factor for frequencies =  1.000000000  (already applied!)

     0:       0.00 cm**-1
     1:       0.00 cm**-1
     2:       0.00 cm**-1
     3:       0.00 cm**-1
     4:       0.00 cm**-1
     5:       0.00 cm**-1
     6:      -9.60 cm**-1 ***imaginary mode***
     7:     161.32 cm**-1
     8:     210.73 cm**-1
     9:     257.77 cm**-1
    10:     408.73 cm**-1
    11:     412.46 cm**-1
    12:     464.96 cm**-1
    13:     593.12 cm**-1
    14:     647.24 cm**-1
    15:     752.06 cm**-1
    16:     789.19 cm**-1
    17:     822.14 cm**-1
    18:     852.69 cm**-1
    19:     945.27 cm**-1
    20:     975.98 cm**-1
    21:     999.25 cm**-1
    22:    1035.12 cm**-1
    23:    1068.73 cm**-1
    24:    1078.58 cm**-1
    25:    1099.80 cm**-1
    26:    1190.60 cm**-1
    27:    1208.57 cm**-1
    28:    1260.03 cm**-1
    29:    1292.69 cm**-1
    30:    1307.97 cm**-1
    31:    1364.74 cm**-1
    32:    1409.62 cm**-1
    33:    1428.79 cm**-1
    34:    1455.63 cm**-1
    35:    1488.85 cm**-1
    36:    1490.47 cm**-1
    37:    1498.09 cm**-1
    38:    1550.70 cm**-1
    39:    1604.21 cm**-1
    40:    3001.97 cm**-1
    41:    3021.26 cm**-1
    42:    3032.44 cm**-1
    43:    3096.07 cm**-1
    44:    3103.73 cm**-1
    45:    3134.75 cm**-1
    46:    3142.43 cm**-1
    47:    3163.99 cm**-1

IR SPECTRUM
-----------

 Mode   freq       eps      Int      T**2         TX        TY        TZ
       cm**-1   L/(mol*cm) km/mol    a.u.
----------------------------------------------------------------------------
  7:    161.32   0.000208    1.05  0.000403  ( 0.000009  0.004889  0.019471)
  8:    210.73   0.000136    0.69  0.000202  (-0.009896  0.009544 -0.003584)
  9:    257.77   0.000018    0.09  0.000021  (-0.000096  0.001336  0.004426)
 10:    408.73   0.002694   13.62  0.002057  (-0.004173  0.008734  0.044311)
 11:    412.46   0.000514    2.60  0.000389  ( 0.010136  0.011089  0.012789)
 12:    464.96   0.000483    2.44  0.000324  ( 0.000485 -0.004512 -0.017422)
 13:    593.12   0.000132    0.67  0.000069  (-0.008273 -0.000969  0.000108)
 14:    647.24   0.000032    0.16  0.000015  ( 0.002367  0.003037 -0.000692)
 15:    752.06   0.000322    1.63  0.000134  ( 0.000263 -0.002344 -0.011316)
 16:    789.19   0.000898    4.54  0.000355  ( 0.000090  0.005009  0.018163)
 17:    822.14   0.000119    0.60  0.000045  ( 0.005815 -0.003188  0.001150)
 18:    852.69   0.003895   19.68  0.001425  ( 0.000811 -0.008931 -0.036673)
 19:    945.27   0.000028    0.14  0.000009  (-0.000243  0.000592  0.002975)
 20:    975.98   0.000002    0.01  0.000001  (-0.000188 -0.000010  0.000735)
 21:    999.25   0.000179    0.90  0.000056  (-0.007312  0.001495 -0.000472)
 22:   1035.12   0.004792   24.21  0.001445  ( 0.016789  0.033117 -0.008120)
 23:   1068.73   0.000574    2.90  0.000168  (-0.011080 -0.006483  0.001682)
 24:   1078.58   0.001550    7.84  0.000449  (-0.001787  0.020449 -0.005218)
 25:   1099.80   0.000016    0.08  0.000005  ( 0.001342 -0.000611 -0.001557)
 26:   1190.60   0.003573   18.06  0.000937  (-0.030602 -0.000009 -0.000262)
 27:   1208.57   0.002863   14.47  0.000739  ( 0.022709 -0.014477  0.003747)
 28:   1260.03   0.002761   13.95  0.000684  (-0.025971 -0.002951  0.000679)
 29:   1292.69   0.000001    0.00  0.000000  ( 0.000216  0.000324  0.000239)
 30:   1307.97   0.000625    3.16  0.000149  (-0.010030  0.006712 -0.001863)
 31:   1364.74   0.000388    1.96  0.000089  (-0.009252 -0.001729  0.000339)
 32:   1409.62   0.000727    3.67  0.000161  ( 0.006028  0.010947 -0.002186)
 33:   1428.79   0.004428   22.38  0.000967  (-0.024784  0.018196 -0.004681)
 34:   1455.63   0.003943   19.93  0.000845  (-0.024211  0.015608 -0.003931)
 35:   1488.85   0.001604    8.11  0.000336  (-0.000236  0.002836  0.018113)
 36:   1490.47   0.000187    0.95  0.000039  ( 0.000114 -0.006154 -0.001147)
 37:   1498.09   0.003767   19.04  0.000785  (-0.027473  0.005342 -0.001187)
 38:   1550.70   0.003473   17.55  0.000699  (-0.026341  0.002086 -0.000829)
 39:   1604.21   0.000477    2.41  0.000093  ( 0.009559  0.001185 -0.000302)
 40:   3001.97   0.002652   13.40  0.000276  (-0.000205 -0.016426  0.002421)
 41:   3021.26   0.005359   27.08  0.000554  ( 0.019610  0.012797 -0.002289)
 42:   3032.44   0.001577    7.97  0.000162  (-0.000354 -0.001537 -0.012641)
 43:   3096.07   0.005539   27.99  0.000558  ( 0.020775 -0.011251  0.000286)
 44:   3103.73   0.004490   22.69  0.000451  ( 0.001388  0.003183  0.020962)
 45:   3134.75   0.005613   28.37  0.000559  (-0.015011  0.017676 -0.004583)
 46:   3142.43   0.000908    4.59  0.000090  ( 0.002460 -0.008908  0.002190)
 47:   3163.99   0.006617   33.44  0.000653  (-0.022176  0.012233 -0.003347)

--------------------------
THERMOCHEMISTRY AT 298.15K
--------------------------

Temperature         ...   298.15 K
Pressure            ...     1.00 atm
Total Mass          ...   108.14 AMU
Quasi RRHO          ...     True
Cut-Off Frequency   ...     1.00 cm^-1

Throughout the following assumptions are being made:
  (1) The electronic state is orbitally nondegenerate
  (2) There are no thermally accessible electronically excited states
  (3) Hindered rotations indicated by low frequency modes are not
      treated as such but are treated as vibrations and this may
      cause some error
  (4) All equations used are the standard statistical mechanics
      equations for an ideal gas
  (5) All vibrations are strictly harmonic

freq.     161.32  E(vib)   ...       0.39
freq.     210.73  E(vib)   ...       0.34
freq.     257.77  E(vib)   ...       0.30
freq.     408.73  E(vib)   ...       0.19
freq.     412.46  E(vib)   ...       0.19
freq.     464.96  E(vib)   ...       0.16
freq.     593.12  E(vib)   ...       0.10
freq.     647.24  E(vib)   ...       0.09
freq.     752.06  E(vib)   ...       0.06
freq.     789.19  E(vib)   ...       0.05
freq.     822.14  E(vib)   ...       0.05
freq.     852.69  E(vib)   ...       0.04
freq.     945.27  E(vib)   ...       0.03
freq.     975.98  E(vib)   ...       0.03
freq.     999.25  E(vib)   ...       0.02
freq.    1035.12  E(vib)   ...       0.02
freq.    1068.73  E(vib)   ...       0.02
freq.    1078.58  E(vib)   ...       0.02
freq.    1099.80  E(vib)   ...       0.02
freq.    1190.60  E(vib)   ...       0.01
freq.    1208.57  E(vib)   ...       0.01
freq.    1260.03  E(vib)   ...       0.01
freq.    1292.69  E(vib)   ...       0.01
freq.    1307.97  E(vib)   ...       0.01
freq.    1364.74  E(vib)   ...       0.01
freq.    1409.62  E(vib)   ...       0.00
freq.    1428.79  E(vib)   ...       0.00
freq.    1455.63  E(vib)   ...       0.00
freq.    1488.85  E(vib)   ...       0.00
freq.    1490.47  E(vib)   ...       0.00
freq.    1498.09  E(vib)   ...       0.00
freq.    1550.70  E(vib)   ...       0.00
freq.    1604.21  E(vib)   ...       0.00
freq.    3001.97  E(vib)   ...       0.00
freq.    3021.26  E(vib)   ...       0.00
freq.    3032.44  E(vib)   ...       0.00
freq.    3096.07  E(vib)   ...       0.00
freq.    3103.73  E(vib)   ...       0.00
freq.    3134.75  E(vib)   ...       0.00
freq.    3142.43  E(vib)   ...       0.00
freq.    3163.99  E(vib)   ...       0.00

------------
INNER ENERGY
------------

The inner energy is: U= E(el) + E(ZPE) + E(vib) + E(rot) + E(trans)
    E(el)   - is the total energy from the electronic structure calculation
              = E(kin-el) + E(nuc-el) + E(el-el) + E(nuc-nuc)
    E(ZPE)  - the the zero temperature vibrational energy from the frequency calculation
    E(vib)  - the the finite temperature correction to E(ZPE) due to population
              of excited vibrational states
    E(rot)  - is the rotational thermal energy
    E(trans)- is the translational thermal energy

Summary of contributions to the inner energy U:
Electronic energy                ...   -342.87795289 Eh
Zero point energy                ...      0.13172992 Eh      82.66 kcal/mol
Thermal vibrational correction   ...      0.00345989 Eh       2.17 kcal/mol
Thermal rotational correction    ...      0.00141627 Eh       0.89 kcal/mol
Thermal translational correction ...      0.00141627 Eh       0.89 kcal/mol
-----------------------------------------------------------------------
Total thermal energy                   -342.73993053 Eh

Summary of corrections to the electronic energy:
(perhaps to be used in another calculation)
Total thermal correction                  0.00629243 Eh       3.95 kcal/mol
Non-thermal (ZPE) correction              0.13172992 Eh      82.66 kcal/mol
-----------------------------------------------------------------------
Total correction                          0.13802235 Eh      86.61 kcal/mol

--------
ENTHALPY
--------

The enthalpy is H = U + kB*T
                kB is Boltzmann's constant
Total thermal energy              ...   -342.73993053 Eh
Thermal Enthalpy correction       ...      0.00094421 Eh       0.59 kcal/mol
-----------------------------------------------------------------------
Total Enthalpy                    ...   -342.73898633 Eh

Note: Only C1 symmetry has been detected, increase convergence thresholds
      if your molecule has a higher symmetry. Symmetry factor of 1.0 is
      used for the rotational entropy correction.

Note: Rotational entropy computed according to Herzberg
Infrared and Raman Spectra, Chapter V,1, Van Nostrand Reinhold, 1945
Point Group:  C1, Symmetry Number:   1
Rotational constants in cm-1:     0.171299     0.051468     0.040167

Vibrational entropy computed according to the QRRHO of S. Grimme
Chem.Eur.J. 2012 18 9955 using a reference frequency of 100.0 cm-1

-------
ENTROPY
-------

The entropy contributions are T*S = T*(S(el)+S(vib)+S(rot)+S(trans))
     S(el)   - electronic entropy
     S(vib)  - vibrational entropy
     S(rot)  - rotational entropy
     S(trans)- translational entropy
The entropies will be listed as multiplied by the temperature to get
units of energy

Electronic entropy                ...      0.00000000 Eh      0.00 kcal/mol
Vibrational entropy               ...      0.00541385 Eh      3.40 kcal/mol
Rotational entropy                ...      0.01326197 Eh      8.32 kcal/mol
Translational entropy             ...      0.01898213 Eh     11.91 kcal/mol
-----------------------------------------------------------------------
Final entropy term                ...      0.03765794 Eh     23.63 kcal/mol

In case the symmetry of your molecule has not been determined correctly
or in case you have a reason to use a different symmetry number we print
out the resulting rotational entropy values for sn=1,12:

 non-linear molecules -----------------------------------
|  sn= 1 | S(rot)=       0.01326197 Eh      8.32 kcal/mol|
|  sn= 2 | S(rot)=       0.01260751 Eh      7.91 kcal/mol|
|  sn= 3 | S(rot)=       0.01222468 Eh      7.67 kcal/mol|
|  sn= 4 | S(rot)=       0.01195306 Eh      7.50 kcal/mol|
|  sn= 5 | S(rot)=       0.01174237 Eh      7.37 kcal/mol|
|  sn= 6 | S(rot)=       0.01157022 Eh      7.26 kcal/mol|
|  sn= 7 | S(rot)=       0.01142468 Eh      7.17 kcal/mol|
|  sn= 8 | S(rot)=       0.01129860 Eh      7.09 kcal/mol|
|  sn= 9 | S(rot)=       0.01118739 Eh      7.02 kcal/mol|
|  sn=10 | S(rot)=       0.01108791 Eh      6.96 kcal/mol|
|  sn=11 | S(rot)=       0.01099792 Eh      6.90 kcal/mol|
|  sn=12 | S(rot)=       0.01091577 Eh      6.85 kcal/mol|
 linear molecules ---------------------------------------
|  Dinfh | S(rot)=       0.00836108 Eh      5.25 kcal/mol|
|  Cinfv | S(rot)=       0.00901553 Eh      5.66 kcal/mol|
 --------------------------------------------------------

-------------------

                             ****ORCA TERMINATED NORMALLY****
TOTAL RUN TIME: 0 days 0 hours 10 minutes 9 seconds 78 msec
