                         Program Version 6.0.0  -   RELEASE  -
|  1> ! r2SCAN-3c DEF2-TZVP FREQ
|  2> * xyzfile 0 1 vacuum_censo.xyz
|  3>
|  4>                          ****END OF INPUT****

CARTESIAN COORDINATES (ANGSTROEM)
---------------------------------
  C      2.761493   -0.425642    0.573261
  C      1.935221    0.165888   -0.575548
  C      0.461196    0.089559   -0.297170
  C     -0.312848    1.231967   -0.064613
  N     -1.617620    1.178857    0.205474
  C     -2.159668   -0.040372    0.243594
  C     -1.400776   -1.184289    0.012638
  N     -0.095978   -1.128901   -0.256218
  H      2.471219   -1.464387    0.750440
  H      2.601480    0.136905    1.498299
  H      3.828567   -0.398318    0.335656
  H      2.142141   -0.390915   -1.496651
  H      2.219944    1.208968   -0.750355
  H      0.142715    2.221148   -0.100300
  H     -3.224027   -0.107258    0.460595
  H     -1.858327   -2.172082    0.043544

 Total Charge           Charge          ....    0
 Multiplicity           Mult            ....    1
 Number of Electrons    NEL             ....   58
 Basis Dimension        Dim             ....  296

ORBITAL ENERGIES
----------------

  NO   OCC          E(Eh)            E(eV)
   0   2.0000     -14.177963      -385.8020
   1   2.0000     -14.176373      -385.7587
   2   2.0000     -10.086023      -274.4546
   3   2.0000     -10.079955      -274.2895
   4   2.0000     -10.078130      -274.2399
   5   2.0000     -10.076896      -274.2063
   6   2.0000     -10.044066      -273.3129
   7   2.0000     -10.029097      -272.9056
   8   2.0000      -0.949448       -25.8358
   9   2.0000      -0.877423       -23.8759
  10   2.0000      -0.774223       -21.0677
  11   2.0000      -0.716786       -19.5047
  12   2.0000      -0.636417       -17.3178
  13   2.0000      -0.627757       -17.0821
  14   2.0000      -0.573515       -15.6061
  15   2.0000      -0.494323       -13.4512
  16   2.0000      -0.484400       -13.1812
  17   2.0000      -0.449125       -12.2213
  18   2.0000      -0.421651       -11.4737
  19   2.0000      -0.406063       -11.0495
  20   2.0000      -0.399279       -10.8649
  21   2.0000      -0.372480       -10.1357
  22   2.0000      -0.354174        -9.6376
  23   2.0000      -0.329797        -8.9742
  24   2.0000      -0.325228        -8.8499
  25   2.0000      -0.306845        -8.3497
  26   2.0000      -0.279579        -7.6077
  27   2.0000      -0.252325        -6.8661
  28   2.0000      -0.219537        -5.9739
  29   0.0000      -0.084358        -2.2955
  30   0.0000      -0.050600        -1.3769
  31   0.0000       0.051173         1.3925
  32   0.0000       0.080816         2.1991
  33   0.0000       0.083468         2.2713

MULLIKEN ATOMIC CHARGES
-----------------------
   0 C :   -0.335691
   1 C :   -0.127814
   2 C :    0.196779
   3 C :   -0.061699
   4 N :   -0.243633
   5 C :    0.002171
   6 C :   -0.014299
   7 N :   -0.283165
   8 H :    0.124906
   9 H :    0.103387
  10 H :    0.108681
  11 H :    0.096400
  12 H :    0.087214
  13 H :    0.113204
  14 H :    0.118976
  15 H :    0.114582
Sum of atomic charges:    0.0000000

LOEWDIN ATOMIC CHARGES
----------------------
   0 C :   -0.295634
   1 C :   -0.242597
   2 C :   -0.226060
   3 C :   -0.185255
   4 N :    0.143106
   5 C :   -0.218158
   6 C :   -0.209787
   7 N :    0.169906
   8 H :    0.124566
   9 H :    0.119239
  10 H :    0.118859
  11 H :    0.147181
  12 H :    0.139055
  13 H :    0.140117
  14 H :    0.137509
  15 H :    0.137952

  Mayer bond orders larger than 0.100000
B(  0-C ,  1-C ) :   0.9679 B(  0-C ,  8-H ) :   0.9734 B(  0-C ,  9-H ) :   0.9722
B(  0-C , 10-H ) :   0.9710 B(  1-C ,  2-C ) :   0.9581 B(  1-C , 11-H ) :   0.9517
B(  1-C , 12-H ) :   0.9746 B(  2-C ,  3-C ) :   1.3589 B(  2-C ,  7-N ) :   1.3476
B(  3-C ,  4-N ) :   1.4708 B(  3-C ,  6-C ) :   0.1008 B(  3-C , 13-H ) :   0.9789
B(  4-N ,  5-C ) :   1.4290 B(  5-C ,  6-C ) :   1.3760 B(  5-C , 14-H ) :   0.9684
B(  6-C ,  7-N ) :   1.4707 B(  6-C , 15-H ) :   0.9707

Dispersion correction           -0.004834140
FINAL SINGLE POINT ENERGY      -342.879154221511

DIPOLE MOMENT
-------------

Method             : SCF
Type of density    : Electron Density
Multiplicity       :   1
Irrep              :   0
Energy             :  -342.8838860663354922 Eh
Relativity type    :
Basis              : AO
                                X                 Y                 Z
Electronic contribution:     -7.546334781       0.674842897      -0.810863359
Nuclear contribution   :      7.812358603      -0.750925098       0.782618500
                        -----------------------------------------
Total Dipole Moment    :      0.266023821      -0.076082200      -0.028244858
                        -----------------------------------------
Magnitude (a.u.)       :      0.278127573
Magnitude (Debye)      :      0.706944108

VIBRATIONAL FREQUENCIES
-----------------------

Scaling factor for frequencies =  1.000000000  (already applied!)

     0:       0.00 cm**-1
     1:       0.00 cm**-1
     2:       0.00 cm**-1
     3:       0.00 cm**-1
     4:       0.00 cm**-1
     5:       0.00 cm**-1
     6:      56.45 cm**-1
     7:     137.09 cm**-1
     8:     228.92 cm**-1
     9:     279.66 cm**-1
    10:     371.85 cm**-1
    11:     411.62 cm**-1
    12:     512.48 cm**-1
    13:     597.22 cm**-1
    14:     647.85 cm**-1
    15:     784.46 cm**-1
    16:     799.26 cm**-1
    17:     826.17 cm**-1
    18:     857.39 cm**-1
    19:     951.03 cm**-1
    20:     978.30 cm**-1
    21:     981.93 cm**-1
    22:    1033.36 cm**-1
    23:    1066.41 cm**-1
    24:    1079.65 cm**-1
    25:    1083.99 cm**-1
    26:    1198.84 cm**-1
    27:    1228.20 cm**-1
    28:    1250.83 cm**-1
    29:    1276.10 cm**-1
    30:    1329.78 cm**-1
    31:    1353.92 cm**-1
    32:    1394.20 cm**-1
    33:    1431.54 cm**-1
    34:    1474.37 cm**-1
    35:    1489.74 cm**-1
    36:    1496.22 cm**-1
    37:    1503.75 cm**-1
    38:    1559.55 cm**-1
    39:    1601.92 cm**-1
    40:    3015.26 cm**-1
    41:    3020.62 cm**-1
    42:    3065.99 cm**-1
    43:    3094.71 cm**-1
    44:    3108.21 cm**-1
    45:    3125.41 cm**-1
    46:    3127.12 cm**-1
    47:    3147.02 cm**-1

IR SPECTRUM
-----------

 Mode   freq       eps      Int      T**2         TX        TY        TZ
       cm**-1   L/(mol*cm) km/mol    a.u.
----------------------------------------------------------------------------
  6:     56.45   0.000016    0.08  0.000091  ( 0.006231  0.003670  0.006209)
  7:    137.09   0.000106    0.54  0.000241  ( 0.001519 -0.003164  0.015138)
  8:    228.92   0.000038    0.19  0.000051  ( 0.003463  0.005676  0.002689)
  9:    279.66   0.000084    0.42  0.000093  ( 0.003212  0.004134  0.008118)
 10:    371.85   0.000155    0.78  0.000130  ( 0.005402 -0.010005 -0.000767)
 11:    411.62   0.003603   18.21  0.002731  ( 0.012625 -0.002232  0.050664)
 12:    512.48   0.000072    0.37  0.000044  ( 0.003518  0.000650 -0.005592)
 13:    597.22   0.000030    0.15  0.000016  (-0.001647  0.003373  0.001308)
 14:    647.85   0.000065    0.33  0.000031  ( 0.005382 -0.001384 -0.000588)
 15:    784.46   0.000802    4.05  0.000319  (-0.005141 -0.002870 -0.016860)
 16:    799.26   0.000657    3.32  0.000256  ( 0.003828 -0.009383  0.012395)
 17:    826.17   0.000175    0.89  0.000066  ( 0.004470  0.002132  0.006461)
 18:    857.39   0.002864   14.47  0.001042  ( 0.002013 -0.000805  0.032211)
 19:    951.03   0.000037    0.19  0.000012  (-0.001932  0.000177  0.002899)
 20:    978.30   0.000344    1.74  0.000110  (-0.009997  0.000769  0.003039)
 21:    981.93   0.000014    0.07  0.000005  ( 0.002025 -0.000561 -0.000392)
 22:   1033.36   0.003754   18.97  0.001134  ( 0.012842 -0.030635 -0.005510)
 23:   1066.41   0.001693    8.56  0.000495  (-0.007225  0.020946  0.002122)
 24:   1079.65   0.000803    4.06  0.000232  (-0.009085  0.012207 -0.000675)
 25:   1083.99   0.002550   12.89  0.000734  ( 0.023733  0.013073 -0.000172)
 26:   1198.84   0.002479   12.53  0.000645  ( 0.023553 -0.008280 -0.004686)
 27:   1228.20   0.001585    8.01  0.000403  (-0.016591 -0.011158  0.001750)
 28:   1250.83   0.002178   11.01  0.000543  (-0.023100  0.002230  0.002179)
 29:   1276.10   0.000020    0.10  0.000005  (-0.001026 -0.001800  0.000713)
 30:   1329.78   0.000891    4.50  0.000209  (-0.012925 -0.005350  0.003668)
 31:   1353.92   0.000430    2.17  0.000099  (-0.009774 -0.001697  0.000805)
 32:   1394.20   0.000746    3.77  0.000167  ( 0.003888  0.007949 -0.009421)
 33:   1431.54   0.007375   37.27  0.001608  ( 0.037204  0.014419 -0.003961)
 34:   1474.37   0.000655    3.31  0.000139  ( 0.004082  0.005889 -0.009347)
 35:   1489.74   0.002154   10.88  0.000451  ( 0.002336  0.020447  0.005259)
 36:   1496.22   0.000678    3.42  0.000141  (-0.010175  0.001598 -0.005938)
 37:   1503.75   0.003361   16.98  0.000697  (-0.024628 -0.001959  0.009328)
 38:   1559.55   0.001508    7.62  0.000302  (-0.017278 -0.001780 -0.000069)
 39:   1601.92   0.001215    6.14  0.000237  ( 0.015062 -0.001891 -0.002509)
 40:   3015.26   0.005340   26.98  0.000553  ( 0.020792 -0.000948  0.010928)
 41:   3020.62   0.004884   24.68  0.000505  ( 0.001387  0.009491 -0.020313)
 42:   3065.99   0.001174    5.93  0.000119  ( 0.004845  0.009796  0.000234)
 43:   3094.71   0.006683   33.77  0.000674  ( 0.017796 -0.010627 -0.015628)
 44:   3108.21   0.003921   19.82  0.000394  ( 0.011653  0.016037  0.000862)
 45:   3125.41   0.006886   34.80  0.000688  ( 0.016422  0.020349 -0.001957)
 46:   3127.12   0.000241    1.22  0.000024  ( 0.004438 -0.001622 -0.001325)
 47:   3147.02   0.006525   32.98  0.000647  ( 0.022293  0.011816 -0.003231)

--------------------------
THERMOCHEMISTRY AT 298.15K
--------------------------

Temperature         ...   298.15 K
Pressure            ...     1.00 atm
Total Mass          ...   108.14 AMU
Quasi RRHO          ...     True
Cut-Off Frequency   ...     1.00 cm^-1

Throughout the following assumptions are being made:
  (1) The electronic state is orbitally nondegenerate
  (2) There are no thermally accessible electronically excited states
  (3) Hindered rotations indicated by low frequency modes are not
      treated as such but are treated as vibrations and this may
      cause some error
  (4) All equations used are the standard statistical mechanics
      equations for an ideal gas
  (5) All vibrations are strictly harmonic

freq.      56.45  E(vib)   ...       0.52
freq.     137.09  E(vib)   ...       0.42
freq.     228.92  E(vib)   ...       0.32
freq.     279.66  E(vib)   ...       0.28
freq.     371.85  E(vib)   ...       0.21
freq.     411.62  E(vib)   ...       0.19
freq.     512.48  E(vib)   ...       0.13
freq.     597.22  E(vib)   ...       0.10
freq.     647.85  E(vib)   ...       0.09
freq.     784.46  E(vib)   ...       0.05
freq.     799.26  E(vib)   ...       0.05
freq.     826.17  E(vib)   ...       0.04
freq.     857.39  E(vib)   ...       0.04
freq.     951.03  E(vib)   ...       0.03
freq.     978.30  E(vib)   ...       0.03
freq.     981.93  E(vib)   ...       0.02
freq.    1033.36  E(vib)   ...       0.02
freq.    1066.41  E(vib)   ...       0.02
freq.    1079.65  E(vib)   ...       0.02
freq.    1083.99  E(vib)   ...       0.02
freq.    1198.84  E(vib)   ...       0.01
freq.    1228.20  E(vib)   ...       0.01
freq.    1250.83  E(vib)   ...       0.01
freq.    1276.10  E(vib)   ...       0.01
freq.    1329.78  E(vib)   ...       0.01
freq.    1353.92  E(vib)   ...       0.01
freq.    1394.20  E(vib)   ...       0.00
freq.    1431.54  E(vib)   ...       0.00
freq.    1474.37  E(vib)   ...       0.00
freq.    1489.74  E(vib)   ...       0.00
freq.    1496.22  E(vib)   ...       0.00
freq.    1503.75  E(vib)   ...       0.00
freq.    1559.55  E(vib)   ...       0.00
freq.    1601.92  E(vib)   ...       0.00
freq.    3015.26  E(vib)   ...       0.00
freq.    3020.62  E(vib)   ...       0.00
freq.    3065.99  E(vib)   ...       0.00
freq.    3094.71  E(vib)   ...       0.00
freq.    3108.21  E(vib)   ...       0.00
freq.    3125.41  E(vib)   ...       0.00
freq.    3127.12  E(vib)   ...       0.00
freq.    3147.02  E(vib)   ...       0.00

------------
INNER ENERGY
------------

The inner energy is: U= E(el) + E(ZPE) + E(vib) + E(rot) + E(trans)
    E(el)   - is the total energy from the electronic structure calculation
              = E(kin-el) + E(nuc-el) + E(el-el) + E(nuc-nuc)
    E(ZPE)  - the the zero temperature vibrational energy from the frequency calculation
    E(vib)  - the the finite temperature correction to E(ZPE) due to population
              of excited vibrational states
    E(rot)  - is the rotational thermal energy
    E(trans)- is the translational thermal energy

Summary of contributions to the inner energy U:
Electronic energy                ...   -342.87915422 Eh
Zero point energy                ...      0.13208448 Eh      82.88 kcal/mol
Thermal vibrational correction   ...      0.00425161 Eh       2.67 kcal/mol
Thermal rotational correction    ...      0.00141627 Eh       0.89 kcal/mol
Thermal translational correction ...      0.00141627 Eh       0.89 kcal/mol
-----------------------------------------------------------------------
Total thermal energy                   -342.73998559 Eh

Summary of corrections to the electronic energy:
(perhaps to be used in another calculation)
Total thermal correction                  0.00708415 Eh       4.45 kcal/mol
Non-thermal (ZPE) correction              0.13208448 Eh      82.88 kcal/mol
-----------------------------------------------------------------------
Total correction                          0.13916863 Eh      87.33 kcal/mol

--------
ENTHALPY
--------

The enthalpy is H = U + kB*T
                kB is Boltzmann's constant
Total thermal energy              ...   -342.73998559 Eh
Thermal Enthalpy correction       ...      0.00094421 Eh       0.59 kcal/mol
-----------------------------------------------------------------------
Total Enthalpy                    ...   -342.73904138 Eh

Note: Only C1 symmetry has been detected, increase convergence thresholds
      if your molecule has a higher symmetry. Symmetry factor of 1.0 is
      used for the rotational entropy correction.

Note: Rotational entropy computed according to Herzberg
Infrared and Raman Spectra, Chapter V,1, Van Nostrand Reinhold, 1945
Point Group:  C1, Symmetry Number:   1
Rotational constants in cm-1:     0.161303     0.051627     0.042484

Vibrational entropy computed according to the QRRHO of S. Grimme
Chem.Eur.J. 2012 18 9955 using a reference frequency of 100.0 cm-1

-------
ENTROPY
-------

The entropy contributions are T*S = T*(S(el)+S(vib)+S(rot)+S(trans))
     S(el)   - electronic entropy
     S(vib)  - vibrational entropy
     S(rot)  - rotational entropy
     S(trans)- translational entropy
The entropies will be listed as multiplied by the temperature to get
units of energy

Electronic entropy                ...      0.00000000 Eh      0.00 kcal/mol
Vibrational entropy               ...      0.00706444 Eh      4.43 kcal/mol
Rotational entropy                ...      0.01326243 Eh      8.32 kcal/mol
Translational entropy             ...      0.01898213 Eh     11.91 kcal/mol
-----------------------------------------------------------------------
Final entropy term                ...      0.03930899 Eh     24.67 kcal/mol

In case the symmetry of your molecule has not been determined correctly
or in case you have a reason to use a different symmetry number we print
out the resulting rotational entropy values for sn=1,12:

 non-linear molecules -----------------------------------
|  sn= 1 | S(rot)=       0.01326243 Eh      8.32 kcal/mol|
|  sn= 2 | S(rot)=       0.01260797 Eh      7.91 kcal/mol|
|  sn= 3 | S(rot)=       0.01222514 Eh      7.67 kcal/mol|
|  sn= 4 | S(rot)=       0.01195352 Eh      7.50 kcal/mol|
|  sn= 5 | S(rot)=       0.01174283 Eh      7.37 kcal/mol|
|  sn= 6 | S(rot)=       0.01157068 Eh      7.26 kcal/mol|
|  sn= 7 | S(rot)=       0.01142514 Eh      7.17 kcal/mol|
|  sn= 8 | S(rot)=       0.01129906 Eh      7.09 kcal/mol|
|  sn= 9 | S(rot)=       0.01118785 Eh      7.02 kcal/mol|
|  sn=10 | S(rot)=       0.01108837 Eh      6.96 kcal/mol|
|  sn=11 | S(rot)=       0.01099838 Eh      6.90 kcal/mol|
|  sn=12 | S(rot)=       0.01091623 Eh      6.85 kcal/mol|
 linear molecules ---------------------------------------
|  Dinfh | S(rot)=       0.00830813 Eh      5.21 kcal/mol|
|  Cinfv | S(rot)=       0.00896259 Eh      5.62 kcal/mol|
 --------------------------------------------------------

                             ****ORCA TERMINATED NORMALLY****
TOTAL RUN TIME: 0 days 0 hours 10 minutes 8 seconds 89 msec
