                         Program Version 6.0.1  -  RELEASE   -
|  1> ! r2scan-3c def2/J RI DEFGRID2 scfconv6 printgap
|  2> %output
|  3>     printlevel normal
|  4> end
|  5> * xyz 0 1
|  6> C 1.0515697089 1.2529659549 -0.2312329781
|  7> C 0.5211205898 0.0076484458 0.4845597317
|  8> C 1.0162974779 -1.2608828455 -0.2130295081
|  9> C -0.9847800715 0.0449772695 0.5526531151
| 10> C -1.7884870486 -0.042217423 -0.4907847684
| 11> H 2.1393836769 1.247684734 -0.2442846868
| 12> H 0.7154232487 2.1552548599 0.2750496013
| 13> H 0.6926886175 1.282182782 -1.2570229098
| 14> H 0.9130478887 0.0087319221 1.5073949739
| 15> H 0.691159698 -1.2813670315 -1.2497356182
| 16> H 2.1033362114 -1.3013974257 -0.1929104193
| 17> H 0.6274257815 -2.1455378197 0.2865416915
| 18> H -1.4096636256 0.1650368503 1.540800604
| 19> H -2.8596413288 -0.0018429057 -0.3879619472
| 20> H -1.4171296132 -0.1584356435 -1.4953640247
| 21> *
| 22>
| 23>                          ****END OF INPUT****

CARTESIAN COORDINATES (ANGSTROEM)
---------------------------------
  C      1.051570    1.252966   -0.231233
  C      0.521121    0.007648    0.484560
  C      1.016297   -1.260883   -0.213030
  C     -0.984780    0.044977    0.552653
  C     -1.788487   -0.042217   -0.490785
  H      2.139384    1.247685   -0.244285
  H      0.715423    2.155255    0.275050
  H      0.692689    1.282183   -1.257023
  H      0.913048    0.008732    1.507395
  H      0.691160   -1.281367   -1.249736
  H      2.103336   -1.301397   -0.192910
  H      0.627426   -2.145538    0.286542
  H     -1.409664    0.165037    1.540801
  H     -2.859641   -0.001843   -0.387962
  H     -1.417130   -0.158436   -1.495364

 Total Charge           Charge          ....    0
 Multiplicity           Mult            ....    1
 Number of Electrons    NEL             ....   40
 Basis Dimension        Dim             ....  145

ORBITAL ENERGIES
----------------

  NO   OCC          E(Eh)            E(eV)
   0   2.0000     -10.039220      -273.1811
   1   2.0000     -10.030569      -272.9457
   2   2.0000     -10.017528      -272.5908
   3   2.0000     -10.016894      -272.5735
   4   2.0000     -10.016627      -272.5663
   5   2.0000      -0.783075       -21.3085
   6   2.0000      -0.702195       -19.1077
   7   2.0000      -0.650295       -17.6954
   8   2.0000      -0.583273       -15.8717
   9   2.0000      -0.497657       -13.5419
  10   2.0000      -0.456357       -12.4181
  11   2.0000      -0.408975       -11.1288
  12   2.0000      -0.384963       -10.4754
  13   2.0000      -0.378467       -10.2986
  14   2.0000      -0.359288        -9.7767
  15   2.0000      -0.353643        -9.6231
  16   2.0000      -0.311853        -8.4860
  17   2.0000      -0.300322        -8.1722
  18   2.0000      -0.288490        -7.8502
  19   2.0000      -0.234281        -6.3751
  20   0.0000      -0.016500        -0.4490
  21   0.0000       0.089822         2.4442
  22   0.0000       0.121157         3.2969
  23   0.0000       0.132918         3.6169
  24   0.0000       0.138658         3.7731

MULLIKEN ATOMIC CHARGES
-----------------------
   0 C :   -0.461795
   1 C :   -0.038596
   2 C :   -0.464344
   3 C :   -0.127179
   4 C :   -0.362443
   5 H :    0.140987
   6 H :    0.148701
   7 H :    0.148959
   8 H :    0.138857
   9 H :    0.143070
  10 H :    0.142243
  11 H :    0.152266
  12 H :    0.156411
  13 H :    0.146208
  14 H :    0.136655
Sum of atomic charges:    0.0000000

LOEWDIN ATOMIC CHARGES
----------------------
   0 C :   -0.402441
   1 C :   -0.245607
   2 C :   -0.405088
   3 C :   -0.190041
   4 C :   -0.309883
   5 H :    0.150885
   6 H :    0.156102
   7 H :    0.154556
   8 H :    0.156514
   9 H :    0.153119
  10 H :    0.151412
  11 H :    0.157022
  12 H :    0.161692
  13 H :    0.157567
  14 H :    0.154191

  Mayer bond orders larger than 0.100000
B(  0-C ,  1-C ) :   0.9260 B(  0-C ,  5-H ) :   0.9736 B(  0-C ,  6-H ) :   0.9721
B(  0-C ,  7-H ) :   0.9787 B(  1-C ,  2-C ) :   0.9265 B(  1-C ,  3-C ) :   0.9098
B(  1-C ,  8-H ) :   0.9705 B(  2-C ,  9-H ) :   0.9766 B(  2-C , 10-H ) :   0.9747
B(  2-C , 11-H ) :   0.9737 B(  3-C ,  4-C ) :   1.9167 B(  3-C , 12-H ) :   0.9477
B(  4-C , 13-H ) :   0.9551 B(  4-C , 14-H ) :   0.9927

Dispersion correction           -0.003513555
FINAL SINGLE POINT ENERGY      -196.455896458241

DIPOLE MOMENT
-------------

Method             : SCF
Type of density    : Electron Density
Multiplicity       :   1
Irrep              :   0
Energy             :  -196.4584153280081296 Eh
Relativity type    :
Basis              : AO
                                X                 Y                 Z
Electronic contribution:     -1.929891095       0.039982127       1.219479195
Nuclear contribution   :      2.060234700      -0.027853758      -1.142206685
                        -----------------------------------------
Total Dipole Moment    :      0.130343605       0.012128369       0.077272510
                        -----------------------------------------
Magnitude (a.u.)       :      0.152011821
Magnitude (Debye)      :      0.386383342

Rotational constants in cm-1:             0.224800             0.135769             0.107311
Rotational constants in MHz :          6739.343323          4070.244595          3217.116368

                             ****ORCA TERMINATED NORMALLY****
TOTAL RUN TIME: 0 days 0 hours 0 minutes 21 seconds 303 msec
