                         Program Version 6.0.1  -  RELEASE   -
|  1> ! pbe def2-sv(p) def2/J RI DEFGRID1 loosescf d4 GCP(DFT/SV(P)) printgap
|  2> %output
|  3>     printlevel normal
|  4> end
|  5> * xyz 0 1
|  6> C -1.7891116434 -1.0113059054 -0.7140568596
|  7> C -1.0376746842 -0.4444252283 0.5126860039
|  8> H -1.7167505597 -0.5281181534 1.3756841441
|  9> C -0.6902185118 1.0443189133 0.3300851129
| 10> H -1.5159332748 1.520561909 -0.218597929
| 11> C 0.6043223861 1.2496713966 -0.4758648036
| 12> H 0.893190104 2.3027270617 -0.3461309147
| 13> C 1.7353814388 0.3631455141 0.0850898534
| 14> H 2.5999416898 0.3980855551 -0.5904303806
| 15> C 1.2498087526 -1.1042273395 0.141200597
| 16> H 1.9780387128 -1.7122425834 0.6901134565
| 17> O 0.073658058 -1.2258779114 0.9059991668
| 18> O 1.1467511019 -1.6523950026 -1.1314714655
| 19> O 2.1857719676 0.8242929752 1.3234899698
| 20> O 0.3435076141 0.9617162354 -1.8362638673
| 21> O -0.4813284791 1.6854466808 1.5726703771
| 22> O -3.1651600874 -0.7271760218 -0.6482858357
| 23> H -1.6023495136 -2.0906989052 -0.766137637
| 24> H -1.4432630186 -0.5383984199 -1.6343394212
| 25> H 0.66835106 -1.0309369552 -1.7025276313
| 26> H 1.4121503198 0.9787723152 1.8865479544
| 27> H 1.0710414315 1.3001271057 -2.3702386158
| 28> H -1.2826465904 1.6169387869 2.1034581788
| 29> H -3.5640338022 -1.2478613183 0.0581120125
| 30> *
| 31>
| 32>                          ****END OF INPUT****

CARTESIAN COORDINATES (ANGSTROEM)
---------------------------------
  C     -1.789112   -1.011306   -0.714057
  C     -1.037675   -0.444425    0.512686
  H     -1.716751   -0.528118    1.375684
  C     -0.690219    1.044319    0.330085
  H     -1.515933    1.520562   -0.218598
  C      0.604322    1.249671   -0.475865
  H      0.893190    2.302727   -0.346131
  C      1.735381    0.363146    0.085090
  H      2.599942    0.398086   -0.590430
  C      1.249809   -1.104227    0.141201
  H      1.978039   -1.712243    0.690113
  O      0.073658   -1.225878    0.905999
  O      1.146751   -1.652395   -1.131471
  O      2.185772    0.824293    1.323490
  O      0.343508    0.961716   -1.836264
  O     -0.481328    1.685447    1.572670
  O     -3.165160   -0.727176   -0.648286
  H     -1.602350   -2.090699   -0.766138
  H     -1.443263   -0.538398   -1.634339
  H      0.668351   -1.030937   -1.702528
  H      1.412150    0.978772    1.886548
  H      1.071041    1.300127   -2.370239
  H     -1.282647    1.616939    2.103458
  H     -3.564034   -1.247861    0.058112

 Total Charge           Charge          ....    0
 Multiplicity           Mult            ....    1
 Number of Electrons    NEL             ....   96
 Basis Dimension        Dim             ....  192

ORBITAL ENERGIES
----------------

  NO   OCC          E(Eh)            E(eV)
   0   2.0000     -18.789911      -511.2995
   1   2.0000     -18.778678      -510.9938
   2   2.0000     -18.761947      -510.5385
   3   2.0000     -18.753963      -510.3213
   4   2.0000     -18.747489      -510.1451
   5   2.0000     -18.740076      -509.9434
   6   2.0000      -9.973971      -271.4055
   7   2.0000      -9.959267      -271.0054
   8   2.0000      -9.958526      -270.9853
   9   2.0000      -9.949760      -270.7467
  10   2.0000      -9.939825      -270.4764
  11   2.0000      -9.931440      -270.2482
  12   2.0000      -0.981398       -26.7052
  13   2.0000      -0.958693       -26.0874
  14   2.0000      -0.952414       -25.9165
  15   2.0000      -0.930826       -25.3291
  16   2.0000      -0.920241       -25.0410
  17   2.0000      -0.904956       -24.6251
  18   2.0000      -0.713965       -19.4280
  19   2.0000      -0.687404       -18.7052
  20   2.0000      -0.620917       -16.8960
  21   2.0000      -0.591448       -16.0941
  22   2.0000      -0.577800       -15.7227
  23   2.0000      -0.533265       -14.5109
  24   2.0000      -0.513330       -13.9684
  25   2.0000      -0.494973       -13.4689
  26   2.0000      -0.471037       -12.8176
  27   2.0000      -0.467688       -12.7264
  28   2.0000      -0.447341       -12.1728
  29   2.0000      -0.426150       -11.5961
  30   2.0000      -0.424244       -11.5443
  31   2.0000      -0.402615       -10.9557
  32   2.0000      -0.394049       -10.7226
  33   2.0000      -0.385891       -10.5006
  34   2.0000      -0.366428        -9.9710
  35   2.0000      -0.352438        -9.5903
  36   2.0000      -0.329554        -8.9676
  37   2.0000      -0.323522        -8.8035
  38   2.0000      -0.304900        -8.2967
  39   2.0000      -0.301705        -8.2098
  40   2.0000      -0.296041        -8.0557
  41   2.0000      -0.268939        -7.3182
  42   2.0000      -0.258565        -7.0359
  43   2.0000      -0.247988        -6.7481
  44   2.0000      -0.245861        -6.6902
  45   2.0000      -0.238859        -6.4997
  46   2.0000      -0.208464        -5.6726
  47   2.0000      -0.196861        -5.3568
  48   0.0000      -0.004534        -0.1234
  49   0.0000       0.010369         0.2821
  50   0.0000       0.023619         0.6427
  51   0.0000       0.054611         1.4860
  52   0.0000       0.067170         1.8278

MULLIKEN ATOMIC CHARGES
-----------------------
   0 C :   -0.004587
   1 C :    0.031977
   2 H :    0.040221
   3 C :    0.046573
   4 H :    0.089734
   5 C :   -0.003571
   6 H :    0.090457
   7 C :    0.030975
   8 H :    0.067911
   9 C :    0.202702
  10 H :    0.073703
  11 O :   -0.300561
  12 O :   -0.408382
  13 O :   -0.418659
  14 O :   -0.409897
  15 O :   -0.422519
  16 O :   -0.434693
  17 H :    0.096933
  18 H :    0.104170
  19 H :    0.299896
  20 H :    0.301061
  21 H :    0.318611
  22 H :    0.311753
  23 H :    0.296193
Sum of atomic charges:   -0.0000000

LOEWDIN ATOMIC CHARGES
----------------------
   0 C :   -0.152613
   1 C :   -0.081747
   2 H :    0.104349
   3 C :   -0.067553
   4 H :    0.115652
   5 C :   -0.072593
   6 H :    0.114044
   7 C :   -0.095625
   8 H :    0.111686
   9 C :   -0.008166
  10 H :    0.112237
  11 O :   -0.141491
  12 O :   -0.310528
  13 O :   -0.313703
  14 O :   -0.304679
  15 O :   -0.308150
  16 O :   -0.333872
  17 H :    0.106546
  18 H :    0.116020
  19 H :    0.265347
  20 H :    0.271884
  21 H :    0.298467
  22 H :    0.292090
  23 H :    0.282400

  Mayer bond orders larger than 0.100000
B(  0-C ,  1-C ) :   1.0047 B(  0-C , 16-O ) :   1.0451 B(  0-C , 17-H ) :   0.9126
B(  0-C , 18-H ) :   0.9025 B(  1-C ,  2-H ) :   0.8963 B(  1-C ,  3-C ) :   0.9835
B(  1-C , 11-O ) :   1.0358 B(  3-C ,  4-H ) :   0.8886 B(  3-C ,  5-C ) :   1.0176
B(  3-C , 15-O ) :   1.0101 B(  5-C ,  6-H ) :   0.8999 B(  5-C ,  7-C ) :   0.9744
B(  5-C , 14-O ) :   1.0268 B(  7-C ,  8-H ) :   0.8967 B(  7-C ,  9-C ) :   0.9754
B(  7-C , 13-O ) :   1.0736 B(  9-C , 10-H ) :   0.9057 B(  9-C , 11-O ) :   1.0292
B(  9-C , 12-O ) :   1.1194 B( 12-O , 19-H ) :   0.7973 B( 13-O , 20-H ) :   0.8129
B( 14-O , 19-H ) :   0.1043 B( 14-O , 21-H ) :   0.8377 B( 15-O , 22-H ) :   0.8424
B( 16-O , 23-H ) :   0.8530

Dispersion correction           -0.025951515
FINAL SINGLE POINT ENERGY      -685.694003305728

DIPOLE MOMENT
-------------

Method             : SCF
Type of density    : Electron Density
Multiplicity       :   1
Irrep              :   0
Energy             :  -685.8274350713137437 Eh
Relativity type    :
Basis              : AO
                                X                 Y                 Z
Electronic contribution:      1.596395132      -0.254556706       1.426916624
Nuclear contribution   :     -2.346019930       0.907060900      -1.418088699
                        -----------------------------------------
Total Dipole Moment    :     -0.749624798       0.652504194       0.008827925
                        -----------------------------------------
Magnitude (a.u.)       :      0.993869706
Magnitude (Debye)      :      2.526216031

Rotational constants in cm-1:             0.041470             0.027977             0.024287
Rotational constants in MHz :          1243.239177           838.729913           728.099948

                             ****ORCA TERMINATED NORMALLY****
TOTAL RUN TIME: 0 days 0 hours 0 minutes 24 seconds 428 msec
