                         Program Version 6.0.1  -  RELEASE   -
|  1> ! pbe def2-sv(p) def2/J RI DEFGRID1 loosescf d4 GCP(DFT/SV(P)) printgap
|  2> %output
|  3>     printlevel normal
|  4> end
|  5> * xyz 0 1
|  6> C 0.7163049478 -1.1918935052 0.2643171089
|  7> C -0.7164176303 -1.191894752 -0.2643633571
|  8> N -1.3869167008 -1.76106e-05 0.2236411465
|  9> C -0.7163538899 1.191871809 -0.2642800897
| 10> C 0.7164352999 1.1919339678 0.2642655288
| 11> N 1.3869496103 -8.8276e-06 -0.223587386
| 12> H 1.2496025069 -2.0712953174 -0.103258603
| 13> H 0.681054722 -1.2290248563 1.3667304443
| 14> H -0.6811437579 -1.2288893851 -1.3667930677
| 15> H -1.2497832634 -2.071309382 0.1030933739
| 16> H -2.358661078 -1.32038e-05 -0.0714868851
| 17> H -0.6811909623 1.2290442056 -1.3667060381
| 18> H -1.2496275839 2.0712680017 0.103338033
| 19> H 1.2497655771 2.0712890199 -0.1034091006
| 20> H 0.6812688074 1.2291256784 1.3666890899
| 21> H 2.3586303631 -3.61286e-05 0.0717803
| 22> *
| 23>
| 24>                          ****END OF INPUT****

CARTESIAN COORDINATES (ANGSTROEM)
---------------------------------
  C      0.716305   -1.191894    0.264317
  C     -0.716418   -1.191895   -0.264363
  N     -1.386917   -0.000018    0.223641
  C     -0.716354    1.191872   -0.264280
  C      0.716435    1.191934    0.264266
  N      1.386950   -0.000009   -0.223587
  H      1.249603   -2.071295   -0.103259
  H      0.681055   -1.229025    1.366730
  H     -0.681144   -1.228889   -1.366793
  H     -1.249783   -2.071309    0.103093
  H     -2.358661   -0.000013   -0.071487
  H     -0.681191    1.229044   -1.366706
  H     -1.249628    2.071268    0.103338
  H      1.249766    2.071289   -0.103409
  H      0.681269    1.229126    1.366689
  H      2.358630   -0.000036    0.071780

 Total Charge           Charge          ....    0
 Multiplicity           Mult            ....    1
 Number of Electrons    NEL             ....   48
 Basis Dimension        Dim             ....  104

ORBITAL ENERGIES
----------------

  NO   OCC          E(Eh)            E(eV)
   0   2.0000     -13.966714      -380.0536
   1   2.0000     -13.966658      -380.0521
   2   2.0000      -9.901685      -269.4385
   3   2.0000      -9.901681      -269.4384
   4   2.0000      -9.901651      -269.4376
   5   2.0000      -9.901648      -269.4375
   6   2.0000      -0.843314       -22.9477
   7   2.0000      -0.788966       -21.4689
   8   2.0000      -0.676825       -18.4173
   9   2.0000      -0.596749       -16.2384
  10   2.0000      -0.560719       -15.2579
  11   2.0000      -0.487434       -13.2637
  12   2.0000      -0.473913       -12.8958
  13   2.0000      -0.418695       -11.3933
  14   2.0000      -0.403210       -10.9719
  15   2.0000      -0.390163       -10.6169
  16   2.0000      -0.379760       -10.3338
  17   2.0000      -0.356473        -9.7001
  18   2.0000      -0.338659        -9.2154
  19   2.0000      -0.300533        -8.1779
  20   2.0000      -0.289534        -7.8786
  21   2.0000      -0.283491        -7.7142
  22   2.0000      -0.176358        -4.7990
  23   2.0000      -0.173462        -4.7201
  24   0.0000       0.031797         0.8652
  25   0.0000       0.055062         1.4983
  26   0.0000       0.075827         2.0634
  27   0.0000       0.085914         2.3378
  28   0.0000       0.089269         2.4291

MULLIKEN ATOMIC CHARGES
-----------------------
   0 C :   -0.055976
   1 C :   -0.055972
   2 N :   -0.368894
   3 C :   -0.055998
   4 C :   -0.055963
   5 N :   -0.368911
   6 H :    0.081324
   7 H :    0.057507
   8 H :    0.057502
   9 H :    0.081333
  10 H :    0.203190
  11 H :    0.057507
  12 H :    0.081327
  13 H :    0.081335
  14 H :    0.057501
  15 H :    0.203190
Sum of atomic charges:   -0.0000000

LOEWDIN ATOMIC CHARGES
----------------------
   0 C :   -0.173469
   1 C :   -0.173471
   2 N :   -0.269498
   3 C :   -0.173468
   4 C :   -0.173470
   5 N :   -0.269507
   6 H :    0.111991
   7 H :    0.092504
   8 H :    0.092501
   9 H :    0.111993
  10 H :    0.207456
  11 H :    0.092500
  12 H :    0.111993
  13 H :    0.111993
  14 H :    0.092499
  15 H :    0.207453

  Mayer bond orders larger than 0.100000
B(  0-C ,  1-C ) :   1.1607 B(  0-C ,  5-N ) :   1.0757 B(  0-C ,  6-H ) :   0.9263
B(  0-C ,  7-H ) :   0.8882 B(  1-C ,  2-N ) :   1.0757 B(  1-C ,  8-H ) :   0.8882
B(  1-C ,  9-H ) :   0.9263 B(  2-N ,  3-C ) :   1.0758 B(  2-N , 10-H ) :   0.8796
B(  3-C ,  4-C ) :   1.1607 B(  3-C , 11-H ) :   0.8882 B(  3-C , 12-H ) :   0.9263
B(  4-C ,  5-N ) :   1.0757 B(  4-C , 13-H ) :   0.9263 B(  4-C , 14-H ) :   0.8882
B(  5-N , 15-H ) :   0.8796

Dispersion correction           -0.012955951
FINAL SINGLE POINT ENERGY      -267.291877172184

DIPOLE MOMENT
-------------

Method             : SCF
Type of density    : Electron Density
Multiplicity       :   1
Irrep              :   0
Energy             :  -267.3567242233231127 Eh
Relativity type    :
Basis              : AO
                                X                 Y                 Z
Electronic contribution:     -0.000055047      -0.000143750       0.000112386
Nuclear contribution   :     -0.000079254       0.000148679      -0.000020771
                        -----------------------------------------
Total Dipole Moment    :     -0.000134301       0.000004928       0.000091616
                        -----------------------------------------
Magnitude (a.u.)       :      0.000162648
Magnitude (Debye)      :      0.000413419

Rotational constants in cm-1:             0.162408             0.152878             0.088840
Rotational constants in MHz :          4868.875565          4583.174256          2663.363877

                             ****ORCA TERMINATED NORMALLY****
TOTAL RUN TIME: 0 days 0 hours 0 minutes 17 seconds 52 msec
