                         Program Version 6.0.1  -  RELEASE   -
|  1> ! pbe def2-sv(p) def2/J RI DEFGRID1 loosescf d4 GCP(DFT/SV(P)) printgap
|  2> %output
|  3>     printlevel normal
|  4> end
|  5> * xyz 0 1
|  6> C -0.4912151206 0.4435963257 9.48233e-05
|  7> C 0.4912025165 -0.4436381351 7.85449e-05
|  8> Cl 2.1337485838 0.0413525818 -3.06623e-05
|  9> Cl -2.1337402003 -0.0413380341 -3.16738e-05
| 10> H -0.33524212 1.5107896206 3.43919e-05
| 11> H 0.3350974313 -1.5108031005 9.22863e-05
| 12> *
| 13>
| 14>                          ****END OF INPUT****

CARTESIAN COORDINATES (ANGSTROEM)
---------------------------------
  C     -0.491215    0.443596    0.000095
  C      0.491203   -0.443638    0.000079
  Cl     2.133749    0.041353   -0.000031
  Cl    -2.133740   -0.041338   -0.000032
  H     -0.335242    1.510790    0.000034
  H      0.335097   -1.510803    0.000092

 Total Charge           Charge          ....    0
 Multiplicity           Mult            ....    1
 Number of Electrons    NEL             ....   48
 Basis Dimension        Dim             ....   68

ORBITAL ENERGIES
----------------

  NO   OCC          E(Eh)            E(eV)
   0   2.0000    -100.652167     -2738.8847
   1   2.0000    -100.652142     -2738.8840
   2   2.0000      -9.954372      -270.8722
   3   2.0000      -9.953769      -270.8558
   4   2.0000      -9.188263      -250.0253
   5   2.0000      -9.188250      -250.0250
   6   2.0000      -7.019665      -191.0148
   7   2.0000      -7.019658      -191.0146
   8   2.0000      -7.008250      -190.7042
   9   2.0000      -7.008247      -190.7041
  10   2.0000      -7.007534      -190.6847
  11   2.0000      -7.007532      -190.6846
  12   2.0000      -0.824021       -22.4227
  13   2.0000      -0.792784       -21.5727
  14   2.0000      -0.657061       -17.8795
  15   2.0000      -0.533219       -14.5096
  16   2.0000      -0.447460       -12.1760
  17   2.0000      -0.433877       -11.8064
  18   2.0000      -0.369862       -10.0645
  19   2.0000      -0.353940        -9.6312
  20   2.0000      -0.307503        -8.3676
  21   2.0000      -0.280850        -7.6423
  22   2.0000      -0.275967        -7.5094
  23   2.0000      -0.218136        -5.9358
  24   0.0000      -0.045700        -1.2436
  25   0.0000      -0.004109        -0.1118
  26   0.0000       0.037395         1.0176
  27   0.0000       0.067596         1.8394
  28   0.0000       0.137914         3.7528

MULLIKEN ATOMIC CHARGES
-----------------------
   0 C :   -0.063960
   1 C :   -0.063921
   2 Cl:   -0.067498
   3 Cl:   -0.067496
   4 H :    0.131442
   5 H :    0.131432
Sum of atomic charges:    0.0000000

LOEWDIN ATOMIC CHARGES
----------------------
   0 C :   -0.270386
   1 C :   -0.270382
   2 Cl:    0.137077
   3 Cl:    0.137092
   4 H :    0.133298
   5 H :    0.133301

  Mayer bond orders larger than 0.100000
B(  0-C ,  1-C ) :   1.8808 B(  0-C ,  3-Cl) :   1.0614 B(  0-C ,  4-H ) :   0.9162
B(  1-C ,  2-Cl) :   1.0614 B(  1-C ,  5-H ) :   0.9162

Dispersion correction           -0.004892355
FINAL SINGLE POINT ENERGY      -996.939382057411

DIPOLE MOMENT
-------------

Method             : SCF
Type of density    : Electron Density
Multiplicity       :   1
Irrep              :   0
Energy             :  -996.9540642354892270 Eh
Relativity type    :
Basis              : AO
                                X                 Y                 Z
Electronic contribution:      0.000095173       0.000039496      -0.000210753
Nuclear contribution   :     -0.000146996      -0.000032173       0.000202515
                        -----------------------------------------
Total Dipole Moment    :     -0.000051823       0.000007324      -0.000008239
                        -----------------------------------------
Magnitude (a.u.)       :      0.000052983
Magnitude (Debye)      :      0.000134671

Rotational constants in cm-1:             1.783844             0.051263             0.049831
Rotational constants in MHz :         53478.289907          1536.817370          1493.887207

                             ****ORCA TERMINATED NORMALLY****
TOTAL RUN TIME: 0 days 0 hours 0 minutes 2 seconds 770 msec
