                         Program Version 6.0.1  -  RELEASE   -
|  1> ! pbe def2-sv(p) def2/J RI DEFGRID1 loosescf d4 GCP(DFT/SV(P)) printgap
|  2> %output
|  3>     printlevel normal
|  4> end
|  5> * xyz 0 1
|  6> C -2.4534607253 -0.8327576963 0.0477467784
|  7> C -1.0698465585 -0.5107362316 0.6129874438
|  8> H -1.0378100365 -0.8122400559 1.6731694345
|  9> C -0.7506765186 1.0089277979 0.5408890069
| 10> H -1.6394112395 1.5478066671 0.1968585849
| 11> C 0.3902857908 1.2437077745 -0.4641305228
| 12> H 0.6832073638 2.3031321376 -0.4142671457
| 13> C 1.6122047575 0.3886475315 -0.0442312296
| 14> H 2.3432190808 0.3981471293 -0.8642413292
| 15> C 1.191438879 -1.0821464635 0.2134048215
| 16> H 1.361438708 -1.2997210769 1.2812575571
| 17> O -0.1552087175 -1.2910648861 -0.1298971929
| 18> O 1.9470270394 -1.9869963931 -0.503177705
| 19> O 2.1911280543 0.8748712914 1.1514397994
| 20> O 0.0174650895 0.9853296975 -1.7869724384
| 21> O -0.4461519736 1.5344779508 1.8043342641
| 22> O -2.5279628857 -0.3140827809 -1.2631590795
| 23> H -3.2178442405 -0.3802173111 0.6921487672
| 24> H -2.5780095392 -1.9217488232 0.0406335764
| 25> H 1.6366219114 -1.9735798077 -1.417925121
| 26> H 2.6195523115 1.7203373881 0.9744187832
| 27> H -0.6929969015 0.3245509661 -1.7889507835
| 28> H 0.453549357 1.2554315323 2.0410371607
| 29> H -3.3520910628 -0.5971216556 -1.6714941151
| 30> *
| 31>
| 32>                          ****END OF INPUT****

CARTESIAN COORDINATES (ANGSTROEM)
---------------------------------
  C     -2.453461   -0.832758    0.047747
  C     -1.069847   -0.510736    0.612987
  H     -1.037810   -0.812240    1.673169
  C     -0.750677    1.008928    0.540889
  H     -1.639411    1.547807    0.196859
  C      0.390286    1.243708   -0.464131
  H      0.683207    2.303132   -0.414267
  C      1.612205    0.388648   -0.044231
  H      2.343219    0.398147   -0.864241
  C      1.191439   -1.082146    0.213405
  H      1.361439   -1.299721    1.281258
  O     -0.155209   -1.291065   -0.129897
  O      1.947027   -1.986996   -0.503178
  O      2.191128    0.874871    1.151440
  O      0.017465    0.985330   -1.786972
  O     -0.446152    1.534478    1.804334
  O     -2.527963   -0.314083   -1.263159
  H     -3.217844   -0.380217    0.692149
  H     -2.578010   -1.921749    0.040634
  H      1.636622   -1.973580   -1.417925
  H      2.619552    1.720337    0.974419
  H     -0.692997    0.324551   -1.788951
  H      0.453549    1.255432    2.041037
  H     -3.352091   -0.597122   -1.671494

 Total Charge           Charge          ....    0
 Multiplicity           Mult            ....    1
 Number of Electrons    NEL             ....   96
 Basis Dimension        Dim             ....  192

ORBITAL ENERGIES
----------------

  NO   OCC          E(Eh)            E(eV)
   0   2.0000     -18.776925      -510.9461
   1   2.0000     -18.775767      -510.9146
   2   2.0000     -18.772658      -510.8300
   3   2.0000     -18.754836      -510.3450
   4   2.0000     -18.736670      -509.8507
   5   2.0000     -18.735602      -509.8217
   6   2.0000      -9.987210      -271.7658
   7   2.0000      -9.949304      -270.7343
   8   2.0000      -9.948857      -270.7222
   9   2.0000      -9.939355      -270.4636
  10   2.0000      -9.937357      -270.4092
  11   2.0000      -9.936171      -270.3770
  12   2.0000      -0.989203       -26.9176
  13   2.0000      -0.951118       -25.8812
  14   2.0000      -0.949145       -25.8275
  15   2.0000      -0.925866       -25.1941
  16   2.0000      -0.911677       -24.8080
  17   2.0000      -0.911144       -24.7935
  18   2.0000      -0.703111       -19.1326
  19   2.0000      -0.684471       -18.6254
  20   2.0000      -0.622499       -16.9391
  21   2.0000      -0.587420       -15.9845
  22   2.0000      -0.567914       -15.4537
  23   2.0000      -0.528098       -14.3703
  24   2.0000      -0.504303       -13.7228
  25   2.0000      -0.492668       -13.4062
  26   2.0000      -0.491141       -13.3646
  27   2.0000      -0.463276       -12.6064
  28   2.0000      -0.443327       -12.0635
  29   2.0000      -0.438895       -11.9429
  30   2.0000      -0.408191       -11.1074
  31   2.0000      -0.406615       -11.0645
  32   2.0000      -0.388441       -10.5700
  33   2.0000      -0.378217       -10.2918
  34   2.0000      -0.354309        -9.6412
  35   2.0000      -0.342846        -9.3293
  36   2.0000      -0.334598        -9.1049
  37   2.0000      -0.321015        -8.7353
  38   2.0000      -0.310237        -8.4420
  39   2.0000      -0.302078        -8.2200
  40   2.0000      -0.299182        -8.1412
  41   2.0000      -0.268859        -7.3160
  42   2.0000      -0.250557        -6.8180
  43   2.0000      -0.245572        -6.6824
  44   2.0000      -0.241393        -6.5686
  45   2.0000      -0.234706        -6.3867
  46   2.0000      -0.202698        -5.5157
  47   2.0000      -0.193522        -5.2660
  48   0.0000       0.007394         0.2012
  49   0.0000       0.014025         0.3816
  50   0.0000       0.044156         1.2016
  51   0.0000       0.052093         1.4175
  52   0.0000       0.062978         1.7137

MULLIKEN ATOMIC CHARGES
-----------------------
   0 C :    0.051444
   1 C :    0.014623
   2 H :    0.068384
   3 C :    0.017390
   4 H :    0.086538
   5 C :    0.042657
   6 H :    0.058500
   7 C :    0.000477
   8 H :    0.069638
   9 C :    0.224237
  10 H :    0.059669
  11 O :   -0.300906
  12 O :   -0.384855
  13 O :   -0.417696
  14 O :   -0.428972
  15 O :   -0.428769
  16 O :   -0.439295
  17 H :    0.091454
  18 H :    0.088800
  19 H :    0.299208
  20 H :    0.312480
  21 H :    0.307424
  22 H :    0.292321
  23 H :    0.315248
Sum of atomic charges:    0.0000000

LOEWDIN ATOMIC CHARGES
----------------------
   0 C :   -0.121776
   1 C :   -0.073193
   2 H :    0.111952
   3 C :   -0.077811
   4 H :    0.119048
   5 C :   -0.081842
   6 H :    0.104568
   7 C :   -0.099094
   8 H :    0.109558
   9 C :    0.010358
  10 H :    0.099404
  11 O :   -0.150784
  12 O :   -0.290814
  13 O :   -0.307125
  14 O :   -0.323048
  15 O :   -0.324527
  16 O :   -0.328207
  17 H :    0.107627
  18 H :    0.108106
  19 H :    0.285495
  20 H :    0.293219
  21 H :    0.267133
  22 H :    0.265436
  23 H :    0.296316

  Mayer bond orders larger than 0.100000
B(  0-C ,  1-C ) :   1.0658 B(  0-C , 16-O ) :   1.0496 B(  0-C , 17-H ) :   0.9172
B(  0-C , 18-H ) :   0.9125 B(  1-C ,  2-H ) :   0.8767 B(  1-C ,  3-C ) :   0.9468
B(  1-C , 11-O ) :   1.0059 B(  3-C ,  4-H ) :   0.8977 B(  3-C ,  5-C ) :   1.0036
B(  3-C , 15-O ) :   1.0650 B(  5-C ,  6-H ) :   0.8962 B(  5-C ,  7-C ) :   0.9502
B(  5-C , 14-O ) :   1.0867 B(  7-C ,  8-H ) :   0.8939 B(  7-C ,  9-C ) :   0.9648
B(  7-C , 13-O ) :   1.0103 B(  9-C , 10-H ) :   0.8819 B(  9-C , 11-O ) :   1.0403
B(  9-C , 12-O ) :   1.1341 B( 12-O , 19-H ) :   0.8449 B( 13-O , 20-H ) :   0.8396
B( 13-O , 22-H ) :   0.1182 B( 14-O , 21-H ) :   0.8008 B( 15-O , 22-H ) :   0.8070
B( 16-O , 21-H ) :   0.1028 B( 16-O , 23-H ) :   0.8419

Dispersion correction           -0.025455986
FINAL SINGLE POINT ENERGY      -685.692295025622

DIPOLE MOMENT
-------------

Method             : SCF
Type of density    : Electron Density
Multiplicity       :   1
Irrep              :   0
Energy             :  -685.8258583014501255 Eh
Relativity type    :
Basis              : AO
                                X                 Y                 Z
Electronic contribution:      2.481649475      -0.682943922      -0.955526314
Nuclear contribution   :     -3.193876521       0.526931644       0.685951154
                        -----------------------------------------
Total Dipole Moment    :     -0.712227046      -0.156012278      -0.269575161
                        -----------------------------------------
Magnitude (a.u.)       :      0.777353178
Magnitude (Debye)      :      1.975874752

Rotational constants in cm-1:             0.040945             0.028406             0.023624
Rotational constants in MHz :          1227.491453           851.602346           708.242222

                             ****ORCA TERMINATED NORMALLY****
TOTAL RUN TIME: 0 days 0 hours 0 minutes 9 seconds 524 msec
