                         Program Version 6.0.1  -  RELEASE   -
|  1> ! r2scan-3c def2/J RI DEFGRID2 scfconv6 printgap
|  2> %output
|  3>     printlevel normal
|  4> end
|  5> * xyz 0 1
|  6> C 3.7312314119 -0.2603479547 -0.1694402669
|  7> C 2.2438816422 -0.1762082933 -0.072741312
|  8> C 1.5558852647 0.9016410101 -0.4590814886
|  9> C 0.0978657348 1.0162053283 -0.3805967351
| 10> O -0.4619113063 2.0778808552 -0.5568318959
| 11> C -0.6414779703 -0.2823899229 -0.0737572616
| 12> H -0.6063943955 -0.8859288165 -0.9911942723
| 13> C 0.1503015479 -1.0258669195 1.0060624707
| 14> C 1.5434462864 -1.373803959 0.4896448165
| 15> C -2.1181963409 -0.0100083199 0.2722733845
| 16> C -2.8859450227 0.3569250619 -0.9982867284
| 17> C -2.8030725201 -1.1970914695 0.9477517659
| 18> H 4.0215693221 -1.1645596924 -0.7034835421
| 19> H 4.1672443637 -0.3156604415 0.8281541838
| 20> H 4.1438039619 0.6035779322 -0.6829686077
| 21> H 2.0643942661 1.7797043534 -0.8332752754
| 22> H 0.2334036997 -0.393423917 1.8933282757
| 23> H -0.3611495383 -1.9452319824 1.2891482527
| 24> H 2.1458991521 -1.813776679 1.2881407676
| 25> H 1.4590858388 -2.1270061971 -0.3025652633
| 26> H -2.1508564665 0.8473805841 0.9528459642
| 27> H -3.9145683793 0.6139601632 -0.7560610329
| 28> H -2.8963317073 -0.4827506836 -1.691744837
| 29> H -2.4272454158 1.2111678939 -1.4863112849
| 30> H -2.6838547568 -2.100264072 0.3518777718
| 31> H -3.8674364865 -0.9942295985 1.043161387
| 32> H -2.4095654165 -1.3764069 1.9448629626
| 33> *
| 34>
| 35>                          ****END OF INPUT****

CARTESIAN COORDINATES (ANGSTROEM)
---------------------------------
  C      3.731231   -0.260348   -0.169440
  C      2.243882   -0.176208   -0.072741
  C      1.555885    0.901641   -0.459081
  C      0.097866    1.016205   -0.380597
  O     -0.461911    2.077881   -0.556832
  C     -0.641478   -0.282390   -0.073757
  H     -0.606394   -0.885929   -0.991194
  C      0.150302   -1.025867    1.006062
  C      1.543446   -1.373804    0.489645
  C     -2.118196   -0.010008    0.272273
  C     -2.885945    0.356925   -0.998287
  C     -2.803073   -1.197091    0.947752
  H      4.021569   -1.164560   -0.703484
  H      4.167244   -0.315660    0.828154
  H      4.143804    0.603578   -0.682969
  H      2.064394    1.779704   -0.833275
  H      0.233404   -0.393424    1.893328
  H     -0.361150   -1.945232    1.289148
  H      2.145899   -1.813777    1.288141
  H      1.459086   -2.127006   -0.302565
  H     -2.150856    0.847381    0.952846
  H     -3.914568    0.613960   -0.756061
  H     -2.896332   -0.482751   -1.691745
  H     -2.427245    1.211168   -1.486311
  H     -2.683855   -2.100264    0.351878
  H     -3.867436   -0.994230    1.043161
  H     -2.409565   -1.376407    1.944863

 Total Charge           Charge          ....    0
 Multiplicity           Mult            ....    1
 Number of Electrons    NEL             ....   84
 Basis Dimension        Dim             ....  294

ORBITAL ENERGIES
----------------

  NO   OCC          E(Eh)            E(eV)
   0   2.0000     -18.925327      -514.9843
   1   2.0000     -10.106080      -275.0004
   2   2.0000     -10.067098      -273.9397
   3   2.0000     -10.048632      -273.4372
   4   2.0000     -10.042037      -273.2577
   5   2.0000     -10.040237      -273.2087
   6   2.0000     -10.039039      -273.1761
   7   2.0000     -10.030507      -272.9440
   8   2.0000     -10.029508      -272.9168
   9   2.0000     -10.014729      -272.5146
  10   2.0000     -10.002723      -272.1879
  11   2.0000      -0.996515       -27.1166
  12   2.0000      -0.824513       -22.4361
  13   2.0000      -0.777144       -21.1472
  14   2.0000      -0.728462       -19.8225
  15   2.0000      -0.699669       -19.0390
  16   2.0000      -0.662172       -18.0186
  17   2.0000      -0.644763       -17.5449
  18   2.0000      -0.588016       -16.0007
  19   2.0000      -0.553600       -15.0642
  20   2.0000      -0.522848       -14.2274
  21   2.0000      -0.494744       -13.4627
  22   2.0000      -0.446181       -12.1412
  23   2.0000      -0.439954       -11.9718
  24   2.0000      -0.425610       -11.5814
  25   2.0000      -0.409409       -11.1406
  26   2.0000      -0.400761       -10.9053
  27   2.0000      -0.394995       -10.7484
  28   2.0000      -0.393856       -10.7174
  29   2.0000      -0.371223       -10.1015
  30   2.0000      -0.369206       -10.0466
  31   2.0000      -0.359060        -9.7705
  32   2.0000      -0.351115        -9.5543
  33   2.0000      -0.345201        -9.3934
  34   2.0000      -0.334228        -9.0948
  35   2.0000      -0.318063        -8.6549
  36   2.0000      -0.311675        -8.4811
  37   2.0000      -0.294955        -8.0261
  38   2.0000      -0.287716        -7.8292
  39   2.0000      -0.280977        -7.6458
  40   2.0000      -0.242664        -6.6032
  41   2.0000      -0.203735        -5.5439
  42   0.0000      -0.073324        -1.9952
  43   0.0000       0.029028         0.7899
  44   0.0000       0.075886         2.0650
  45   0.0000       0.088131         2.3982
  46   0.0000       0.102714         2.7950

MULLIKEN ATOMIC CHARGES
-----------------------
   0 C :   -0.512763
   1 C :    0.199833
   2 C :   -0.301408
   3 C :    0.180216
   4 O :   -0.358601
   5 C :   -0.091630
   6 H :    0.176437
   7 C :   -0.337265
   8 C :   -0.340698
   9 C :    0.058503
  10 C :   -0.588404
  11 C :   -0.516677
  12 H :    0.157450
  13 H :    0.167027
  14 H :    0.160187
  15 H :    0.164000
  16 H :    0.171893
  17 H :    0.163086
  18 H :    0.160039
  19 H :    0.183310
  20 H :    0.166844
  21 H :    0.146305
  22 H :    0.141874
  23 H :    0.190278
  24 H :    0.158069
  25 H :    0.149544
  26 H :    0.152550
Sum of atomic charges:   -0.0000000

LOEWDIN ATOMIC CHARGES
----------------------
   0 C :   -0.386560
   1 C :   -0.067249
   2 C :   -0.167306
   3 C :    0.232472
   4 O :   -0.480942
   5 C :   -0.188958
   6 H :    0.183900
   7 C :   -0.267765
   8 C :   -0.277433
   9 C :   -0.220584
  10 C :   -0.407776
  11 C :   -0.417510
  12 H :    0.167319
  13 H :    0.168500
  14 H :    0.163105
  15 H :    0.182141
  16 H :    0.167413
  17 H :    0.163920
  18 H :    0.166753
  19 H :    0.175491
  20 H :    0.171806
  21 H :    0.152044
  22 H :    0.148767
  23 H :    0.177151
  24 H :    0.153455
  25 H :    0.156401
  26 H :    0.151446

  Mayer bond orders larger than 0.100000
B(  0-C ,  1-C ) :   0.8385 B(  0-C , 12-H ) :   0.9633 B(  0-C , 13-H ) :   0.9661
B(  0-C , 14-H ) :   0.9932 B(  1-C ,  2-C ) :   1.7007 B(  1-C ,  8-C ) :   0.8506
B(  2-C ,  3-C ) :   1.1015 B(  2-C , 15-H ) :   0.9513 B(  3-C ,  4-O ) :   1.9299
B(  3-C ,  5-C ) :   0.9269 B(  5-C ,  6-H ) :   0.9370 B(  5-C ,  7-C ) :   0.7965
B(  5-C ,  9-C ) :   0.8751 B(  7-C ,  8-C ) :   0.9258 B(  7-C , 16-H ) :   0.9932
B(  7-C , 17-H ) :   0.9624 B(  8-C , 18-H ) :   0.9732 B(  8-C , 19-H ) :   0.9892
B(  9-C , 10-C ) :   0.8852 B(  9-C , 11-C ) :   0.8246 B(  9-C , 20-H ) :   0.9707
B( 10-C , 21-H ) :   0.9768 B( 10-C , 22-H ) :   0.9892 B( 10-C , 23-H ) :   0.9666
B( 11-C , 24-H ) :   0.9944 B( 11-C , 25-H ) :   0.9734 B( 11-C , 26-H ) :   0.9753

Dispersion correction           -0.009433471
FINAL SINGLE POINT ENERGY      -465.792713272542

DIPOLE MOMENT
-------------

Method             : SCF
Type of density    : Electron Density
Multiplicity       :   1
Irrep              :   0
Energy             :  -465.7948352186914462 Eh
Relativity type    :
Basis              : AO
                                X                 Y                 Z
Electronic contribution:      3.822079519       6.709955211      -1.689690987
Nuclear contribution   :     -2.898280713      -7.984364722       2.003092617
                        -----------------------------------------
Total Dipole Moment    :      0.923798806      -1.274409511       0.313401630
                        -----------------------------------------
Magnitude (a.u.)       :      1.604912589
Magnitude (Debye)      :      4.079363609

Rotational constants in cm-1:             0.068681             0.024141             0.019082
Rotational constants in MHz :          2059.002678           723.742786           572.061948

                             ****ORCA TERMINATED NORMALLY****
TOTAL RUN TIME: 0 days 0 hours 0 minutes 42 seconds 519 msec
