                         Program Version 6.0.1  -  RELEASE   -
|  1> ! pbe def2-sv(p) def2/J RI DEFGRID1 loosescf d4 GCP(DFT/SV(P)) printgap
|  2> %output
|  3>     printlevel normal
|  4> end
|  5> * xyz 0 1
|  6> C -3.5595329656 -1.7770291689 -0.7164249467
|  7> N -3.5949000591 -0.5588635492 0.0552027994
|  8> C -2.5388649974 0.2322955104 0.3525793969
|  9> O -2.6170430807 1.1933637301 1.074884635
| 10> O -1.4128658209 -0.2036848168 -0.2647226499
| 11> C -0.239715454 0.5322457826 -0.1883666499
| 12> C -0.2119355291 1.8981779801 -0.2800458896
| 13> C 1.0156441753 2.5758251932 -0.2441149815
| 14> C 2.1907221903 1.8898125186 -0.1308711117
| 15> C 2.1934497041 0.4817801665 -0.0450376624
| 16> C 0.9596489394 -0.2185181406 -0.0709585092
| 17> C 0.9650203284 -1.6250788632 0.0220302794
| 18> C 2.1421028478 -2.3109260594 0.1347149114
| 19> C 3.3642075555 -1.6224664645 0.1571575019
| 20> C 3.3884424769 -0.2587532726 0.069909728
| 21> H -4.4840626024 -1.8702404722 -1.2852929373
| 22> H -3.4485109944 -2.6553053737 -0.0732226029
| 23> H -2.7193987441 -1.7367157224 -1.4056100106
| 24> H -4.4373098745 -0.3494832752 0.5678726984
| 25> H -1.1301628953 2.4560166909 -0.3660608838
| 26> H 1.014823133 3.6533415954 -0.3111387953
| 27> H 3.1351786033 2.413609857 -0.104941651
| 28> H 0.0207404682 -2.1479185729 0.0041979493
| 29> H 2.1387988745 -3.388655715 0.2078560411
| 30> H 4.285236572 -2.1800051357 0.2455964508
| 31> H 4.3270970633 0.2764465717 0.0881156943
| 32> *
| 33>
| 34>                          ****END OF INPUT****

CARTESIAN COORDINATES (ANGSTROEM)
---------------------------------
  C     -3.559533   -1.777029   -0.716425
  N     -3.594900   -0.558864    0.055203
  C     -2.538865    0.232296    0.352579
  O     -2.617043    1.193364    1.074885
  O     -1.412866   -0.203685   -0.264723
  C     -0.239715    0.532246   -0.188367
  C     -0.211936    1.898178   -0.280046
  C      1.015644    2.575825   -0.244115
  C      2.190722    1.889813   -0.130871
  C      2.193450    0.481780   -0.045038
  C      0.959649   -0.218518   -0.070959
  C      0.965020   -1.625079    0.022030
  C      2.142103   -2.310926    0.134715
  C      3.364208   -1.622466    0.157158
  C      3.388442   -0.258753    0.069910
  H     -4.484063   -1.870240   -1.285293
  H     -3.448511   -2.655305   -0.073223
  H     -2.719399   -1.736716   -1.405610
  H     -4.437310   -0.349483    0.567873
  H     -1.130163    2.456017   -0.366061
  H      1.014823    3.653342   -0.311139
  H      3.135179    2.413610   -0.104942
  H      0.020740   -2.147919    0.004198
  H      2.138799   -3.388656    0.207856
  H      4.285237   -2.180005    0.245596
  H      4.327097    0.276447    0.088116

 Total Charge           Charge          ....    0
 Multiplicity           Mult            ....    1
 Number of Electrons    NEL             ....  106
 Basis Dimension        Dim             ....  232

ORBITAL ENERGIES
----------------

  NO   OCC          E(Eh)            E(eV)
   0   2.0000     -18.811154      -511.8775
   1   2.0000     -18.721180      -509.4292
   2   2.0000     -14.022537      -381.5726
   3   2.0000     -10.028132      -272.8793
   4   2.0000      -9.957218      -270.9497
   5   2.0000      -9.928387      -270.1652
   6   2.0000      -9.905080      -269.5309
   7   2.0000      -9.903961      -269.5005
   8   2.0000      -9.894070      -269.2313
   9   2.0000      -9.893989      -269.2291
  10   2.0000      -9.893921      -269.2273
  11   2.0000      -9.893606      -269.2187
  12   2.0000      -9.893473      -269.2151
  13   2.0000      -9.890500      -269.1342
  14   2.0000      -9.890302      -269.1288
  15   2.0000      -1.017899       -27.6985
  16   2.0000      -0.922615       -25.1056
  17   2.0000      -0.847646       -23.0656
  18   2.0000      -0.794932       -21.6312
  19   2.0000      -0.745228       -20.2787
  20   2.0000      -0.701455       -19.0876
  21   2.0000      -0.669421       -18.2159
  22   2.0000      -0.656879       -17.8746
  23   2.0000      -0.640743       -17.4355
  24   2.0000      -0.599997       -16.3268
  25   2.0000      -0.558726       -15.2037
  26   2.0000      -0.555066       -15.1041
  27   2.0000      -0.518068       -14.0973
  28   2.0000      -0.488809       -13.3012
  29   2.0000      -0.467410       -12.7189
  30   2.0000      -0.450387       -12.2556
  31   2.0000      -0.447168       -12.1680
  32   2.0000      -0.437913       -11.9162
  33   2.0000      -0.427011       -11.6196
  34   2.0000      -0.405207       -11.0262
  35   2.0000      -0.397501       -10.8166
  36   2.0000      -0.383473       -10.4348
  37   2.0000      -0.381571       -10.3831
  38   2.0000      -0.372546       -10.1375
  39   2.0000      -0.362407        -9.8616
  40   2.0000      -0.359982        -9.7956
  41   2.0000      -0.355170        -9.6647
  42   2.0000      -0.342543        -9.3211
  43   2.0000      -0.328486        -8.9386
  44   2.0000      -0.308093        -8.3836
  45   2.0000      -0.299007        -8.1364
  46   2.0000      -0.293371        -7.9830
  47   2.0000      -0.280781        -7.6404
  48   2.0000      -0.246047        -6.6953
  49   2.0000      -0.230657        -6.2765
  50   2.0000      -0.221296        -6.0218
  51   2.0000      -0.218948        -5.9579
  52   2.0000      -0.191022        -5.1980
  53   0.0000      -0.067865        -1.8467
  54   0.0000      -0.039381        -1.0716
  55   0.0000      -0.005297        -0.1441
  56   0.0000       0.023205         0.6314
  57   0.0000       0.027574         0.7503

MULLIKEN ATOMIC CHARGES
-----------------------
   0 C :   -0.183099
   1 N :   -0.289542
   2 C :    0.184780
   3 O :   -0.212877
   4 O :   -0.250261
   5 C :    0.199528
   6 C :   -0.133285
   7 C :   -0.044342
   8 C :   -0.112541
   9 C :    0.134890
  10 C :    0.096268
  11 C :   -0.131114
  12 C :   -0.037657
  13 C :   -0.038126
  14 C :   -0.130100
  15 H :    0.114635
  16 H :    0.115758
  17 H :    0.140979
  18 H :    0.240018
  19 H :    0.059401
  20 H :    0.055869
  21 H :    0.036660
  22 H :    0.040267
  23 H :    0.051218
  24 H :    0.052684
  25 H :    0.039989
Sum of atomic charges:    0.0000000

LOEWDIN ATOMIC CHARGES
----------------------
   0 C :   -0.263417
   1 N :   -0.174469
   2 C :    0.028839
   3 O :   -0.188927
   4 O :   -0.042809
   5 C :    0.050586
   6 C :   -0.137936
   7 C :   -0.117428
   8 C :   -0.120587
   9 C :   -0.022899
  10 C :   -0.035958
  11 C :   -0.113161
  12 C :   -0.123613
  13 C :   -0.124786
  14 C :   -0.109087
  15 H :    0.121056
  16 H :    0.113936
  17 H :    0.132445
  18 H :    0.242911
  19 H :    0.137047
  20 H :    0.127024
  21 H :    0.123849
  22 H :    0.124703
  23 H :    0.123853
  24 H :    0.124290
  25 H :    0.124541

  Mayer bond orders larger than 0.100000
B(  0-C ,  1-N ) :   1.0201 B(  0-C , 15-H ) :   0.9563 B(  0-C , 16-H ) :   0.9536
B(  0-C , 17-H ) :   0.9452 B(  1-N ,  2-C ) :   1.2186 B(  1-N , 18-H ) :   0.8645
B(  2-C ,  3-O ) :   2.0575 B(  2-C ,  4-O ) :   1.0599 B(  4-O ,  5-C ) :   1.0392
B(  5-C ,  6-C ) :   1.4553 B(  5-C , 10-C ) :   1.2438 B(  6-C ,  7-C ) :   1.2248
B(  6-C , 19-H ) :   0.9533 B(  7-C ,  8-C ) :   1.4404 B(  7-C , 20-H ) :   0.9621
B(  8-C ,  9-C ) :   1.2349 B(  8-C , 21-H ) :   0.9678 B(  9-C , 10-C ) :   1.2651
B(  9-C , 14-C ) :   1.2435 B( 10-C , 11-C ) :   1.2644 B( 11-C , 12-C ) :   1.4426
B( 11-C , 22-H ) :   0.9594 B( 12-C , 13-C ) :   1.2587 B( 12-C , 23-H ) :   0.9633
B( 13-C , 14-C ) :   1.4599 B( 13-C , 24-H ) :   0.9623 B( 14-C , 25-H ) :   0.9646

Dispersion correction           -0.032338706
FINAL SINGLE POINT ENERGY      -667.734363120859

DIPOLE MOMENT
-------------

Method             : SCF
Type of density    : Electron Density
Multiplicity       :   1
Irrep              :   0
Energy             :  -667.8107859925511320 Eh
Relativity type    :
Basis              : AO
                                X                 Y                 Z
Electronic contribution:      0.863564723       4.327185987       1.778832952
Nuclear contribution   :     -1.296766113      -5.175475910      -2.269920211
                        -----------------------------------------
Total Dipole Moment    :     -0.433201389      -0.848289923      -0.491087259
                        -----------------------------------------
Magnitude (a.u.)       :      1.071646366
Magnitude (Debye)      :      2.723908591

Rotational constants in cm-1:             0.036475             0.014282             0.010708
Rotational constants in MHz :          1093.505705           428.159356           321.028289

                             ****ORCA TERMINATED NORMALLY****
TOTAL RUN TIME: 0 days 0 hours 0 minutes 18 seconds 633 msec
