                         Program Version 6.0.1  -  RELEASE   -
|  1> ! pbe def2-sv(p) def2/J RI DEFGRID1 loosescf d4 GCP(DFT/SV(P)) printgap
|  2> %output
|  3>     printlevel normal
|  4> end
|  5> * xyz 0 1
|  6> C -2.390847658 -0.9518864789 0.2023518023
|  7> C -1.1525287258 -0.2218127476 0.7646848528
|  8> H -1.4374026774 0.2215993684 1.7269811293
|  9> C -0.7234496775 0.9295238109 -0.1492094762
| 10> H -0.750293634 0.620334337 -1.208178408
| 11> C 0.7138912302 1.3121224848 0.2099957581
| 12> H 0.7903247246 1.4649458625 1.2972417093
| 13> C 1.6357566232 0.1573679732 -0.1821637808
| 14> H 1.7792962801 0.1806969977 -1.2751495901
| 15> C 0.9830188438 -1.2121453518 0.1638434275
| 16> H 1.7211504059 -1.8236839211 0.7026896333
| 17> O -0.0884634738 -1.1226402302 1.0595791373
| 18> O 0.6768008624 -1.9159381107 -1.0000410562
| 19> O 2.8644353159 0.3627345337 0.4740769726
| 20> O 1.0361023076 2.4998190533 -0.4732777984
| 21> O -1.6094535426 1.9958133749 0.0542555897
| 22> O -2.0813030504 -1.8166348487 -0.866813275
| 23> H -3.0740787161 -0.194452732 -0.1864465587
| 24> H -2.8852473382 -1.501579109 1.0089681607
| 25> H -0.2116185173 -1.6609839334 -1.3108636546
| 26> H 3.4692952709 -0.3530135774 0.2501571486
| 27> H 1.9658342292 2.6895855316 -0.3052412381
| 28> H -1.1740870605 2.7877166492 -0.2895676273
| 29> H -1.7302577103 -2.638169757 -0.4999447897
| 30> *
| 31>
| 32>                          ****END OF INPUT****

CARTESIAN COORDINATES (ANGSTROEM)
---------------------------------
  C     -2.390848   -0.951886    0.202352
  C     -1.152529   -0.221813    0.764685
  H     -1.437403    0.221599    1.726981
  C     -0.723450    0.929524   -0.149209
  H     -0.750294    0.620334   -1.208178
  C      0.713891    1.312122    0.209996
  H      0.790325    1.464946    1.297242
  C      1.635757    0.157368   -0.182164
  H      1.779296    0.180697   -1.275150
  C      0.983019   -1.212145    0.163843
  H      1.721150   -1.823684    0.702690
  O     -0.088463   -1.122640    1.059579
  O      0.676801   -1.915938   -1.000041
  O      2.864435    0.362735    0.474077
  O      1.036102    2.499819   -0.473278
  O     -1.609454    1.995813    0.054256
  O     -2.081303   -1.816635   -0.866813
  H     -3.074079   -0.194453   -0.186447
  H     -2.885247   -1.501579    1.008968
  H     -0.211619   -1.660984   -1.310864
  H      3.469295   -0.353014    0.250157
  H      1.965834    2.689586   -0.305241
  H     -1.174087    2.787717   -0.289568
  H     -1.730258   -2.638170   -0.499945

 Total Charge           Charge          ....    0
 Multiplicity           Mult            ....    1
 Number of Electrons    NEL             ....   96
 Basis Dimension        Dim             ....  192

ORBITAL ENERGIES
----------------

  NO   OCC          E(Eh)            E(eV)
   0   2.0000     -18.776696      -510.9399
   1   2.0000     -18.774691      -510.8853
   2   2.0000     -18.762271      -510.5474
   3   2.0000     -18.762035      -510.5409
   4   2.0000     -18.752809      -510.2899
   5   2.0000     -18.747104      -510.1346
   6   2.0000      -9.986146      -271.7369
   7   2.0000      -9.949356      -270.7357
   8   2.0000      -9.948044      -270.7001
   9   2.0000      -9.944773      -270.6110
  10   2.0000      -9.940989      -270.5081
  11   2.0000      -9.940948      -270.5069
  12   2.0000      -0.984034       -26.7769
  13   2.0000      -0.952789       -25.9267
  14   2.0000      -0.945549       -25.7297
  15   2.0000      -0.936852       -25.4930
  16   2.0000      -0.921740       -25.0818
  17   2.0000      -0.906778       -24.6747
  18   2.0000      -0.713067       -19.4035
  19   2.0000      -0.693970       -18.8839
  20   2.0000      -0.628681       -17.1073
  21   2.0000      -0.590077       -16.0568
  22   2.0000      -0.567934       -15.4543
  23   2.0000      -0.528625       -14.3846
  24   2.0000      -0.510521       -13.8920
  25   2.0000      -0.486009       -13.2250
  26   2.0000      -0.477751       -13.0003
  27   2.0000      -0.458262       -12.4699
  28   2.0000      -0.451563       -12.2876
  29   2.0000      -0.439620       -11.9627
  30   2.0000      -0.417651       -11.3649
  31   2.0000      -0.409835       -11.1522
  32   2.0000      -0.395614       -10.7652
  33   2.0000      -0.383683       -10.4405
  34   2.0000      -0.366245        -9.9660
  35   2.0000      -0.353079        -9.6078
  36   2.0000      -0.326618        -8.8877
  37   2.0000      -0.318395        -8.6640
  38   2.0000      -0.311113        -8.4658
  39   2.0000      -0.301422        -8.2021
  40   2.0000      -0.296516        -8.0686
  41   2.0000      -0.275884        -7.5072
  42   2.0000      -0.263660        -7.1745
  43   2.0000      -0.248516        -6.7625
  44   2.0000      -0.237240        -6.4556
  45   2.0000      -0.223610        -6.0847
  46   2.0000      -0.216604        -5.8941
  47   2.0000      -0.209987        -5.7140
  48   0.0000       0.014829         0.4035
  49   0.0000       0.023460         0.6384
  50   0.0000       0.037997         1.0339
  51   0.0000       0.048749         1.3265
  52   0.0000       0.060099         1.6354

MULLIKEN ATOMIC CHARGES
-----------------------
   0 C :    0.047868
   1 C :    0.062616
   2 H :    0.078516
   3 C :   -0.013183
   4 H :    0.063218
   5 C :    0.071685
   6 H :    0.065255
   7 C :    0.035051
   8 H :    0.066807
   9 C :    0.180597
  10 H :    0.051849
  11 O :   -0.313892
  12 O :   -0.430341
  13 O :   -0.421143
  14 O :   -0.428080
  15 O :   -0.416395
  16 O :   -0.433939
  17 H :    0.109003
  18 H :    0.091765
  19 H :    0.294632
  20 H :    0.305781
  21 H :    0.313451
  22 H :    0.311617
  23 H :    0.307263
Sum of atomic charges:    0.0000000

LOEWDIN ATOMIC CHARGES
----------------------
   0 C :   -0.129642
   1 C :   -0.068209
   2 H :    0.123455
   3 C :   -0.073817
   4 H :    0.102085
   5 C :   -0.073364
   6 H :    0.111172
   7 C :   -0.096570
   8 H :    0.106642
   9 C :   -0.006413
  10 H :    0.103785
  11 O :   -0.141102
  12 O :   -0.330815
  13 O :   -0.323250
  14 O :   -0.323649
  15 O :   -0.315198
  16 O :   -0.318818
  17 H :    0.127140
  18 H :    0.107722
  19 H :    0.261298
  20 H :    0.288065
  21 H :    0.294068
  22 H :    0.288449
  23 H :    0.286966

  Mayer bond orders larger than 0.100000
B(  0-C ,  1-C ) :   1.0351 B(  0-C , 16-O ) :   1.0548 B(  0-C , 17-H ) :   0.9151
B(  0-C , 18-H ) :   0.9278 B(  1-C ,  2-H ) :   0.8700 B(  1-C ,  3-C ) :   0.9849
B(  1-C , 11-O ) :   0.9883 B(  3-C ,  4-H ) :   0.8796 B(  3-C ,  5-C ) :   1.0253
B(  3-C , 15-O ) :   1.0781 B(  5-C ,  6-H ) :   0.8649 B(  5-C ,  7-C ) :   1.0343
B(  5-C , 14-O ) :   1.0708 B(  7-C ,  8-H ) :   0.8828 B(  7-C ,  9-C ) :   0.9574
B(  7-C , 13-O ) :   1.0711 B(  9-C , 10-H ) :   0.8954 B(  9-C , 11-O ) :   1.0837
B(  9-C , 12-O ) :   1.0952 B( 12-O , 19-H ) :   0.7782 B( 13-O , 20-H ) :   0.8459
B( 14-O , 21-H ) :   0.8400 B( 15-O , 22-H ) :   0.8285 B( 16-O , 19-H ) :   0.1389
B( 16-O , 23-H ) :   0.8255

Dispersion correction           -0.024921222
FINAL SINGLE POINT ENERGY      -685.693997113727

DIPOLE MOMENT
-------------

Method             : SCF
Type of density    : Electron Density
Multiplicity       :   1
Irrep              :   0
Energy             :  -685.8274898324682454 Eh
Relativity type    :
Basis              : AO
                                X                 Y                 Z
Electronic contribution:      1.873552893       0.134233223       0.248047507
Nuclear contribution   :     -1.430223256      -0.194158512      -0.094973096
                        -----------------------------------------
Total Dipole Moment    :      0.443329636      -0.059925289       0.153074411
                        -----------------------------------------
Magnitude (a.u.)       :      0.472825530
Magnitude (Debye)      :      1.201826987

Rotational constants in cm-1:             0.040977             0.028976             0.019887
Rotational constants in MHz :          1228.467374           868.666407           596.188024

                             ****ORCA TERMINATED NORMALLY****
TOTAL RUN TIME: 0 days 0 hours 0 minutes 8 seconds 26 msec
