                         Program Version 6.0.0  -   RELEASE  -
|  1> ! r2SCAN-3c DEF2-TZVP FREQ
|  2> * xyzfile 0 1 censo.xyz
|  3>
|  4>                          ****END OF INPUT****

CARTESIAN COORDINATES (ANGSTROEM)
---------------------------------
  C      3.005514   -1.863399   -0.267268
  C      1.707945   -1.157315   -0.106980
  C      1.542283    0.190769   -0.076075
  C      0.250233    0.805318    0.130866
  O      0.107272    2.002498    0.372096
  N     -0.857965   -0.074559    0.025444
  C     -0.691560   -1.435839    0.262028
  O     -1.579174   -2.205050    0.621092
  N      0.588579   -1.920287    0.060571
  C     -2.270450    0.499785   -0.130700
  C     -2.229505    1.716353   -1.072040
  C     -3.191153   -0.528231   -0.811676
  C     -2.812322    0.880630    1.244665
  Cl     2.918405    1.250811   -0.189912
  H      3.723708   -1.513274    0.479384
  H      3.427658   -1.648832   -1.254307
  H      2.878771   -2.941962   -0.163314
  H      0.693678   -2.918856    0.195085
  H     -3.262147    1.958574   -1.334066
  H     -1.780168    2.597563   -0.622486
  H     -1.696536    1.476712   -1.998034
  H     -4.073903    0.011923   -1.161753
  H     -3.523112   -1.317207   -0.141715
  H     -2.708319   -0.981001   -1.683663
  H     -3.829858    1.268417    1.133648
  H     -2.846950    0.007395    1.902730
  H     -2.196648    1.653726    1.711415

 Total Charge           Charge          ....    0
 Multiplicity           Mult            ....    1
 Number of Electrons    NEL             ....  114
 Basis Dimension        Dim             ....  518

ORBITAL ENERGIES
----------------

  NO   OCC          E(Eh)            E(eV)
   0   2.0000    -101.198696     -2753.7565
   1   2.0000     -18.933413      -515.2044
   2   2.0000     -18.927790      -515.0513
   3   2.0000     -14.238164      -387.4402
   4   2.0000     -14.225049      -387.0832
   5   2.0000     -10.182300      -277.0745
   6   2.0000     -10.151639      -276.2401
   7   2.0000     -10.126891      -275.5667
   8   2.0000     -10.101325      -274.8710
   9   2.0000     -10.099372      -274.8179
  10   2.0000     -10.071001      -274.0459
  11   2.0000     -10.020470      -272.6708
  12   2.0000     -10.020432      -272.6698
  13   2.0000     -10.018609      -272.6202
  14   2.0000      -9.374138      -255.0833
  15   2.0000      -7.119571      -193.7334
  16   2.0000      -7.108998      -193.4457
  17   2.0000      -7.108328      -193.4274
  18   2.0000      -1.042888       -28.3784
  19   2.0000      -1.005763       -27.3682
  20   2.0000      -0.952763       -25.9260
  21   2.0000      -0.906037       -24.6545
  22   2.0000      -0.844526       -22.9807
  23   2.0000      -0.780224       -21.2310
  24   2.0000      -0.762797       -20.7568
  25   2.0000      -0.706364       -19.2212
  26   2.0000      -0.659800       -17.9541
  27   2.0000      -0.656441       -17.8627
  28   2.0000      -0.631578       -17.1861
  29   2.0000      -0.621790       -16.9198
  30   2.0000      -0.562634       -15.3100
  31   2.0000      -0.543106       -14.7787
  32   2.0000      -0.513855       -13.9827
  33   2.0000      -0.469265       -12.7693
  34   2.0000      -0.450547       -12.2600
  35   2.0000      -0.436171       -11.8688
  36   2.0000      -0.427313       -11.6278
  37   2.0000      -0.421826       -11.4785
  38   2.0000      -0.415979       -11.3194
  39   2.0000      -0.407161       -11.0794
  40   2.0000      -0.402241       -10.9455
  41   2.0000      -0.398597       -10.8464
  42   2.0000      -0.393118       -10.6973
  43   2.0000      -0.377265       -10.2659
  44   2.0000      -0.365647        -9.9497
  45   2.0000      -0.355348        -9.6695
  46   2.0000      -0.348957        -9.4956
  47   2.0000      -0.333960        -9.0875
  48   2.0000      -0.331091        -9.0095
  49   2.0000      -0.313727        -8.5369
  50   2.0000      -0.308101        -8.3839
  51   2.0000      -0.307007        -8.3541
  52   2.0000      -0.291940        -7.9441
  53   2.0000      -0.261609        -7.1187
  54   2.0000      -0.248595        -6.7646
  55   2.0000      -0.232037        -6.3141
  56   2.0000      -0.216970        -5.9041
  57   0.0000      -0.076988        -2.0949
  58   0.0000      -0.024622        -0.6700
  59   0.0000      -0.005216        -0.1419
  60   0.0000       0.020849         0.5673
  61   0.0000       0.041492         1.1290

MULLIKEN ATOMIC CHARGES
-----------------------
   0 C :   -0.316154
   1 C :    0.164811
   2 C :   -0.062077
   3 C :    0.218067
   4 O :   -0.369048
   5 N :   -0.040452
   6 C :    0.300287
   7 O :   -0.399013
   8 N :   -0.228123
   9 C :    0.135760
  10 C :   -0.347156
  11 C :   -0.328419
  12 C :   -0.394050
  13 Cl:   -0.082110
  14 H :    0.147309
  15 H :    0.145871
  16 H :    0.104238
  17 H :    0.242616
  18 H :    0.103163
  19 H :    0.157210
  20 H :    0.108767
  21 H :    0.103888
  22 H :    0.147753
  23 H :    0.107847
  24 H :    0.105372
  25 H :    0.132230
  26 H :    0.141413
Sum of atomic charges:   -0.0000000

LOEWDIN ATOMIC CHARGES
----------------------
   0 C :   -0.246516
   1 C :   -0.242335
   2 C :   -0.418971
   3 C :   -0.404538
   4 O :    0.092589
   5 N :    0.287478
   6 C :   -0.466664
   7 O :    0.063483
   8 N :    0.212619
   9 C :   -0.310121
  10 C :   -0.257499
  11 C :   -0.258319
  12 C :   -0.252586
  13 Cl:    0.422918
  14 H :    0.144472
  15 H :    0.146380
  16 H :    0.128078
  17 H :    0.209465
  18 H :    0.126062
  19 H :    0.129575
  20 H :    0.126067
  21 H :    0.126077
  22 H :    0.128225
  23 H :    0.125581
  24 H :    0.129025
  25 H :    0.129107
  26 H :    0.130346

  Mayer bond orders larger than 0.100000
B(  0-C ,  1-C ) :   0.9666 B(  0-C , 14-H ) :   0.9538 B(  0-C , 15-H ) :   0.9529
B(  0-C , 16-H ) :   0.9696 B(  1-C ,  2-C ) :   1.5482 B(  1-C ,  8-N ) :   1.1403
B(  2-C ,  3-C ) :   1.0604 B(  2-C , 13-Cl) :   1.1689 B(  3-C ,  4-O ) :   1.9542
B(  3-C ,  5-N ) :   1.0765 B(  5-N ,  6-C ) :   1.1439 B(  5-N ,  9-C ) :   0.8061
B(  6-C ,  7-O ) :   1.9270 B(  6-C ,  8-N ) :   1.1047 B(  8-N , 17-H ) :   0.8917
B(  9-C , 10-C ) :   0.9439 B(  9-C , 11-C ) :   0.9345 B(  9-C , 12-C ) :   0.9566
B( 10-C , 18-H ) :   0.9654 B( 10-C , 19-H ) :   0.9645 B( 10-C , 20-H ) :   0.9690
B( 11-C , 21-H ) :   0.9648 B( 11-C , 22-H ) :   0.9676 B( 11-C , 23-H ) :   0.9702
B( 12-C , 24-H ) :   0.9661 B( 12-C , 25-H ) :   0.9674 B( 12-C , 26-H ) :   0.9670

Dispersion correction           -0.011467098
FINAL SINGLE POINT ENERGY     -1070.867408230816

DIPOLE MOMENT
-------------

Method             : SCF
Type of density    : Electron Density
Multiplicity       :   1
Irrep              :   0
Energy             : -1070.8777200648810322 Eh
Relativity type    :
Basis              : AO
                                X                 Y                 Z
Electronic contribution:     19.075567143       2.583033900       1.870371900
Nuclear contribution   :    -18.421563400      -3.898786993      -2.358020969
                        -----------------------------------------
Total Dipole Moment    :      0.654003742      -1.315753093      -0.487649068
                        -----------------------------------------
Magnitude (a.u.)       :      1.548137174
Magnitude (Debye)      :      3.935051973

VIBRATIONAL FREQUENCIES
-----------------------

Scaling factor for frequencies =  1.000000000  (already applied!)

     0:       0.00 cm**-1
     1:       0.00 cm**-1
     2:       0.00 cm**-1
     3:       0.00 cm**-1
     4:       0.00 cm**-1
     5:       0.00 cm**-1
     6:      42.36 cm**-1
     7:      68.46 cm**-1
     8:      87.11 cm**-1
     9:      98.98 cm**-1
    10:     159.39 cm**-1
    11:     178.59 cm**-1
    12:     190.89 cm**-1
    13:     223.91 cm**-1
    14:     256.25 cm**-1
    15:     270.42 cm**-1
    16:     272.95 cm**-1
    17:     279.88 cm**-1
    18:     296.87 cm**-1
    19:     310.40 cm**-1
    20:     341.14 cm**-1
    21:     396.35 cm**-1
    22:     424.02 cm**-1
    23:     434.54 cm**-1
    24:     442.85 cm**-1
    25:     480.87 cm**-1
    26:     545.00 cm**-1
    27:     570.34 cm**-1
    28:     600.71 cm**-1
    29:     620.19 cm**-1
    30:     655.81 cm**-1
    31:     678.42 cm**-1
    32:     745.04 cm**-1
    33:     765.72 cm**-1
    34:     780.34 cm**-1
    35:     834.09 cm**-1
    36:     930.85 cm**-1
    37:     940.34 cm**-1
    38:     966.51 cm**-1
    39:    1015.33 cm**-1
    40:    1045.35 cm**-1
    41:    1046.65 cm**-1
    42:    1050.85 cm**-1
    43:    1060.61 cm**-1
    44:    1117.84 cm**-1
    45:    1135.32 cm**-1
    46:    1178.72 cm**-1
    47:    1205.21 cm**-1
    48:    1250.87 cm**-1
    49:    1264.67 cm**-1
    50:    1307.83 cm**-1
    51:    1389.76 cm**-1
    52:    1391.75 cm**-1
    53:    1395.82 cm**-1
    54:    1410.13 cm**-1
    55:    1428.31 cm**-1
    56:    1459.63 cm**-1
    57:    1463.39 cm**-1
    58:    1476.78 cm**-1
    59:    1481.99 cm**-1
    60:    1485.01 cm**-1
    61:    1489.45 cm**-1
    62:    1502.84 cm**-1
    63:    1518.92 cm**-1
    64:    1525.25 cm**-1
    65:    1645.62 cm**-1
    66:    1653.39 cm**-1
    67:    1715.75 cm**-1
    68:    3017.26 cm**-1
    69:    3023.93 cm**-1
    70:    3024.30 cm**-1
    71:    3031.89 cm**-1
    72:    3092.82 cm**-1
    73:    3094.55 cm**-1
    74:    3096.63 cm**-1
    75:    3105.80 cm**-1
    76:    3111.19 cm**-1
    77:    3124.34 cm**-1
    78:    3158.32 cm**-1
    79:    3164.13 cm**-1
    80:    3563.76 cm**-1

IR SPECTRUM
-----------

 Mode   freq       eps      Int      T**2         TX        TY        TZ
       cm**-1   L/(mol*cm) km/mol    a.u.
----------------------------------------------------------------------------
  6:     42.36   0.000028    0.14  0.000204  (-0.004556 -0.009035  0.010063)
  7:     68.46   0.000847    4.28  0.003861  ( 0.003472 -0.003555  0.061942)
  8:     87.11   0.000185    0.93  0.000661  ( 0.011620  0.021387  0.008283)
  9:     98.98   0.000285    1.44  0.000897  ( 0.015725  0.015205  0.020461)
 10:    159.39   0.000106    0.54  0.000208  (-0.009064 -0.009454 -0.006022)
 11:    178.59   0.000198    1.00  0.000347  (-0.009856  0.001520 -0.015719)
 12:    190.89   0.000224    1.13  0.000366  (-0.016674  0.000291  0.009376)
 13:    223.91   0.000100    0.51  0.000139  (-0.001110  0.007971 -0.008637)
 14:    256.25   0.000341    1.72  0.000415  (-0.015161  0.013599  0.000421)
 15:    270.42   0.000278    1.40  0.000320  (-0.012703 -0.012586 -0.000761)
 16:    272.95   0.000003    0.01  0.000003  ( 0.001004  0.001165 -0.000843)
 17:    279.88   0.000014    0.07  0.000015  ( 0.003254 -0.002169  0.000412)
 18:    296.87   0.000427    2.16  0.000449  (-0.015197  0.013421 -0.006151)
 19:    310.40   0.000368    1.86  0.000370  ( 0.018704  0.004335  0.000978)
 20:    341.14   0.000353    1.78  0.000323  (-0.010471 -0.014420  0.002323)
 21:    396.35   0.000103    0.52  0.000081  (-0.008775  0.001584 -0.001325)
 22:    424.02   0.002237   11.31  0.001646  ( 0.033239 -0.017645  0.015173)
 23:    434.54   0.000729    3.68  0.000523  (-0.019237  0.002835 -0.012048)
 24:    442.85   0.000412    2.08  0.000290  (-0.013030  0.008733 -0.006661)
 25:    480.87   0.001948    9.84  0.001264  ( 0.023250 -0.024060 -0.012031)
 26:    545.00   0.000804    4.06  0.000461  ( 0.012558 -0.015417  0.008074)
 27:    570.34   0.000447    2.26  0.000244  ( 0.002395 -0.003548 -0.015037)
 28:    600.71   0.003191   16.12  0.001658  ( 0.017656  0.018919 -0.031431)
 29:    620.19   0.013237   66.89  0.006660  ( 0.023058  0.042158  0.065965)
 30:    655.81   0.002703   13.66  0.001286  ( 0.029469  0.016861  0.011547)
 31:    678.42   0.000219    1.11  0.000101  (-0.006085  0.007088  0.003659)
 32:    745.04   0.005138   25.96  0.002152  (-0.030525 -0.027562 -0.021460)
 33:    765.72   0.002317   11.71  0.000944  ( 0.027177  0.013416  0.005054)
 34:    780.34   0.007465   37.73  0.002985  ( 0.035404  0.013799 -0.039262)
 35:    834.09   0.001139    5.76  0.000426  (-0.010937 -0.017460  0.001272)
 36:    930.85   0.000522    2.64  0.000175  ( 0.011136  0.007021 -0.001305)
 37:    940.34   0.000224    1.13  0.000074  (-0.007862  0.000900 -0.003432)
 38:    966.51   0.000028    0.14  0.000009  ( 0.002861  0.000974  0.000251)
 39:   1015.33   0.002168   10.95  0.000666  ( 0.023959 -0.009506 -0.001346)
 40:   1045.35   0.002140   10.82  0.000639  ( 0.000713  0.024408 -0.006528)
 41:   1046.65   0.001080    5.46  0.000322  (-0.000457 -0.014492 -0.010568)
 42:   1050.85   0.000861    4.35  0.000256  (-0.008191 -0.012498 -0.005684)
 43:   1060.61   0.000500    2.53  0.000147  ( 0.010746  0.005534  0.000972)
 44:   1117.84   0.006089   30.77  0.001700  ( 0.023955  0.033487  0.002145)
 45:   1135.32   0.007481   37.81  0.002056  ( 0.030774  0.033225 -0.002322)
 46:   1178.72   0.000149    0.75  0.000039  ( 0.002319  0.003895 -0.004353)
 47:   1205.21   0.021060  106.43  0.005453  ( 0.068081 -0.025233  0.013467)
 48:   1250.87   0.002326   11.75  0.000580  ( 0.001229  0.000109 -0.024057)
 49:   1264.67   0.001505    7.60  0.000371  (-0.012724 -0.014406 -0.001359)
 50:   1307.83   0.005232   26.44  0.001248  ( 0.013313 -0.032353  0.004945)
 51:   1389.76   0.009017   45.57  0.002025  (-0.037374 -0.000592  0.025051)
 52:   1391.75   0.014871   75.15  0.003334  ( 0.055806  0.009777  0.011154)
 53:   1395.82   0.016946   85.64  0.003789  ( 0.053567 -0.030317 -0.000411)
 54:   1410.13   0.006661   33.66  0.001474  (-0.038180 -0.001292  0.003842)
 55:   1428.31   0.002849   14.40  0.000623  ( 0.022453 -0.007465  0.007917)
 56:   1459.63   0.002497   12.62  0.000534  ( 0.005629  0.004165  0.022020)
 57:   1463.39   0.000351    1.77  0.000075  (-0.000060 -0.008598  0.000946)
 58:   1476.78   0.001772    8.95  0.000374  ( 0.004882  0.018403 -0.003447)
 59:   1481.99   0.000108    0.55  0.000023  ( 0.000192 -0.002110 -0.004269)
 60:   1485.01   0.000159    0.80  0.000033  (-0.003025  0.003921  0.002972)
 61:   1489.45   0.006228   31.48  0.001305  (-0.007925 -0.035235  0.000822)
 62:   1502.84   0.001950    9.85  0.000405  ( 0.015373 -0.004173 -0.012293)
 63:   1518.92   0.000283    1.43  0.000058  ( 0.000368 -0.007593  0.000590)
 64:   1525.25   0.014234   71.93  0.002912  (-0.052460  0.012638 -0.000677)
 65:   1645.62   0.011867   59.97  0.002250  (-0.039255  0.026636 -0.000058)
 66:   1653.39   0.100782  509.31  0.019022  ( 0.005196  0.137747  0.004536)
 67:   1715.75   0.082857  418.72  0.015070  ( 0.107913  0.045168 -0.037211)
 68:   3017.26   0.004680   23.65  0.000484  (-0.013127  0.004743  0.017006)
 69:   3023.93   0.001029    5.20  0.000106  (-0.002743 -0.009748  0.001910)
 70:   3024.30   0.001384    6.99  0.000143  (-0.004601  0.011003  0.000739)
 71:   3031.89   0.007186   36.31  0.000740  ( 0.014030 -0.001483  0.023250)
 72:   3092.82   0.000095    0.48  0.000010  (-0.001792 -0.002271  0.001118)
 73:   3094.55   0.000337    1.70  0.000034  (-0.001239  0.002414 -0.005155)
 74:   3096.63   0.002120   10.71  0.000214  ( 0.007734 -0.006292  0.010686)
 75:   3105.80   0.014002   70.76  0.001407  ( 0.033596 -0.016125 -0.004265)
 76:   3111.19   0.001739    8.79  0.000174  ( 0.009976  0.008559  0.001276)
 77:   3124.34   0.002239   11.32  0.000224  ( 0.000167 -0.014947  0.000490)
 78:   3158.32   0.001219    6.16  0.000120  ( 0.003595  0.006277 -0.008255)
 79:   3164.13   0.000811    4.10  0.000080  (-0.002706 -0.007762 -0.003525)
 80:   3563.76   0.016346   82.60  0.001431  (-0.006701  0.037112 -0.003017)

--------------------------
THERMOCHEMISTRY AT 298.15K
--------------------------

Temperature         ...   298.15 K
Pressure            ...     1.00 atm
Total Mass          ...   216.67 AMU
Quasi RRHO          ...     True
Cut-Off Frequency   ...     1.00 cm^-1

Throughout the following assumptions are being made:
  (1) The electronic state is orbitally nondegenerate
  (2) There are no thermally accessible electronically excited states
  (3) Hindered rotations indicated by low frequency modes are not
      treated as such but are treated as vibrations and this may
      cause some error
  (4) All equations used are the standard statistical mechanics
      equations for an ideal gas
  (5) All vibrations are strictly harmonic

freq.      42.36  E(vib)   ...       0.53
freq.      68.46  E(vib)   ...       0.50
freq.      87.11  E(vib)   ...       0.48
freq.      98.98  E(vib)   ...       0.46
freq.     159.39  E(vib)   ...       0.39
freq.     178.59  E(vib)   ...       0.37
freq.     190.89  E(vib)   ...       0.36
freq.     223.91  E(vib)   ...       0.33
freq.     256.25  E(vib)   ...       0.30
freq.     270.42  E(vib)   ...       0.29
freq.     272.95  E(vib)   ...       0.29
freq.     279.88  E(vib)   ...       0.28
freq.     296.87  E(vib)   ...       0.27
freq.     310.40  E(vib)   ...       0.26
freq.     341.14  E(vib)   ...       0.23
freq.     396.35  E(vib)   ...       0.20
freq.     424.02  E(vib)   ...       0.18
freq.     434.54  E(vib)   ...       0.17
freq.     442.85  E(vib)   ...       0.17
freq.     480.87  E(vib)   ...       0.15
freq.     545.00  E(vib)   ...       0.12
freq.     570.34  E(vib)   ...       0.11
freq.     600.71  E(vib)   ...       0.10
freq.     620.19  E(vib)   ...       0.09
freq.     655.81  E(vib)   ...       0.08
freq.     678.42  E(vib)   ...       0.08
freq.     745.04  E(vib)   ...       0.06
freq.     765.72  E(vib)   ...       0.06
freq.     780.34  E(vib)   ...       0.05
freq.     834.09  E(vib)   ...       0.04
freq.     930.85  E(vib)   ...       0.03
freq.     940.34  E(vib)   ...       0.03
freq.     966.51  E(vib)   ...       0.03
freq.    1015.33  E(vib)   ...       0.02
freq.    1045.35  E(vib)   ...       0.02
freq.    1046.65  E(vib)   ...       0.02
freq.    1050.85  E(vib)   ...       0.02
freq.    1060.61  E(vib)   ...       0.02
freq.    1117.84  E(vib)   ...       0.01
freq.    1135.32  E(vib)   ...       0.01
freq.    1178.72  E(vib)   ...       0.01
freq.    1205.21  E(vib)   ...       0.01
freq.    1250.87  E(vib)   ...       0.01
freq.    1264.67  E(vib)   ...       0.01
freq.    1307.83  E(vib)   ...       0.01
freq.    1389.76  E(vib)   ...       0.00
freq.    1391.75  E(vib)   ...       0.00
freq.    1395.82  E(vib)   ...       0.00
freq.    1410.13  E(vib)   ...       0.00
freq.    1428.31  E(vib)   ...       0.00
freq.    1459.63  E(vib)   ...       0.00
freq.    1463.39  E(vib)   ...       0.00
freq.    1476.78  E(vib)   ...       0.00
freq.    1481.99  E(vib)   ...       0.00
freq.    1485.01  E(vib)   ...       0.00
freq.    1489.45  E(vib)   ...       0.00
freq.    1502.84  E(vib)   ...       0.00
freq.    1518.92  E(vib)   ...       0.00
freq.    1525.25  E(vib)   ...       0.00
freq.    1645.62  E(vib)   ...       0.00
freq.    1653.39  E(vib)   ...       0.00
freq.    1715.75  E(vib)   ...       0.00
freq.    3017.26  E(vib)   ...       0.00
freq.    3023.93  E(vib)   ...       0.00
freq.    3024.30  E(vib)   ...       0.00
freq.    3031.89  E(vib)   ...       0.00
freq.    3092.82  E(vib)   ...       0.00
freq.    3094.55  E(vib)   ...       0.00
freq.    3096.63  E(vib)   ...       0.00
freq.    3105.80  E(vib)   ...       0.00
freq.    3111.19  E(vib)   ...       0.00
freq.    3124.34  E(vib)   ...       0.00
freq.    3158.32  E(vib)   ...       0.00
freq.    3164.13  E(vib)   ...       0.00
freq.    3563.76  E(vib)   ...       0.00

------------
INNER ENERGY
------------

The inner energy is: U= E(el) + E(ZPE) + E(vib) + E(rot) + E(trans)
    E(el)   - is the total energy from the electronic structure calculation
              = E(kin-el) + E(nuc-el) + E(el-el) + E(nuc-nuc)
    E(ZPE)  - the the zero temperature vibrational energy from the frequency calculation
    E(vib)  - the the finite temperature correction to E(ZPE) due to population
              of excited vibrational states
    E(rot)  - is the rotational thermal energy
    E(trans)- is the translational thermal energy

Summary of contributions to the inner energy U:
Electronic energy                ...  -1070.86740823 Eh
Zero point energy                ...      0.21554098 Eh     135.25 kcal/mol
Thermal vibrational correction   ...      0.01166095 Eh       7.32 kcal/mol
Thermal rotational correction    ...      0.00141627 Eh       0.89 kcal/mol
Thermal translational correction ...      0.00141627 Eh       0.89 kcal/mol
-----------------------------------------------------------------------
Total thermal energy                  -1070.63737376 Eh

Summary of corrections to the electronic energy:
(perhaps to be used in another calculation)
Total thermal correction                  0.01449349 Eh       9.09 kcal/mol
Non-thermal (ZPE) correction              0.21554098 Eh     135.25 kcal/mol
-----------------------------------------------------------------------
Total correction                          0.23003447 Eh     144.35 kcal/mol

--------
ENTHALPY
--------

The enthalpy is H = U + kB*T
                kB is Boltzmann's constant
Total thermal energy              ...  -1070.63737376 Eh
Thermal Enthalpy correction       ...      0.00094421 Eh       0.59 kcal/mol
-----------------------------------------------------------------------
Total Enthalpy                    ...  -1070.63642955 Eh

Note: Only C1 symmetry has been detected, increase convergence thresholds
      if your molecule has a higher symmetry. Symmetry factor of 1.0 is
      used for the rotational entropy correction.

Note: Rotational entropy computed according to Herzberg
Infrared and Raman Spectra, Chapter V,1, Van Nostrand Reinhold, 1945
Point Group:  C1, Symmetry Number:   1
Rotational constants in cm-1:     0.033376     0.015874     0.011824

Vibrational entropy computed according to the QRRHO of S. Grimme
Chem.Eur.J. 2012 18 9955 using a reference frequency of 100.0 cm-1

-------
ENTROPY
-------

The entropy contributions are T*S = T*(S(el)+S(vib)+S(rot)+S(trans))
     S(el)   - electronic entropy
     S(vib)  - vibrational entropy
     S(rot)  - rotational entropy
     S(trans)- translational entropy

                             ****ORCA TERMINATED NORMALLY****
TOTAL RUN TIME: 0 days 0 hours 28 minutes 2 seconds 516 msec
