                         Program Version 6.0.0  -   RELEASE  -
|  1> ! r2SCAN-3c DEF2-TZVP FREQ
|  2> * xyzfile 0 1 vacuum_censo.xyz
|  3>
|  4>                          ****END OF INPUT****

CARTESIAN COORDINATES (ANGSTROEM)
---------------------------------
  C      3.071000    1.720529    0.467173
  C      1.737628    1.081953    0.261541
  C      1.542392   -0.194417   -0.145103
  C      0.209367   -0.736924   -0.384809
  O      0.014400   -1.792376   -0.956971
  N     -0.859337    0.066363    0.120587
  C     -0.696686    1.443039    0.269119
  O     -1.582431    2.279351    0.252173
  N      0.623078    1.852811    0.468249
  C     -2.259080   -0.534028    0.206844
  C     -3.108456    0.237769    1.232794
  C     -2.906823   -0.486841   -1.177264
  C     -2.162601   -1.978708    0.731894
  Cl     2.890841   -1.226773   -0.498733
  H      3.647299    1.160017    1.208746
  H      2.972163    2.753861    0.807005
  H      3.646773    1.705261   -0.463067
  H      0.718994    2.851034    0.578739
  H     -3.994779   -0.367104    1.440987
  H     -2.565520    0.367259    2.174757
  H     -3.426681    1.213352    0.876130
  H     -3.915324   -0.908603   -1.119856
  H     -2.325420   -1.070704   -1.894689
  H     -2.985773    0.546947   -1.525666
  H     -3.177075   -2.312194    0.964966
  H     -1.726508   -2.666678    0.013343
  H     -1.578169   -2.013904    1.657424

 Total Charge           Charge          ....    0
 Multiplicity           Mult            ....    1
 Number of Electrons    NEL             ....  114
 Basis Dimension        Dim             ....  518

ORBITAL ENERGIES
----------------

  NO   OCC          E(Eh)            E(eV)
   0   2.0000    -101.199016     -2753.7652
   1   2.0000     -18.936230      -515.2810
   2   2.0000     -18.931725      -515.1584
   3   2.0000     -14.234790      -387.3483
   4   2.0000     -14.224251      -387.0615
   5   2.0000     -10.182493      -277.0797
   6   2.0000     -10.153627      -276.2942
   7   2.0000     -10.125610      -275.5318
   8   2.0000     -10.100576      -274.8507
   9   2.0000     -10.097777      -274.7745
  10   2.0000     -10.069724      -274.0111
  11   2.0000     -10.020322      -272.6668
  12   2.0000     -10.019717      -272.6504
  13   2.0000     -10.018185      -272.6087
  14   2.0000      -9.374540      -255.0942
  15   2.0000      -7.119950      -193.7437
  16   2.0000      -7.109397      -193.4565
  17   2.0000      -7.108730      -193.4384
  18   2.0000      -1.045171       -28.4405
  19   2.0000      -1.014346       -27.6018
  20   2.0000      -0.951153       -25.8822
  21   2.0000      -0.906247       -24.6602
  22   2.0000      -0.845555       -23.0087
  23   2.0000      -0.778048       -21.1718
  24   2.0000      -0.760590       -20.6967
  25   2.0000      -0.704139       -19.1606
  26   2.0000      -0.659510       -17.9462
  27   2.0000      -0.656429       -17.8623
  28   2.0000      -0.628085       -17.0911
  29   2.0000      -0.619724       -16.8635
  30   2.0000      -0.561630       -15.2827
  31   2.0000      -0.540254       -14.7011
  32   2.0000      -0.511930       -13.9303
  33   2.0000      -0.467561       -12.7230
  34   2.0000      -0.448899       -12.2152
  35   2.0000      -0.436239       -11.8707
  36   2.0000      -0.426580       -11.6078
  37   2.0000      -0.422825       -11.5057
  38   2.0000      -0.417340       -11.3564
  39   2.0000      -0.406649       -11.0655
  40   2.0000      -0.401612       -10.9284
  41   2.0000      -0.398680       -10.8486
  42   2.0000      -0.395578       -10.7642
  43   2.0000      -0.379831       -10.3357
  44   2.0000      -0.364964        -9.9312
  45   2.0000      -0.355477        -9.6730
  46   2.0000      -0.348447        -9.4817
  47   2.0000      -0.335101        -9.1186
  48   2.0000      -0.331562        -9.0223
  49   2.0000      -0.314116        -8.5475
  50   2.0000      -0.309475        -8.4212
  51   2.0000      -0.307679        -8.3724
  52   2.0000      -0.292398        -7.9565
  53   2.0000      -0.264053        -7.1852
  54   2.0000      -0.250280        -6.8105
  55   2.0000      -0.235498        -6.4082
  56   2.0000      -0.216807        -5.8996
  57   0.0000      -0.074830        -2.0362
  58   0.0000      -0.024318        -0.6617
  59   0.0000      -0.002556        -0.0696
  60   0.0000       0.023094         0.6284
  61   0.0000       0.042815         1.1651

MULLIKEN ATOMIC CHARGES
-----------------------
   0 C :   -0.323402
   1 C :    0.168302
   2 C :   -0.066165
   3 C :    0.218431
   4 O :   -0.352937
   5 N :   -0.047435
   6 C :    0.300702
   7 O :   -0.387517
   8 N :   -0.238592
   9 C :    0.138889
  10 C :   -0.335211
  11 C :   -0.392287
  12 C :   -0.354063
  13 Cl:   -0.081396
  14 H :    0.145112
  15 H :    0.107975
  16 H :    0.146400
  17 H :    0.241846
  18 H :    0.104252
  19 H :    0.107948
  20 H :    0.150673
  21 H :    0.104950
  22 H :    0.142177
  23 H :    0.130657
  24 H :    0.103838
  25 H :    0.158924
  26 H :    0.107929
Sum of atomic charges:    0.0000000

LOEWDIN ATOMIC CHARGES
----------------------
   0 C :   -0.248227
   1 C :   -0.241918
   2 C :   -0.425796
   3 C :   -0.404944
   4 O :    0.111080
   5 N :    0.282680
   6 C :   -0.469375
   7 O :    0.077286
   8 N :    0.205068
   9 C :   -0.315689
  10 C :   -0.258698
  11 C :   -0.252589
  12 C :   -0.257672
  13 Cl:    0.428080
  14 H :    0.144440
  15 H :    0.127996
  16 H :    0.144116
  17 H :    0.205538
  18 H :    0.126238
  19 H :    0.125472
  20 H :    0.128238
  21 H :    0.128328
  22 H :    0.130331
  23 H :    0.128675
  24 H :    0.126139
  25 H :    0.129553
  26 H :    0.125650

  Mayer bond orders larger than 0.100000
B(  0-C ,  1-C ) :   0.9644 B(  0-C , 14-H ) :   0.9550 B(  0-C , 15-H ) :   0.9714
B(  0-C , 16-H ) :   0.9518 B(  1-C ,  2-C ) :   1.5637 B(  1-C ,  8-N ) :   1.1360
B(  2-C ,  3-C ) :   1.0482 B(  2-C , 13-Cl) :   1.1698 B(  3-C ,  4-O ) :   1.9658
B(  3-C ,  5-N ) :   1.0664 B(  5-N ,  6-C ) :   1.1432 B(  5-N ,  9-C ) :   0.8086
B(  6-C ,  7-O ) :   1.9319 B(  6-C ,  8-N ) :   1.0967 B(  8-N , 17-H ) :   0.8934
B(  9-C , 10-C ) :   0.9342 B(  9-C , 11-C ) :   0.9560 B(  9-C , 12-C ) :   0.9421
B( 10-C , 18-H ) :   0.9661 B( 10-C , 19-H ) :   0.9708 B( 10-C , 20-H ) :   0.9658
B( 11-C , 21-H ) :   0.9671 B( 11-C , 22-H ) :   0.9663 B( 11-C , 23-H ) :   0.9668
B( 12-C , 24-H ) :   0.9669 B( 12-C , 25-H ) :   0.9633 B( 12-C , 26-H ) :   0.9693

Dispersion correction           -0.011465213
FINAL SINGLE POINT ENERGY     -1070.868501474836

DIPOLE MOMENT
-------------

Method             : SCF
Type of density    : Electron Density
Multiplicity       :   1
Irrep              :   0
Energy             : -1070.8788427654751558 Eh
Relativity type    :
Basis              : AO
                                X                 Y                 Z
Electronic contribution:     18.629927570      -1.814971766      -4.306387261
Nuclear contribution   :    -17.923206072       2.891180872       5.008393324
                        -----------------------------------------
Total Dipole Moment    :      0.706721499       1.076209105       0.702006062
                        -----------------------------------------
Magnitude (a.u.)       :      1.466456214
Magnitude (Debye)      :      3.727435471

VIBRATIONAL FREQUENCIES
-----------------------

Scaling factor for frequencies =  1.000000000  (already applied!)

     0:       0.00 cm**-1
     1:       0.00 cm**-1
     2:       0.00 cm**-1
     3:       0.00 cm**-1
     4:       0.00 cm**-1
     5:       0.00 cm**-1
     6:      44.57 cm**-1
     7:      69.09 cm**-1
     8:      83.87 cm**-1
     9:      98.77 cm**-1
    10:     160.78 cm**-1
    11:     172.47 cm**-1
    12:     192.99 cm**-1
    13:     224.66 cm**-1
    14:     259.61 cm**-1
    15:     271.45 cm**-1
    16:     274.45 cm**-1
    17:     282.97 cm**-1
    18:     298.48 cm**-1
    19:     310.16 cm**-1
    20:     343.86 cm**-1
    21:     395.11 cm**-1
    22:     421.09 cm**-1
    23:     433.51 cm**-1
    24:     445.37 cm**-1
    25:     478.22 cm**-1
    26:     536.99 cm**-1
    27:     555.26 cm**-1
    28:     586.73 cm**-1
    29:     605.92 cm**-1
    30:     651.98 cm**-1
    31:     676.09 cm**-1
    32:     741.43 cm**-1
    33:     761.34 cm**-1
    34:     775.31 cm**-1
    35:     835.68 cm**-1
    36:     929.60 cm**-1
    37:     935.89 cm**-1
    38:     965.59 cm**-1
    39:    1008.67 cm**-1
    40:    1037.78 cm**-1
    41:    1042.16 cm**-1
    42:    1046.35 cm**-1
    43:    1057.37 cm**-1
    44:    1117.63 cm**-1
    45:    1124.96 cm**-1
    46:    1138.11 cm**-1
    47:    1210.63 cm**-1
    48:    1249.22 cm**-1
    49:    1264.88 cm**-1
    50:    1291.28 cm**-1
    51:    1371.49 cm**-1
    52:    1386.67 cm**-1
    53:    1391.25 cm**-1
    54:    1408.06 cm**-1
    55:    1424.71 cm**-1
    56:    1461.78 cm**-1
    57:    1463.63 cm**-1
    58:    1473.53 cm**-1
    59:    1482.36 cm**-1
    60:    1486.73 cm**-1
    61:    1490.78 cm**-1
    62:    1501.28 cm**-1
    63:    1507.77 cm**-1
    64:    1522.83 cm**-1
    65:    1655.55 cm**-1
    66:    1710.13 cm**-1
    67:    1757.43 cm**-1
    68:    3017.26 cm**-1
    69:    3021.78 cm**-1
    70:    3024.94 cm**-1
    71:    3029.44 cm**-1
    72:    3089.75 cm**-1
    73:    3095.74 cm**-1
    74:    3095.99 cm**-1
    75:    3101.70 cm**-1
    76:    3115.41 cm**-1
    77:    3117.05 cm**-1
    78:    3165.68 cm**-1
    79:    3168.13 cm**-1
    80:    3611.68 cm**-1

IR SPECTRUM
-----------

 Mode   freq       eps      Int      T**2         TX        TY        TZ
       cm**-1   L/(mol*cm) km/mol    a.u.
----------------------------------------------------------------------------
  6:     44.57   0.000014    0.07  0.000101  (-0.005221  0.008545 -0.001101)
  7:     69.09   0.000823    4.16  0.003718  (-0.005823  0.024839 -0.055382)
  8:     83.87   0.000360    1.82  0.001339  (-0.013463  0.013849  0.031086)
  9:     98.77   0.000114    0.58  0.000361  (-0.006312  0.003506  0.017581)
 10:    160.78   0.000116    0.59  0.000226  (-0.007695  0.005203  0.011810)
 11:    172.47   0.000123    0.62  0.000223  (-0.001643  0.011396 -0.009512)
 12:    192.99   0.000238    1.20  0.000385  (-0.019553 -0.001192 -0.000968)
 13:    224.66   0.000124    0.63  0.000173  ( 0.004171 -0.012081  0.003043)
 14:    259.61   0.000351    1.77  0.000422  ( 0.015603  0.013096  0.002681)
 15:    271.45   0.000186    0.94  0.000214  ( 0.012379 -0.007076 -0.003270)
 16:    274.45   0.000066    0.33  0.000075  ( 0.005330 -0.004657 -0.005000)
 17:    282.97   0.000068    0.34  0.000075  ( 0.007241  0.004660 -0.000735)
 18:    298.48   0.000287    1.45  0.000300  ( 0.010074  0.014071 -0.000633)
 19:    310.16   0.000412    2.08  0.000415  ( 0.020049 -0.003228 -0.001484)
 20:    343.86   0.000352    1.78  0.000319  ( 0.009553 -0.014634 -0.003754)
 21:    395.11   0.000109    0.55  0.000086  ( 0.009057  0.001328 -0.001629)
 22:    421.09   0.001388    7.02  0.001029  (-0.024043 -0.019317  0.008814)
 23:    433.51   0.001761    8.90  0.001268  ( 0.028361  0.013244 -0.016975)
 24:    445.37   0.000475    2.40  0.000333  (-0.013443 -0.009602  0.007754)
 25:    478.22   0.002454   12.40  0.001602  ( 0.024304  0.021599  0.023333)
 26:    536.99   0.000986    4.98  0.000573  ( 0.010204  0.011387 -0.018419)
 27:    555.26   0.005373   27.15  0.003019  ( 0.007518  0.011157  0.053277)
 28:    586.73   0.006072   30.69  0.003230  ( 0.001186  0.000802  0.056812)
 29:    605.92   0.005147   26.01  0.002651  (-0.019932  0.034839  0.032248)
 30:    651.98   0.002944   14.88  0.001409  (-0.026498  0.016626  0.020753)
 31:    676.09   0.000281    1.42  0.000130  ( 0.006639  0.007927  0.004762)
 32:    741.43   0.004560   23.05  0.001919  (-0.024144  0.019297  0.031050)
 33:    761.34   0.003205   16.20  0.001314  (-0.030251  0.012039  0.015926)
 34:    775.31   0.007705   38.94  0.003101  (-0.040310  0.024712 -0.029423)
 35:    835.68   0.001316    6.65  0.000492  (-0.013853  0.015877  0.006895)
 36:    929.60   0.000554    2.80  0.000186  (-0.011252  0.007347  0.002336)
 37:    935.89   0.000209    1.06  0.000070  ( 0.007227  0.001249 -0.003994)
 38:    965.59   0.000042    0.21  0.000014  (-0.003128  0.001245  0.001485)
 39:   1008.67   0.002272   11.48  0.000703  (-0.025783 -0.006149  0.000446)
 40:   1037.78   0.000552    2.79  0.000166  ( 0.003269 -0.010533  0.006669)
 41:   1042.16   0.003243   16.39  0.000971  ( 0.007578 -0.025568 -0.016121)
 42:   1046.35   0.000997    5.04  0.000297  ( 0.004362 -0.016669 -0.000709)
 43:   1057.37   0.000059    0.30  0.000017  ( 0.000931 -0.002813  0.002951)
 44:   1117.63   0.007672   38.77  0.002142  ( 0.024689 -0.036165 -0.014991)
 45:   1124.96   0.007696   38.89  0.002135  ( 0.032049 -0.031593 -0.010467)
 46:   1138.11   0.000077    0.39  0.000021  ( 0.002175 -0.003560  0.001942)
 47:   1210.63   0.020768  104.95  0.005353  (-0.066796 -0.027794  0.010911)
 48:   1249.22   0.002509   12.68  0.000627  (-0.000410 -0.009999  0.022946)
 49:   1264.88   0.002162   10.93  0.000533  ( 0.015894 -0.014808 -0.007848)
 50:   1291.28   0.005966   30.15  0.001442  (-0.017939 -0.033105 -0.004898)
 51:   1371.49   0.042944  217.02  0.009771  (-0.097312 -0.017254  0.001995)
 52:   1386.67   0.003566   18.02  0.000802  (-0.008054  0.007078 -0.026219)
 53:   1391.25   0.004436   22.42  0.000995  ( 0.004978  0.029371  0.010366)
 54:   1408.06   0.003713   18.76  0.000823  ( 0.028524 -0.002373 -0.001878)
 55:   1424.71   0.003149   15.91  0.000690  (-0.023065 -0.010053  0.007528)
 56:   1461.78   0.002547   12.87  0.000544  (-0.002303  0.012785 -0.019363)
 57:   1463.63   0.000493    2.49  0.000105  ( 0.002004 -0.009452 -0.003425)
 58:   1473.53   0.003993   20.18  0.000846  (-0.016155  0.020877  0.012200)
 59:   1482.36   0.000176    0.89  0.000037  (-0.004024  0.002105 -0.004047)
 60:   1486.73   0.000201    1.02  0.000042  ( 0.006048  0.001168  0.002063)
 61:   1490.78   0.004940   24.96  0.001034  (-0.008958  0.029264  0.009867)
 62:   1501.28   0.001713    8.66  0.000356  ( 0.015676  0.000223  0.010501)
 63:   1507.77   0.006861   34.67  0.001420  (-0.037581 -0.002747 -0.000257)
 64:   1522.83   0.007864   39.74  0.001611  (-0.037862 -0.013330  0.000469)
 65:   1655.55   0.024377  123.19  0.004595  ( 0.041480  0.051406  0.015223)
 66:   1710.13   0.100597  508.38  0.018357  (-0.026328  0.126134  0.041880)
 67:   1757.43   0.064936  328.16  0.011531  (-0.099166  0.037901 -0.016133)
 68:   3017.26   0.004790   24.21  0.000495  (-0.014057  0.001219 -0.017214)
 69:   3021.78   0.000977    4.94  0.000101  ( 0.003038 -0.009443 -0.001599)
 70:   3024.94   0.001622    8.20  0.000167  (-0.005573 -0.011322 -0.002836)
 71:   3029.44   0.007735   39.09  0.000797  (-0.013710 -0.009303  0.022854)
 72:   3089.75   0.000058    0.29  0.000006  ( 0.000092  0.002314  0.000673)
 73:   3095.74   0.001640    8.29  0.000165  (-0.002191 -0.007866  0.009931)
 74:   3095.99   0.000370    1.87  0.000037  (-0.000032  0.001126 -0.006006)
 75:   3101.70   0.014506   73.31  0.001459  ( 0.034642  0.014902  0.006111)
 76:   3115.41   0.001496    7.56  0.000150  (-0.008239  0.007731  0.004708)
 77:   3117.05   0.002098   10.60  0.000210  (-0.000035 -0.013839 -0.004302)
 78:   3165.68   0.000922    4.66  0.000091  (-0.004407  0.006746 -0.005091)
 79:   3168.13   0.000831    4.20  0.000082  (-0.002198  0.007613  0.004370)
 80:   3611.68   0.015783   79.76  0.001364  ( 0.005731  0.035952  0.006191)

--------------------------
THERMOCHEMISTRY AT 298.15K
--------------------------

Temperature         ...   298.15 K
Pressure            ...     1.00 atm
Total Mass          ...   216.67 AMU
Quasi RRHO          ...     True
Cut-Off Frequency   ...     1.00 cm^-1

Throughout the following assumptions are being made:
  (1) The electronic state is orbitally nondegenerate
  (2) There are no thermally accessible electronically excited states
  (3) Hindered rotations indicated by low frequency modes are not
      treated as such but are treated as vibrations and this may
      cause some error
  (4) All equations used are the standard statistical mechanics
      equations for an ideal gas
  (5) All vibrations are strictly harmonic

freq.      44.57  E(vib)   ...       0.53
freq.      69.09  E(vib)   ...       0.50
freq.      83.87  E(vib)   ...       0.48
freq.      98.77  E(vib)   ...       0.46
freq.     160.78  E(vib)   ...       0.39
freq.     172.47  E(vib)   ...       0.38
freq.     192.99  E(vib)   ...       0.36
freq.     224.66  E(vib)   ...       0.33
freq.     259.61  E(vib)   ...       0.30
freq.     271.45  E(vib)   ...       0.29
freq.     274.45  E(vib)   ...       0.28
freq.     282.97  E(vib)   ...       0.28
freq.     298.48  E(vib)   ...       0.26
freq.     310.16  E(vib)   ...       0.26
freq.     343.86  E(vib)   ...       0.23
freq.     395.11  E(vib)   ...       0.20
freq.     421.09  E(vib)   ...       0.18
freq.     433.51  E(vib)   ...       0.17
freq.     445.37  E(vib)   ...       0.17
freq.     478.22  E(vib)   ...       0.15
freq.     536.99  E(vib)   ...       0.12
freq.     555.26  E(vib)   ...       0.12
freq.     586.73  E(vib)   ...       0.11
freq.     605.92  E(vib)   ...       0.10
freq.     651.98  E(vib)   ...       0.08
freq.     676.09  E(vib)   ...       0.08
freq.     741.43  E(vib)   ...       0.06
freq.     761.34  E(vib)   ...       0.06
freq.     775.31  E(vib)   ...       0.05
freq.     835.68  E(vib)   ...       0.04
freq.     929.60  E(vib)   ...       0.03
freq.     935.89  E(vib)   ...       0.03
freq.     965.59  E(vib)   ...       0.03
freq.    1008.67  E(vib)   ...       0.02
freq.    1037.78  E(vib)   ...       0.02
freq.    1042.16  E(vib)   ...       0.02
freq.    1046.35  E(vib)   ...       0.02
freq.    1057.37  E(vib)   ...       0.02
freq.    1117.63  E(vib)   ...       0.01
freq.    1124.96  E(vib)   ...       0.01
freq.    1138.11  E(vib)   ...       0.01
freq.    1210.63  E(vib)   ...       0.01
freq.    1249.22  E(vib)   ...       0.01
freq.    1264.88  E(vib)   ...       0.01
freq.    1291.28  E(vib)   ...       0.01
freq.    1371.49  E(vib)   ...       0.01
freq.    1386.67  E(vib)   ...       0.00
freq.    1391.25  E(vib)   ...       0.00
freq.    1408.06  E(vib)   ...       0.00
freq.    1424.71  E(vib)   ...       0.00
freq.    1461.78  E(vib)   ...       0.00
freq.    1463.63  E(vib)   ...       0.00
freq.    1473.53  E(vib)   ...       0.00
freq.    1482.36  E(vib)   ...       0.00
freq.    1486.73  E(vib)   ...       0.00
freq.    1490.78  E(vib)   ...       0.00
freq.    1501.28  E(vib)   ...       0.00
freq.    1507.77  E(vib)   ...       0.00
freq.    1522.83  E(vib)   ...       0.00
freq.    1655.55  E(vib)   ...       0.00
freq.    1710.13  E(vib)   ...       0.00
freq.    1757.43  E(vib)   ...       0.00
freq.    3017.26  E(vib)   ...       0.00
freq.    3021.78  E(vib)   ...       0.00
freq.    3024.94  E(vib)   ...       0.00
freq.    3029.44  E(vib)   ...       0.00
freq.    3089.75  E(vib)   ...       0.00
freq.    3095.74  E(vib)   ...       0.00
freq.    3095.99  E(vib)   ...       0.00
freq.    3101.70  E(vib)   ...       0.00
freq.    3115.41  E(vib)   ...       0.00
freq.    3117.05  E(vib)   ...       0.00
freq.    3165.68  E(vib)   ...       0.00
freq.    3168.13  E(vib)   ...       0.00
freq.    3611.68  E(vib)   ...       0.00

------------
INNER ENERGY
------------

The inner energy is: U= E(el) + E(ZPE) + E(vib) + E(rot) + E(trans)
    E(el)   - is the total energy from the electronic structure calculation
              = E(kin-el) + E(nuc-el) + E(el-el) + E(nuc-nuc)
    E(ZPE)  - the the zero temperature vibrational energy from the frequency calculation
    E(vib)  - the the finite temperature correction to E(ZPE) due to population
              of excited vibrational states
    E(rot)  - is the rotational thermal energy
    E(trans)- is the translational thermal energy

Summary of contributions to the inner energy U:
Electronic energy                ...  -1070.86850147 Eh
Zero point energy                ...      0.21542101 Eh     135.18 kcal/mol
Thermal vibrational correction   ...      0.01169888 Eh       7.34 kcal/mol
Thermal rotational correction    ...      0.00141627 Eh       0.89 kcal/mol
Thermal translational correction ...      0.00141627 Eh       0.89 kcal/mol
-----------------------------------------------------------------------
Total thermal energy                  -1070.63854904 Eh

Summary of corrections to the electronic energy:
(perhaps to be used in another calculation)
Total thermal correction                  0.01453143 Eh       9.12 kcal/mol
Non-thermal (ZPE) correction              0.21542101 Eh     135.18 kcal/mol
-----------------------------------------------------------------------
Total correction                          0.22995244 Eh     144.30 kcal/mol

--------
ENTHALPY
--------

The enthalpy is H = U + kB*T
                kB is Boltzmann's constant
Total thermal energy              ...  -1070.63854904 Eh
Thermal Enthalpy correction       ...      0.00094421 Eh       0.59 kcal/mol
-----------------------------------------------------------------------
Total Enthalpy                    ...  -1070.63760483 Eh

Note: Only C1 symmetry has been detected, increase convergence thresholds
      if your molecule has a higher symmetry. Symmetry factor of 1.0 is
      used for the rotational entropy correction.

Note: Rotational entropy computed according to Herzberg
Infrared and Raman Spectra, Chapter V,1, Van Nostrand Reinhold, 1945
Point Group:  C1, Symmetry Number:   1
Rotational constants in cm-1:     0.033431     0.015856     0.011808

Vibrational entropy computed according to the QRRHO of S. Grimme
Chem.Eur.J. 2012 18 9955 using a reference frequency of 100.0 cm-1

-------
ENTROPY
-------

The entropy contributions are T*S = T*(S(el)+S(vib)+S(rot)+S(trans))
     S(el)   - electronic entropy
     S(vib)  - vibrational entropy
     S(rot)  - rotational entropy
     S(trans)- translational entropy

                             ****ORCA TERMINATED NORMALLY****
TOTAL RUN TIME: 0 days 0 hours 27 minutes 8 seconds 477 msec
