                         Program Version 6.0.1  -  RELEASE   -
|  1> ! pbe def2-sv(p) def2/J RI DEFGRID1 loosescf d4 GCP(DFT/SV(P)) printgap
|  2> %output
|  3>     printlevel normal
|  4> end
|  5> * xyz 0 1
|  6> C 0.1685115268 0.6547882063 -0.5104095124
|  7> H 0.2042801462 0.7403766437 -1.6030367319
|  8> C 1.3332594607 -0.212584313 -0.0143978362
|  9> F 1.3309614182 -0.373099722 1.3026710961
| 10> F 2.5036619711 0.3327315339 -0.3565773921
| 11> F 1.2810099797 -1.4214713864 -0.577477883
| 12> F 0.2517156051 1.8821738576 0.031389707
| 13> Br -1.5044892376 -0.1757510941 0.0040010108
| 14> *
| 15>
| 16>                          ****END OF INPUT****

CARTESIAN COORDINATES (ANGSTROEM)
---------------------------------
  C      0.168512    0.654788   -0.510410
  H      0.204280    0.740377   -1.603037
  C      1.333259   -0.212584   -0.014398
  F      1.330961   -0.373100    1.302671
  F      2.503662    0.332732   -0.356577
  F      1.281010   -1.421471   -0.577478
  F      0.251716    1.882174    0.031390
  Br    -1.504489   -0.175751    0.004001

 Total Charge           Charge          ....    0
 Multiplicity           Mult            ....    1
 Number of Electrons    NEL             ....   84
 Basis Dimension        Dim             ....  118

ORBITAL ENERGIES
----------------

  NO   OCC          E(Eh)            E(eV)
   0   2.0000    -480.953550    -13087.4114
   1   2.0000     -61.796612     -1681.5713
   2   2.0000     -55.727263     -1516.4159
   3   2.0000     -55.724054     -1516.3286
   4   2.0000     -55.723990     -1516.3269
   5   2.0000     -24.308852      -661.4775
   6   2.0000     -24.308025      -661.4550
   7   2.0000     -24.307349      -661.4366
   8   2.0000     -24.301456      -661.2762
   9   2.0000     -10.147063      -276.1156
  10   2.0000     -10.049834      -273.4699
  11   2.0000      -8.422326      -229.1832
  12   2.0000      -6.304805      -171.5625
  13   2.0000      -6.289907      -171.1571
  14   2.0000      -6.289347      -171.1418
  15   2.0000      -2.505850       -68.1876
  16   2.0000      -2.502346       -68.0923
  17   2.0000      -2.501905       -68.0803
  18   2.0000      -2.490677       -67.7748
  19   2.0000      -2.490659       -67.7743
  20   2.0000      -1.217156       -33.1205
  21   2.0000      -1.140672       -31.0393
  22   2.0000      -1.122965       -30.5574
  23   2.0000      -1.120643       -30.4943
  24   2.0000      -0.770715       -20.9722
  25   2.0000      -0.684220       -18.6186
  26   2.0000      -0.607373       -16.5274
  27   2.0000      -0.553047       -15.0492
  28   2.0000      -0.549250       -14.9459
  29   2.0000      -0.538778       -14.6609
  30   2.0000      -0.494116       -13.4456
  31   2.0000      -0.455871       -12.4049
  32   2.0000      -0.418600       -11.3907
  33   2.0000      -0.416444       -11.3320
  34   2.0000      -0.404044       -10.9946
  35   2.0000      -0.379769       -10.3340
  36   2.0000      -0.378464       -10.2985
  37   2.0000      -0.357084        -9.7167
  38   2.0000      -0.337058        -9.1718
  39   2.0000      -0.329250        -8.9593
  40   2.0000      -0.272674        -7.4198
  41   2.0000      -0.266375        -7.2484
  42   0.0000      -0.057060        -1.5527
  43   0.0000       0.021755         0.5920
  44   0.0000       0.048669         1.3244
  45   0.0000       0.128574         3.4987
  46   0.0000       0.151516         4.1230

MULLIKEN ATOMIC CHARGES
-----------------------
   0 C :    0.010667
   1 H :    0.146038
   2 C :    0.408196
   3 F :   -0.114617
   4 F :   -0.126179
   5 F :   -0.126445
   6 F :   -0.150655
   7 Br:   -0.047005
Sum of atomic charges:    0.0000000

LOEWDIN ATOMIC CHARGES
----------------------
   0 C :   -0.134016
   1 H :    0.132811
   2 C :    0.059383
   3 F :   -0.019863
   4 F :   -0.030438
   5 F :   -0.032220
   6 F :   -0.054648
   7 Br:    0.078991

  Mayer bond orders larger than 0.100000
B(  0-C ,  1-H ) :   0.8908 B(  0-C ,  2-C ) :   0.9092 B(  0-C ,  6-F ) :   1.0792
B(  0-C ,  7-Br) :   1.0518 B(  2-C ,  3-F ) :   1.1927 B(  2-C ,  4-F ) :   1.1729
B(  2-C ,  5-F ) :   1.1652

Dispersion correction           -0.006950174
FINAL SINGLE POINT ENERGY     -3048.752744047792

DIPOLE MOMENT
-------------

Method             : SCF
Type of density    : Electron Density
Multiplicity       :   1
Irrep              :   0
Energy             : -3048.8114585009889197 Eh
Relativity type    :
Basis              : AO
                                X                 Y                 Z
Electronic contribution:     -9.288570321      -1.854553658       1.445167243
Nuclear contribution   :      9.188069126       1.937040242      -1.911721697
                        -----------------------------------------
Total Dipole Moment    :     -0.100501196       0.082486584      -0.466554454
                        -----------------------------------------
Magnitude (a.u.)       :      0.484332102
Magnitude (Debye)      :      1.231074369

Rotational constants in cm-1:             0.101625             0.038803             0.033259
Rotational constants in MHz :          3046.632485          1163.297900           997.088725

                             ****ORCA TERMINATED NORMALLY****
TOTAL RUN TIME: 0 days 0 hours 0 minutes 10 seconds 535 msec
