                         Program Version 6.0.1  -  RELEASE   -
|  1> ! r2scan-3c def2/J RI DEFGRID2 scfconv6 printgap
|  2> %output
|  3>     printlevel normal
|  4> end
|  5> * xyz 0 1
|  6> C -1.4391652405 -0.2797018351 1.2601021733
|  7> C -0.6396971444 -0.4246898939 -0.0354785132
|  8> C -1.5412799465 -0.0753652695 -1.234784334
|  9> C 0.6390890114 0.4362457462 -0.0348899312
| 10> C 1.4458310823 0.2882746995 1.2552396021
| 11> C 1.5340630631 0.0581642992 -1.2160704284
| 12> H -1.6766428102 0.7659556725 1.4461519369
| 13> H -2.3714131745 -0.8355978455 1.1819931097
| 14> H -0.8906543909 -0.6703166144 2.1126021921
| 15> H -0.3273632158 -1.4717066113 -0.1176031667
| 16> H -1.0955703927 0.6944006383 -1.8590966629
| 17> H -1.7263706649 -0.9463472099 -1.8581196905
| 18> H -2.5028893133 0.3012288281 -0.8945083808
| 19> H 0.3442075517 1.4873185923 -0.1361573801
| 20> H 1.6480874028 -0.7612619851 1.4593905286
| 21> H 2.3985573493 0.8046132015 1.1559735311
| 22> H 0.9218943373 0.715636465 2.1052270209
| 23> H 1.8919594295 -0.9630338953 -1.0999601773
| 24> H 2.3972879789 0.7184754777 -1.2645757728
| 25> H 1.0027236307 0.1257457505 -2.1612289112
| 26> *
| 27>
| 28>                          ****END OF INPUT****

CARTESIAN COORDINATES (ANGSTROEM)
---------------------------------
  C     -1.439165   -0.279702    1.260102
  C     -0.639697   -0.424690   -0.035479
  C     -1.541280   -0.075365   -1.234784
  C      0.639089    0.436246   -0.034890
  C      1.445831    0.288275    1.255240
  C      1.534063    0.058164   -1.216070
  H     -1.676643    0.765956    1.446152
  H     -2.371413   -0.835598    1.181993
  H     -0.890654   -0.670317    2.112602
  H     -0.327363   -1.471707   -0.117603
  H     -1.095570    0.694401   -1.859097
  H     -1.726371   -0.946347   -1.858120
  H     -2.502889    0.301229   -0.894508
  H      0.344208    1.487319   -0.136157
  H      1.648087   -0.761262    1.459391
  H      2.398557    0.804613    1.155974
  H      0.921894    0.715636    2.105227
  H      1.891959   -0.963034   -1.099960
  H      2.397288    0.718475   -1.264576
  H      1.002724    0.125746   -2.161229

 Total Charge           Charge          ....    0
 Multiplicity           Mult            ....    1
 Number of Electrons    NEL             ....   50
 Basis Dimension        Dim             ....  184

ORBITAL ENERGIES
----------------

  NO   OCC          E(Eh)            E(eV)
   0   2.0000     -10.029378      -272.9132
   1   2.0000     -10.029198      -272.9083
   2   2.0000     -10.011918      -272.4381
   3   2.0000     -10.011763      -272.4339
   4   2.0000     -10.011716      -272.4327
   5   2.0000     -10.011668      -272.4313
   6   2.0000      -0.785033       -21.3618
   7   2.0000      -0.713194       -19.4070
   8   2.0000      -0.657520       -17.8920
   9   2.0000      -0.633267       -17.2321
  10   2.0000      -0.573006       -15.5923
  11   2.0000      -0.514643       -14.0042
  12   2.0000      -0.425150       -11.5689
  13   2.0000      -0.422886       -11.5073
  14   2.0000      -0.400737       -10.9046
  15   2.0000      -0.388920       -10.5830
  16   2.0000      -0.359790        -9.7904
  17   2.0000      -0.357683        -9.7330
  18   2.0000      -0.346193        -9.4204
  19   2.0000      -0.330512        -8.9937
  20   2.0000      -0.318440        -8.6652
  21   2.0000      -0.310456        -8.4479
  22   2.0000      -0.285115        -7.7584
  23   2.0000      -0.279045        -7.5932
  24   2.0000      -0.273765        -7.4495
  25   0.0000       0.084496         2.2993
  26   0.0000       0.110371         3.0033
  27   0.0000       0.118197         3.2163
  28   0.0000       0.123206         3.3526
  29   0.0000       0.126795         3.4503

MULLIKEN ATOMIC CHARGES
-----------------------
   0 C :   -0.543369
   1 C :    0.070763
   2 C :   -0.574591
   3 C :   -0.080677
   4 C :   -0.508342
   5 C :   -0.499365
   6 H :    0.156014
   7 H :    0.149744
   8 H :    0.154966
   9 H :    0.153214
  10 H :    0.155310
  11 H :    0.155530
  12 H :    0.158076
  13 H :    0.155852
  14 H :    0.156075
  15 H :    0.142304
  16 H :    0.156632
  17 H :    0.151131
  18 H :    0.146620
  19 H :    0.144114
Sum of atomic charges:    0.0000000

LOEWDIN ATOMIC CHARGES
----------------------
   0 C :   -0.419028
   1 C :   -0.241874
   2 C :   -0.421239
   3 C :   -0.245067
   4 C :   -0.417777
   5 C :   -0.416341
   6 H :    0.154313
   7 H :    0.152960
   8 H :    0.153022
   9 H :    0.156623
  10 H :    0.155422
  11 H :    0.155494
  12 H :    0.156022
  13 H :    0.156679
  14 H :    0.154827
  15 H :    0.153427
  16 H :    0.153591
  17 H :    0.153704
  18 H :    0.151951
  19 H :    0.153291

  Mayer bond orders larger than 0.100000
B(  0-C ,  1-C ) :   0.8534 B(  0-C ,  6-H ) :   0.9876 B(  0-C ,  7-H ) :   0.9784
B(  0-C ,  8-H ) :   0.9730 B(  1-C ,  2-C ) :   0.8096 B(  1-C ,  3-C ) :   0.8790
B(  1-C ,  9-H ) :   0.9779 B(  2-C , 10-H ) :   0.9875 B(  2-C , 11-H ) :   0.9773
B(  2-C , 12-H ) :   0.9870 B(  3-C ,  4-C ) :   0.8769 B(  3-C ,  5-C ) :   0.9162
B(  3-C , 13-H ) :   0.9656 B(  4-C , 14-H ) :   0.9881 B(  4-C , 15-H ) :   0.9743
B(  4-C , 16-H ) :   0.9719 B(  5-C , 17-H ) :   0.9916 B(  5-C , 18-H ) :   0.9763
B(  5-C , 19-H ) :   0.9671

Dispersion correction           -0.005242595
FINAL SINGLE POINT ENERGY      -236.983901771650

DIPOLE MOMENT
-------------

Method             : SCF
Type of density    : Electron Density
Multiplicity       :   1
Irrep              :   0
Energy             :  -236.9884905804696018 Eh
Relativity type    :
Basis              : AO
                                X                 Y                 Z
Electronic contribution:     -0.015384004       0.026951495      -0.070152419
Nuclear contribution   :      0.012959494      -0.032732008       0.065754006
                        -----------------------------------------
Total Dipole Moment    :     -0.002424510      -0.005780512      -0.004398412
                        -----------------------------------------
Magnitude (a.u.)       :      0.007657585
Magnitude (Debye)      :      0.019464033

Rotational constants in cm-1:             0.141472             0.096970             0.063492
Rotational constants in MHz :          4241.215677          2907.084114          1903.431150

                             ****ORCA TERMINATED NORMALLY****
TOTAL RUN TIME: 0 days 0 hours 0 minutes 13 seconds 257 msec
