                         Program Version 6.0.1  -  RELEASE   -
|  1> ! pbe def2-sv(p) def2/J RI DEFGRID1 loosescf d4 GCP(DFT/SV(P)) printgap
|  2> %output
|  3>     printlevel normal
|  4> end
|  5> * xyz 0 1
|  6> C 1.8275557011 -0.1172811518 1.57271e-05
|  7> C 0.6034624523 0.3989890476 -3.57231e-05
|  8> C -0.6034598027 -0.3989468148 -2.37928e-05
|  9> C -1.8275594717 0.1172475862 1.72494e-05
| 10> H 2.7092554594 0.5002749131 0.0001030723
| 11> H 1.9897284967 -1.1830412636 0.0001116433
| 12> H 0.4640153178 1.4724821898 1.9257e-05
| 13> H -0.4639605774 -1.4724857326 -8.70605e-05
| 14> H -2.7092583206 -0.5003162945 0.0001317435
| 15> H -1.9897670173 1.1829829022 3.76114e-05
| 16> *
| 17>
| 18>                          ****END OF INPUT****

CARTESIAN COORDINATES (ANGSTROEM)
---------------------------------
  C      1.827556   -0.117281    0.000016
  C      0.603462    0.398989   -0.000036
  C     -0.603460   -0.398947   -0.000024
  C     -1.827559    0.117248    0.000017
  H      2.709255    0.500275    0.000103
  H      1.989728   -1.183041    0.000112
  H      0.464015    1.472482    0.000019
  H     -0.463961   -1.472486   -0.000087
  H     -2.709258   -0.500316    0.000132
  H     -1.989767    1.182983    0.000038

 Total Charge           Charge          ....    0
 Multiplicity           Mult            ....    1
 Number of Electrons    NEL             ....   30
 Basis Dimension        Dim             ....   68

ORBITAL ENERGIES
----------------

  NO   OCC          E(Eh)            E(eV)
   0   2.0000      -9.897693      -269.3299
   1   2.0000      -9.897674      -269.3294
   2   2.0000      -9.885308      -268.9929
   3   2.0000      -9.885278      -268.9921
   4   2.0000      -0.728512       -19.8238
   5   2.0000      -0.658792       -17.9267
   6   2.0000      -0.541373       -14.7315
   7   2.0000      -0.496699       -13.5159
   8   2.0000      -0.419144       -11.4055
   9   2.0000      -0.416078       -11.3221
  10   2.0000      -0.349455        -9.5092
  11   2.0000      -0.341958        -9.3051
  12   2.0000      -0.304170        -8.2769
  13   2.0000      -0.295203        -8.0329
  14   2.0000      -0.210736        -5.7344
  15   0.0000      -0.058872        -1.6020
  16   0.0000       0.038260         1.0411
  17   0.0000       0.058533         1.5928
  18   0.0000       0.069753         1.8981
  19   0.0000       0.077938         2.1208

MULLIKEN ATOMIC CHARGES
-----------------------
   0 C :   -0.207203
   1 C :   -0.059575
   2 C :   -0.059595
   3 C :   -0.207200
   4 H :    0.103077
   5 H :    0.098162
   6 H :    0.065545
   7 H :    0.065559
   8 H :    0.103078
   9 H :    0.098152
Sum of atomic charges:   -0.0000000

LOEWDIN ATOMIC CHARGES
----------------------
   0 C :   -0.239987
   1 C :   -0.130008
   2 C :   -0.130003
   3 C :   -0.239993
   4 H :    0.124163
   5 H :    0.122080
   6 H :    0.123755
   7 H :    0.123751
   8 H :    0.124164
   9 H :    0.122078

  Mayer bond orders larger than 0.100000
B(  0-C ,  1-C ) :   1.9348 B(  0-C ,  3-C ) :   0.1506 B(  0-C ,  4-H ) :   0.9246
B(  0-C ,  5-H ) :   0.9224 B(  1-C ,  2-C ) :   1.1551 B(  1-C ,  6-H ) :   0.9363
B(  2-C ,  3-C ) :   1.9348 B(  2-C ,  7-H ) :   0.9363 B(  3-C ,  8-H ) :   0.9246
B(  3-C ,  9-H ) :   0.9224

Dispersion correction           -0.005780035
FINAL SINGLE POINT ENERGY      -155.611058454479

DIPOLE MOMENT
-------------

Method             : SCF
Type of density    : Electron Density
Multiplicity       :   1
Irrep              :   0
Energy             :  -155.6402583123624481 Eh
Relativity type    :
Basis              : AO
                                X                 Y                 Z
Electronic contribution:     -0.000001304       0.000113081      -0.000221452
Nuclear contribution   :      0.000012533      -0.000096899       0.000296711
                        -----------------------------------------
Total Dipole Moment    :      0.000011229       0.000016182       0.000075259
                        -----------------------------------------
Magnitude (a.u.)       :      0.000077794
Magnitude (Debye)      :      0.000197736

Rotational constants in cm-1:             1.422446             0.150255             0.135899
Rotational constants in MHz :         42643.848238          4504.522371          4074.163458

                             ****ORCA TERMINATED NORMALLY****
TOTAL RUN TIME: 0 days 0 hours 0 minutes 10 seconds 420 msec
