                         Program Version 6.0.1  -  RELEASE   -
|  1> ! r2scan-3c def2/J RI DEFGRID2 scfconv6 printgap
|  2> %output
|  3>     printlevel normal
|  4> end
|  5> * xyz 0 1
|  6> C -0.7309397243 -1.2008842251 7.70725e-05
|  7> C 0.6523310028 -1.2080555528 7.74365e-05
|  8> C 1.3260534905 -0.002006072 7.46993e-05
|  9> C 0.6540390223 1.2076976609 7.77582e-05
| 10> C -0.7262025913 1.207272693 4.64415e-05
| 11> C -1.42666248 0.0031945279 1.35318e-05
| 12> O -2.7840666253 0.0534623267 -0.0001083245
| 13> F 2.6779737662 -0.0045035519 -0.0001291054
| 14> H -1.272991925 -2.1368538579 -3.4855e-05
| 15> H 1.2046621474 -2.1341213982 -4.46735e-05
| 16> H 1.2110674028 2.1308353778 2.86096e-05
| 17> H -1.2827435022 2.1302459423 4.72215e-05
| 18> H -3.1484956412 -0.8399053125 -0.0002159586
| 19> *
| 20>
| 21>                          ****END OF INPUT****

CARTESIAN COORDINATES (ANGSTROEM)
---------------------------------
  C     -0.730940   -1.200884    0.000077
  C      0.652331   -1.208056    0.000077
  C      1.326053   -0.002006    0.000075
  C      0.654039    1.207698    0.000078
  C     -0.726203    1.207273    0.000046
  C     -1.426662    0.003195    0.000014
  O     -2.784067    0.053462   -0.000108
  F      2.677974   -0.004504   -0.000129
  H     -1.272992   -2.136854   -0.000035
  H      1.204662   -2.134121   -0.000045
  H      1.211067    2.130835    0.000029
  H     -1.282744    2.130246    0.000047
  H     -3.148496   -0.839905   -0.000216

 Total Charge           Charge          ....    0
 Multiplicity           Mult            ....    1
 Number of Electrons    NEL             ....   58
 Basis Dimension        Dim             ....  187

ORBITAL ENERGIES
----------------

  NO   OCC          E(Eh)            E(eV)
   0   2.0000     -24.492636      -666.4785
   1   2.0000     -18.991875      -516.7952
   2   2.0000     -10.115281      -275.2508
   3   2.0000     -10.104216      -274.9497
   4   2.0000     -10.049102      -273.4500
   5   2.0000     -10.048383      -273.4304
   6   2.0000     -10.047281      -273.4004
   7   2.0000     -10.043859      -273.3073
   8   2.0000      -1.180332       -32.1185
   9   2.0000      -1.038090       -28.2479
  10   2.0000      -0.835313       -22.7300
  11   2.0000      -0.736343       -20.0369
  12   2.0000      -0.714635       -19.4462
  13   2.0000      -0.612561       -16.6686
  14   2.0000      -0.588248       -16.0070
  15   2.0000      -0.530219       -14.4280
  16   2.0000      -0.510889       -13.9020
  17   2.0000      -0.470336       -12.7985
  18   2.0000      -0.426852       -11.6152
  19   2.0000      -0.426283       -11.5998
  20   2.0000      -0.410250       -11.1635
  21   2.0000      -0.400870       -10.9082
  22   2.0000      -0.386441       -10.5156
  23   2.0000      -0.376887       -10.2556
  24   2.0000      -0.342114        -9.3094
  25   2.0000      -0.316314        -8.6074
  26   2.0000      -0.309709        -8.4276
  27   2.0000      -0.252327        -6.8662
  28   2.0000      -0.205575        -5.5940
  29   0.0000      -0.046401        -1.2626
  30   0.0000      -0.016545        -0.4502
  31   0.0000       0.050805         1.3825
  32   0.0000       0.067975         1.8497
  33   0.0000       0.105390         2.8678

MULLIKEN ATOMIC CHARGES
-----------------------
   0 C :   -0.293042
   1 C :   -0.237379
   2 C :    0.329684
   3 C :   -0.224622
   4 C :   -0.260786
   5 C :    0.397578
   6 O :   -0.413272
   7 F :   -0.240260
   8 H :    0.140856
   9 H :    0.164178
  10 H :    0.165047
  11 H :    0.161852
  12 H :    0.310165
Sum of atomic charges:    0.0000000

LOEWDIN ATOMIC CHARGES
----------------------
   0 C :   -0.160629
   1 C :   -0.147215
   2 C :    0.196567
   3 C :   -0.144953
   4 C :   -0.130385
   5 C :    0.174541
   6 O :   -0.495354
   7 F :   -0.293380
   8 H :    0.171098
   9 H :    0.182261
  10 H :    0.182558
  11 H :    0.182660
  12 H :    0.282231

  Mayer bond orders larger than 0.100000
B(  0-C ,  1-C ) :   1.3650 B(  0-C ,  5-C ) :   1.3550 B(  0-C ,  8-H ) :   0.9339
B(  1-C ,  2-C ) :   1.4573 B(  1-C ,  9-H ) :   0.9222 B(  2-C ,  3-C ) :   1.4331
B(  2-C ,  7-F ) :   0.8749 B(  3-C ,  4-C ) :   1.3567 B(  3-C , 10-H ) :   0.9300
B(  4-C ,  5-C ) :   1.4342 B(  4-C ,  6-O ) :   0.1004 B(  4-C , 11-H ) :   0.9410
B(  5-C ,  6-O ) :   0.9138 B(  6-O , 12-H ) :   0.8858

Dispersion correction           -0.003874204
FINAL SINGLE POINT ENERGY      -406.641959430184

DIPOLE MOMENT
-------------

Method             : SCF
Type of density    : Electron Density
Multiplicity       :   1
Irrep              :   0
Energy             :  -406.6422842896613474 Eh
Relativity type    :
Basis              : AO
                                X                 Y                 Z
Electronic contribution:      4.971121919       0.292340144      -0.000021924
Nuclear contribution   :     -5.607592455      -0.792294725      -0.000088060
                        -----------------------------------------
Total Dipole Moment    :     -0.636470536      -0.499954581      -0.000109984
                        -----------------------------------------
Magnitude (a.u.)       :      0.809351184
Magnitude (Debye)      :      2.057207220

Rotational constants in cm-1:             0.189461             0.048856             0.038840
Rotational constants in MHz :          5679.906385          1464.669161          1164.405597

                             ****ORCA TERMINATED NORMALLY****
TOTAL RUN TIME: 0 days 0 hours 0 minutes 28 seconds 78 msec
