                         Program Version 6.0.1  -  RELEASE   -
|  1> ! pbe def2-sv(p) def2/J RI DEFGRID1 loosescf d4 GCP(DFT/SV(P)) printgap
|  2> %output
|  3>     printlevel normal
|  4> end
|  5> * xyz 0 1
|  6> C -3.3477536813 -0.0030187947 -0.5255607966
|  7> C -2.7112365462 -1.2000928619 -0.2440084027
|  8> C -1.445815714 -1.1981976029 0.31380865
|  9> C -0.8072587258 0.0026800036 0.6009417976
| 10> C -1.4489093144 1.2007061143 0.3086992178
| 11> C -2.71426794 1.1969223539 -0.2491350782
| 12> C 0.5625617094 0.0056741303 1.1862300781
| 13> Br 1.9308913136 -0.0008371427 -0.2431080898
| 14> H -4.3350436912 -0.0050795693 -0.9625680892
| 15> H -3.199801975 -2.1381399539 -0.4614256576
| 16> H -0.9475046302 -2.1333478474 0.5270326453
| 17> H -0.952929628 2.1379920291 0.5179265904
| 18> H -3.2053518424 2.1326981197 -0.4706271888
| 19> H 0.7631206881 -0.8862829337 1.7771959157
| 20> H 0.7625815263 0.9028353563 1.7694620028
| 21> *
| 22>
| 23>                          ****END OF INPUT****

CARTESIAN COORDINATES (ANGSTROEM)
---------------------------------
  C     -3.347754   -0.003019   -0.525561
  C     -2.711237   -1.200093   -0.244008
  C     -1.445816   -1.198198    0.313809
  C     -0.807259    0.002680    0.600942
  C     -1.448909    1.200706    0.308699
  C     -2.714268    1.196922   -0.249135
  C      0.562562    0.005674    1.186230
  Br     1.930891   -0.000837   -0.243108
  H     -4.335044   -0.005080   -0.962568
  H     -3.199802   -2.138140   -0.461426
  H     -0.947505   -2.133348    0.527033
  H     -0.952930    2.137992    0.517927
  H     -3.205352    2.132698   -0.470627
  H      0.763121   -0.886283    1.777196
  H      0.762582    0.902835    1.769462

 Total Charge           Charge          ....    0
 Multiplicity           Mult            ....    1
 Number of Electrons    NEL             ....   84
 Basis Dimension        Dim             ....  144

ORBITAL ENERGIES
----------------

  NO   OCC          E(Eh)            E(eV)
   0   2.0000    -480.919371    -13086.4814
   1   2.0000     -61.761764     -1680.6230
   2   2.0000     -55.692399     -1515.4672
   3   2.0000     -55.689281     -1515.3824
   4   2.0000     -55.689161     -1515.3791
   5   2.0000      -9.945213      -270.6230
   6   2.0000      -9.913675      -269.7648
   7   2.0000      -9.900348      -269.4022
   8   2.0000      -9.900330      -269.4017
   9   2.0000      -9.900212      -269.3985
  10   2.0000      -9.899908      -269.3902
  11   2.0000      -9.899864      -269.3890
  12   2.0000      -8.386973      -228.2212
  13   2.0000      -6.269190      -170.5933
  14   2.0000      -6.254400      -170.1909
  15   2.0000      -6.254369      -170.1900
  16   2.0000      -2.470247       -67.2188
  17   2.0000      -2.466558       -67.1185
  18   2.0000      -2.466515       -67.1173
  19   2.0000      -2.455485       -66.8171
  20   2.0000      -2.455468       -66.8167
  21   2.0000      -0.790840       -21.5199
  22   2.0000      -0.737395       -20.0655
  23   2.0000      -0.678901       -18.4738
  24   2.0000      -0.678634       -18.4666
  25   2.0000      -0.603244       -16.4151
  26   2.0000      -0.553148       -15.0519
  27   2.0000      -0.530077       -14.4241
  28   2.0000      -0.472656       -12.8616
  29   2.0000      -0.432080       -11.7575
  30   2.0000      -0.414404       -11.2765
  31   2.0000      -0.384909       -10.4739
  32   2.0000      -0.384730       -10.4690
  33   2.0000      -0.371009       -10.0957
  34   2.0000      -0.369281       -10.0486
  35   2.0000      -0.328008        -8.9256
  36   2.0000      -0.314523        -8.5586
  37   2.0000      -0.307921        -8.3790
  38   2.0000      -0.242298        -6.5933
  39   2.0000      -0.240230        -6.5370
  40   2.0000      -0.231160        -6.2902
  41   2.0000      -0.224337        -6.1045
  42   0.0000      -0.065094        -1.7713
  43   0.0000      -0.042594        -1.1590
  44   0.0000      -0.004984        -0.1356
  45   0.0000       0.035445         0.9645
  46   0.0000       0.060337         1.6419

MULLIKEN ATOMIC CHARGES
-----------------------
   0 C :   -0.045152
   1 C :   -0.048995
   2 C :   -0.091058
   3 C :    0.092210
   4 C :   -0.091177
   5 C :   -0.049004
   6 C :   -0.200616
   7 Br:   -0.117580
   8 H :    0.058477
   9 H :    0.057333
  10 H :    0.047061
  11 H :    0.047039
  12 H :    0.057314
  13 H :    0.142113
  14 H :    0.142036
Sum of atomic charges:   -0.0000000

LOEWDIN ATOMIC CHARGES
----------------------
   0 C :   -0.118388
   1 C :   -0.118290
   2 C :   -0.109442
   3 C :   -0.069845
   4 C :   -0.109509
   5 C :   -0.118302
   6 C :   -0.257335
   7 Br:    0.004588
   8 H :    0.125712
   9 H :    0.126105
  10 H :    0.125619
  11 H :    0.125608
  12 H :    0.126101
  13 H :    0.133710
  14 H :    0.133671

  Mayer bond orders larger than 0.100000
B(  0-C ,  1-C ) :   1.3774 B(  0-C ,  5-C ) :   1.3776 B(  0-C ,  8-H ) :   0.9648
B(  1-C ,  2-C ) :   1.3822 B(  1-C ,  9-H ) :   0.9635 B(  2-C ,  3-C ) :   1.3772
B(  2-C , 10-H ) :   0.9634 B(  3-C ,  4-C ) :   1.3774 B(  3-C ,  6-C ) :   1.0648
B(  4-C ,  5-C ) :   1.3821 B(  4-C , 11-H ) :   0.9633 B(  5-C , 12-H ) :   0.9635
B(  6-C ,  7-Br) :   1.0268 B(  6-C , 13-H ) :   0.9148 B(  6-C , 14-H ) :   0.9148

Dispersion correction           -0.016765698
FINAL SINGLE POINT ENERGY     -2843.806155118089

DIPOLE MOMENT
-------------

Method             : SCF
Type of density    : Electron Density
Multiplicity       :   1
Irrep              :   0
Energy             : -2843.8494748302764492 Eh
Relativity type    :
Basis              : AO
                                X                 Y                 Z
Electronic contribution:     27.724788880      -0.016253059      -4.399920539
Nuclear contribution   :    -28.356239501       0.017788165       4.787537668
                        -----------------------------------------
Total Dipole Moment    :     -0.631450621       0.001535106       0.387617128
                        -----------------------------------------
Magnitude (a.u.)       :      0.740931361
Magnitude (Debye)      :      1.883297852

Rotational constants in cm-1:             0.129280             0.022323             0.020995
Rotational constants in MHz :          3875.709580           669.218212           629.428105

                             ****ORCA TERMINATED NORMALLY****
TOTAL RUN TIME: 0 days 0 hours 0 minutes 14 seconds 905 msec
