                         Program Version 6.0.1  -  RELEASE   -
|  1> ! pbe def2-sv(p) def2/J RI DEFGRID1 loosescf d4 GCP(DFT/SV(P)) printgap
|  2> %output
|  3>     printlevel normal
|  4> end
|  5> * xyz 0 1
|  6> C -2.3226971817 -0.9364846555 -0.4972643718
|  7> C -1.0183834072 -0.5696209334 0.2260655384
|  8> H -1.0805210601 -0.889221819 1.2824381925
|  9> C -0.7555438102 0.9590591976 0.2150062029
| 10> H -1.5661153753 1.4595473859 -0.3252414249
| 11> C 0.5826025965 1.2471909727 -0.4997336012
| 12> H 0.8163930801 2.3116747469 -0.3750102611
| 13> C 1.6967814439 0.4009207254 0.1572191502
| 14> H 2.6082949046 0.4720248476 -0.4495686304
| 15> C 1.2813110668 -1.0854332333 0.177440988
| 16> H 1.2430167909 -1.4132542152 1.2379826116
| 17> O 0.0167209348 -1.2947326005 -0.413189358
| 18> O 2.2073504836 -1.810418605 -0.5465975465
| 19> O 1.9374294025 0.7986828815 1.4923733181
| 20> O 0.5194429619 1.0233580474 -1.877573176
| 21> O -0.7709087771 1.4923854975 1.5132433036
| 22> O -3.4131318679 -0.1729671914 -0.0692782195
| 23> H -2.5075327002 -2.0122382685 -0.3653992928
| 24> H -2.2089020501 -0.7336828554 -1.5647523092
| 25> H 1.859037982 -2.6982887419 -0.6943548541
| 26> H 2.4045068764 1.6419532161 1.4887519647
| 27> H 0.3540086518 0.0807016798 -2.0202515298
| 28> H 0.0499180283 1.2266934444 1.9585381152
| 29> H -3.4733506268 -0.2085480984 0.8924823482
| 30> *
| 31>
| 32>                          ****END OF INPUT****

CARTESIAN COORDINATES (ANGSTROEM)
---------------------------------
  C     -2.322697   -0.936485   -0.497264
  C     -1.018383   -0.569621    0.226066
  H     -1.080521   -0.889222    1.282438
  C     -0.755544    0.959059    0.215006
  H     -1.566115    1.459547   -0.325241
  C      0.582603    1.247191   -0.499734
  H      0.816393    2.311675   -0.375010
  C      1.696781    0.400921    0.157219
  H      2.608295    0.472025   -0.449569
  C      1.281311   -1.085433    0.177441
  H      1.243017   -1.413254    1.237983
  O      0.016721   -1.294733   -0.413189
  O      2.207350   -1.810419   -0.546598
  O      1.937429    0.798683    1.492373
  O      0.519443    1.023358   -1.877573
  O     -0.770909    1.492385    1.513243
  O     -3.413132   -0.172967   -0.069278
  H     -2.507533   -2.012238   -0.365399
  H     -2.208902   -0.733683   -1.564752
  H      1.859038   -2.698289   -0.694355
  H      2.404507    1.641953    1.488752
  H      0.354009    0.080702   -2.020252
  H      0.049918    1.226693    1.958538
  H     -3.473351   -0.208548    0.892482

 Total Charge           Charge          ....    0
 Multiplicity           Mult            ....    1
 Number of Electrons    NEL             ....   96
 Basis Dimension        Dim             ....  192

ORBITAL ENERGIES
----------------

  NO   OCC          E(Eh)            E(eV)
   0   2.0000     -18.791167      -511.3337
   1   2.0000     -18.784903      -511.1632
   2   2.0000     -18.772479      -510.8251
   3   2.0000     -18.755486      -510.3627
   4   2.0000     -18.748344      -510.1684
   5   2.0000     -18.738604      -509.9033
   6   2.0000     -10.000168      -272.1184
   7   2.0000      -9.951237      -270.7869
   8   2.0000      -9.949414      -270.7373
   9   2.0000      -9.943201      -270.5682
  10   2.0000      -9.939243      -270.4606
  11   2.0000      -9.934420      -270.3293
  12   2.0000      -1.001576       -27.2543
  13   2.0000      -0.958809       -26.0905
  14   2.0000      -0.941216       -25.6118
  15   2.0000      -0.932722       -25.3806
  16   2.0000      -0.923975       -25.1426
  17   2.0000      -0.916550       -24.9406
  18   2.0000      -0.701103       -19.0780
  19   2.0000      -0.693938       -18.8830
  20   2.0000      -0.626292       -17.0423
  21   2.0000      -0.588988       -16.0272
  22   2.0000      -0.573641       -15.6096
  23   2.0000      -0.529540       -14.4095
  24   2.0000      -0.519273       -14.1301
  25   2.0000      -0.496838       -13.5196
  26   2.0000      -0.490442       -13.3456
  27   2.0000      -0.461878       -12.5683
  28   2.0000      -0.452236       -12.3060
  29   2.0000      -0.440548       -11.9879
  30   2.0000      -0.424859       -11.5610
  31   2.0000      -0.398257       -10.8371
  32   2.0000      -0.389338       -10.5944
  33   2.0000      -0.376097       -10.2341
  34   2.0000      -0.354297        -9.6409
  35   2.0000      -0.351986        -9.5780
  36   2.0000      -0.339768        -9.2455
  37   2.0000      -0.325969        -8.8701
  38   2.0000      -0.319711        -8.6998
  39   2.0000      -0.312724        -8.5097
  40   2.0000      -0.281988        -7.6733
  41   2.0000      -0.274623        -7.4729
  42   2.0000      -0.262022        -7.1300
  43   2.0000      -0.258542        -7.0353
  44   2.0000      -0.247215        -6.7271
  45   2.0000      -0.227348        -6.1864
  46   2.0000      -0.216179        -5.8825
  47   2.0000      -0.197283        -5.3683
  48   0.0000       0.004272         0.1163
  49   0.0000       0.022630         0.6158
  50   0.0000       0.026663         0.7255
  51   0.0000       0.039253         1.0681
  52   0.0000       0.051919         1.4128

MULLIKEN ATOMIC CHARGES
-----------------------
   0 C :    0.086101
   1 C :   -0.036355
   2 H :    0.051655
   3 C :    0.063768
   4 H :    0.089725
   5 C :    0.017262
   6 H :    0.070955
   7 C :    0.009164
   8 H :    0.092123
   9 C :    0.195909
  10 H :    0.056920
  11 O :   -0.318911
  12 O :   -0.377995
  13 O :   -0.416256
  14 O :   -0.417059
  15 O :   -0.434673
  16 O :   -0.420308
  17 H :    0.080773
  18 H :    0.084248
  19 H :    0.305363
  20 H :    0.316069
  21 H :    0.307061
  22 H :    0.289695
  23 H :    0.304767
Sum of atomic charges:    0.0000000

LOEWDIN ATOMIC CHARGES
----------------------
   0 C :   -0.124041
   1 C :   -0.083598
   2 H :    0.099160
   3 C :   -0.082096
   4 H :    0.122848
   5 C :   -0.083828
   6 H :    0.113395
   7 C :   -0.090720
   8 H :    0.118604
   9 C :    0.007899
  10 H :    0.087919
  11 O :   -0.157170
  12 O :   -0.290577
  13 O :   -0.305546
  14 O :   -0.310472
  15 O :   -0.327193
  16 O :   -0.319515
  17 H :    0.098541
  18 H :    0.114763
  19 H :    0.289284
  20 H :    0.296068
  21 H :    0.274320
  22 H :    0.263395
  23 H :    0.288559

  Mayer bond orders larger than 0.100000
B(  0-C ,  1-C ) :   1.0437 B(  0-C , 16-O ) :   1.0752 B(  0-C , 17-H ) :   0.9150
B(  0-C , 18-H ) :   0.9127 B(  1-C ,  2-H ) :   0.8743 B(  1-C ,  3-C ) :   0.9511
B(  1-C , 11-O ) :   0.9803 B(  3-C ,  4-H ) :   0.8905 B(  3-C ,  5-C ) :   0.9769
B(  3-C , 15-O ) :   1.0472 B(  5-C ,  6-H ) :   0.8975 B(  5-C ,  7-C ) :   0.9855
B(  5-C , 14-O ) :   1.0537 B(  7-C ,  8-H ) :   0.8904 B(  7-C ,  9-C ) :   0.9770
B(  7-C , 13-O ) :   1.0172 B(  9-C , 10-H ) :   0.8869 B(  9-C , 11-O ) :   1.0124
B(  9-C , 12-O ) :   1.1712 B( 12-O , 19-H ) :   0.8405 B( 13-O , 20-H ) :   0.8397
B( 13-O , 22-H ) :   0.1159 B( 14-O , 21-H ) :   0.8255 B( 15-O , 22-H ) :   0.8092
B( 16-O , 23-H ) :   0.8462

Dispersion correction           -0.025011833
FINAL SINGLE POINT ENERGY      -685.691855652830

DIPOLE MOMENT
-------------

Method             : SCF
Type of density    : Electron Density
Multiplicity       :   1
Irrep              :   0
Energy             :  -685.8247028512248562 Eh
Relativity type    :
Basis              : AO
                                X                 Y                 Z
Electronic contribution:      2.000145627      -0.032361794      -0.355051460
Nuclear contribution   :     -1.401062299      -0.714946933       1.001194398
                        -----------------------------------------
Total Dipole Moment    :      0.599083328      -0.747308727       0.646142938
                        -----------------------------------------
Magnitude (a.u.)       :      1.155366549
Magnitude (Debye)      :      2.936708385

Rotational constants in cm-1:             0.043142             0.025492             0.021530
Rotational constants in MHz :          1293.357847           764.219081           645.446254

                             ****ORCA TERMINATED NORMALLY****
TOTAL RUN TIME: 0 days 0 hours 0 minutes 8 seconds 524 msec
