                         Program Version 6.0.1  -  RELEASE   -
|  1> ! r2scan-3c def2/J RI DEFGRID2 scfconv6 printgap
|  2> %output
|  3>     printlevel normal
|  4> end
|  5> * xyz 0 1
|  6> C -2.811998772 -0.5703921364 0.0715943896
|  7> O -1.4573374267 -0.9610237939 0.2776556324
|  8> C -0.5277205785 -0.1161188819 -0.1778126162
|  9> O -0.7639780306 0.923799936 -0.7195705949
| 10> C 0.852849523 -0.6962110982 0.0816798825
| 11> Cl 2.0569885835 0.6003653789 0.198424368
| 12> H -2.9924656332 0.4118300312 0.5116795228
| 13> H -3.4212468158 -1.3277629203 0.5570951085
| 14> H -3.0336245379 -0.5249687881 -0.9961306666
| 15> H 1.1348231352 -1.3401308424 -0.753263398
| 16> H 0.8545237465 -1.2682968235 1.008395188
| 17> *
| 18>
| 19>                          ****END OF INPUT****

CARTESIAN COORDINATES (ANGSTROEM)
---------------------------------
  C     -2.811999   -0.570392    0.071594
  O     -1.457337   -0.961024    0.277656
  C     -0.527721   -0.116119   -0.177813
  O     -0.763978    0.923800   -0.719571
  C      0.852850   -0.696211    0.081680
  Cl     2.056989    0.600365    0.198424
  H     -2.992466    0.411830    0.511680
  H     -3.421247   -1.327763    0.557095
  H     -3.033625   -0.524969   -0.996131
  H      1.134823   -1.340131   -0.753263
  H      0.854524   -1.268297    1.008395

 Total Charge           Charge          ....    0
 Multiplicity           Mult            ....    1
 Number of Electrons    NEL             ....   56
 Basis Dimension        Dim             ....  157

ORBITAL ENERGIES
----------------

  NO   OCC          E(Eh)            E(eV)
   0   2.0000    -101.212387     -2754.1291
   1   2.0000     -19.017347      -517.4883
   2   2.0000     -18.950301      -515.6639
   3   2.0000     -10.174047      -276.8499
   4   2.0000     -10.113901      -275.2132
   5   2.0000     -10.098280      -274.7882
   6   2.0000      -9.368217      -254.9222
   7   2.0000      -7.115040      -193.6101
   8   2.0000      -7.103977      -193.3090
   9   2.0000      -7.103913      -193.3073
  10   2.0000      -1.092908       -29.7395
  11   2.0000      -1.002756       -27.2864
  12   2.0000      -0.833754       -22.6876
  13   2.0000      -0.732229       -19.9250
  14   2.0000      -0.659111       -17.9353
  15   2.0000      -0.549548       -14.9540
  16   2.0000      -0.493491       -13.4286
  17   2.0000      -0.479760       -13.0549
  18   2.0000      -0.459987       -12.5169
  19   2.0000      -0.434416       -11.8211
  20   2.0000      -0.409409       -11.1406
  21   2.0000      -0.395622       -10.7654
  22   2.0000      -0.366636        -9.9767
  23   2.0000      -0.343035        -9.3345
  24   2.0000      -0.293554        -7.9880
  25   2.0000      -0.278200        -7.5702
  26   2.0000      -0.275293        -7.4911
  27   2.0000      -0.258873        -7.0443
  28   0.0000      -0.040367        -1.0984
  29   0.0000       0.006171         0.1679
  30   0.0000       0.065268         1.7760
  31   0.0000       0.085945         2.3387
  32   0.0000       0.111156         3.0247

MULLIKEN ATOMIC CHARGES
-----------------------
   0 C :   -0.291616
   1 O :   -0.186235
   2 C :    0.359509
   3 O :   -0.389571
   4 C :   -0.197273
   5 Cl:   -0.138756
   6 H :    0.166435
   7 H :    0.153758
   8 H :    0.160403
   9 H :    0.181841
  10 H :    0.181505
Sum of atomic charges:   -0.0000000

LOEWDIN ATOMIC CHARGES
----------------------
   0 C :   -0.041209
   1 O :   -0.603878
   2 C :    0.328603
   3 O :   -0.395537
   4 C :   -0.262602
   5 Cl:    0.075992
   6 H :    0.180342
   7 H :    0.177923
   8 H :    0.176712
   9 H :    0.182679
  10 H :    0.180975

  Mayer bond orders larger than 0.100000
B(  0-C ,  1-O ) :   0.8531 B(  0-C ,  6-H ) :   0.9612 B(  0-C ,  7-H ) :   0.9680
B(  0-C ,  8-H ) :   0.9596 B(  1-O ,  2-C ) :   1.0492 B(  2-C ,  3-O ) :   1.8569
B(  2-C ,  4-C ) :   0.9936 B(  4-C ,  5-Cl) :   1.0389 B(  4-C ,  9-H ) :   0.9200
B(  4-C , 10-H ) :   0.9561

Dispersion correction           -0.002558480
FINAL SINGLE POINT ENERGY      -727.903626149116

DIPOLE MOMENT
-------------

Method             : SCF
Type of density    : Electron Density
Multiplicity       :   1
Irrep              :   0
Energy             :  -727.9114666239041753 Eh
Relativity type    :
Basis              : AO
                                X                 Y                 Z
Electronic contribution:      9.031010151       3.540983543       0.204602747
Nuclear contribution   :     -9.790671964      -4.605338547       0.034642684
                        -----------------------------------------
Total Dipole Moment    :     -0.759661814      -1.064355005       0.239245431
                        -----------------------------------------
Magnitude (a.u.)       :      1.329351730
Magnitude (Debye)      :      3.378943570

Rotational constants in cm-1:             0.311642             0.047241             0.042481
Rotational constants in MHz :          9342.799352          1416.242483          1273.541625

                             ****ORCA TERMINATED NORMALLY****
TOTAL RUN TIME: 0 days 0 hours 0 minutes 13 seconds 814 msec
