                         Program Version 6.0.0  -   RELEASE  -
|  1> ! r2SCAN-3c DEF2-TZVP FREQ
|  2> * xyzfile 0 1 censo.xyz
|  3>
|  4>                          ****END OF INPUT****

CARTESIAN COORDINATES (ANGSTROEM)
---------------------------------
  C     -1.480126   -0.001754   -0.230426
  C     -0.727921   -1.251495    0.230060
  C      0.722588   -1.186326   -0.222415
  O      1.376050    0.001690    0.262876
  C      0.719731    1.188143   -0.222372
  C     -0.730945    1.249794    0.230086
  H     -2.505618   -0.002996    0.154025
  H     -1.542944   -0.001820   -1.327248
  H     -0.759377   -1.325480    1.324692
  H     -1.186989   -2.160558   -0.175821
  H      1.303394   -2.028512    0.165427
  H      0.777887   -1.202219   -1.323579
  H      1.298491    2.031718    0.165517
  H      0.775011    1.204230   -1.323532
  H     -0.762593    1.323682    1.324718
  H     -1.192207    2.157749   -0.175788

 Total Charge           Charge          ....    0
 Multiplicity           Mult            ....    1
 Number of Electrons    NEL             ....   48
 Basis Dimension        Dim             ....  246

ORBITAL ENERGIES
----------------

  NO   OCC          E(Eh)            E(eV)
   0   2.0000     -18.947587      -515.5901
   1   2.0000     -10.072335      -274.0822
   2   2.0000     -10.072328      -274.0820
   3   2.0000     -10.031774      -272.9785
   4   2.0000     -10.028706      -272.8950
   5   2.0000     -10.028698      -272.8948
   6   2.0000      -0.982666       -26.7397
   7   2.0000      -0.765600       -20.8330
   8   2.0000      -0.725629       -19.7454
   9   2.0000      -0.610024       -16.5996
  10   2.0000      -0.597394       -16.2559
  11   2.0000      -0.528501       -14.3812
  12   2.0000      -0.459862       -12.5135
  13   2.0000      -0.436520       -11.8783
  14   2.0000      -0.418548       -11.3893
  15   2.0000      -0.406573       -11.0634
  16   2.0000      -0.386831       -10.5262
  17   2.0000      -0.356559        -9.7025
  18   2.0000      -0.344852        -9.3839
  19   2.0000      -0.322804        -8.7839
  20   2.0000      -0.306115        -8.3298
  21   2.0000      -0.293398        -7.9838
  22   2.0000      -0.267936        -7.2909
  23   2.0000      -0.217002        -5.9049
  24   0.0000       0.044834         1.2200
  25   0.0000       0.064425         1.7531
  26   0.0000       0.077747         2.1156
  27   0.0000       0.079413         2.1609
  28   0.0000       0.092063         2.5052

MULLIKEN ATOMIC CHARGES
-----------------------
   0 C :   -0.150999
   1 C :   -0.145502
   2 C :   -0.027313
   3 O :   -0.329006
   4 C :   -0.027302
   5 C :   -0.145516
   6 H :    0.091445
   7 H :    0.078375
   8 H :    0.080246
   9 H :    0.084346
  10 H :    0.097338
  11 H :    0.065980
  12 H :    0.097339
  13 H :    0.065978
  14 H :    0.080244
  15 H :    0.084347
Sum of atomic charges:   -0.0000000

LOEWDIN ATOMIC CHARGES
----------------------
   0 C :   -0.265327
   1 C :   -0.271230
   2 C :   -0.307115
   3 O :    0.128271
   4 C :   -0.307117
   5 C :   -0.271229
   6 H :    0.132367
   7 H :    0.134194
   8 H :    0.136705
   9 H :    0.135717
  10 H :    0.125276
  11 H :    0.115897
  12 H :    0.125276
  13 H :    0.115896
  14 H :    0.136704
  15 H :    0.135716

  Mayer bond orders larger than 0.100000
B(  0-C ,  1-C ) :   0.9810 B(  0-C ,  5-C ) :   0.9810 B(  0-C ,  6-H ) :   0.9656
B(  0-C ,  7-H ) :   0.9698 B(  1-C ,  2-C ) :   0.9987 B(  1-C ,  8-H ) :   0.9543
B(  1-C ,  9-H ) :   0.9561 B(  2-C ,  3-O ) :   0.9796 B(  2-C , 10-H ) :   0.9634
B(  2-C , 11-H ) :   0.9685 B(  3-O ,  4-C ) :   0.9796 B(  4-C ,  5-C ) :   0.9987
B(  4-C , 12-H ) :   0.9634 B(  4-C , 13-H ) :   0.9685 B(  5-C , 14-H ) :   0.9543
B(  5-C , 15-H ) :   0.9561

Dispersion correction           -0.003998884
FINAL SINGLE POINT ENERGY      -271.711002170822

DIPOLE MOMENT
-------------

Method             : SCF
Type of density    : Electron Density
Multiplicity       :   1
Irrep              :   0
Energy             :  -271.7161050125390602 Eh
Relativity type    :
Basis              : AO
                                X                 Y                 Z
Electronic contribution:      3.021412413       0.003612036       0.914535222
Nuclear contribution   :     -3.563277650      -0.004263234      -1.160008862
                        -----------------------------------------
Total Dipole Moment    :     -0.541865237      -0.000651198      -0.245473640
                        -----------------------------------------
Magnitude (a.u.)       :      0.594874497
Magnitude (Debye)      :      1.512050807

VIBRATIONAL FREQUENCIES
-----------------------

Scaling factor for frequencies =  1.000000000  (already applied!)

     0:       0.00 cm**-1
     1:       0.00 cm**-1
     2:       0.00 cm**-1
     3:       0.00 cm**-1
     4:       0.00 cm**-1
     5:       0.00 cm**-1
     6:     248.34 cm**-1
     7:     260.40 cm**-1
     8:     410.54 cm**-1
     9:     437.86 cm**-1
    10:     463.94 cm**-1
    11:     566.15 cm**-1
    12:     811.04 cm**-1
    13:     814.21 cm**-1
    14:     864.18 cm**-1
    15:     866.30 cm**-1
    16:     886.98 cm**-1
    17:     979.14 cm**-1
    18:    1019.78 cm**-1
    19:    1036.33 cm**-1
    20:    1042.56 cm**-1
    21:    1078.05 cm**-1
    22:    1174.35 cm**-1
    23:    1180.47 cm**-1
    24:    1204.29 cm**-1
    25:    1281.54 cm**-1
    26:    1295.78 cm**-1
    27:    1314.81 cm**-1
    28:    1345.26 cm**-1
    29:    1366.82 cm**-1
    30:    1371.71 cm**-1
    31:    1378.06 cm**-1
    32:    1399.78 cm**-1
    33:    1461.42 cm**-1
    34:    1472.32 cm**-1
    35:    1478.01 cm**-1
    36:    1479.28 cm**-1
    37:    1495.13 cm**-1
    38:    2949.23 cm**-1
    39:    2953.87 cm**-1
    40:    2995.06 cm**-1
    41:    3004.62 cm**-1
    42:    3004.80 cm**-1
    43:    3051.63 cm**-1
    44:    3055.34 cm**-1
    45:    3061.93 cm**-1
    46:    3070.74 cm**-1
    47:    3072.98 cm**-1

IR SPECTRUM
-----------

 Mode   freq       eps      Int      T**2         TX        TY        TZ
       cm**-1   L/(mol*cm) km/mol    a.u.
----------------------------------------------------------------------------
  6:    248.34   0.000067    0.34  0.000084  ( 0.000008 -0.009141  0.000002)
  7:    260.40   0.000683    3.45  0.000818  ( 0.013865  0.000016 -0.025017)
  8:    410.54   0.000770    3.89  0.000585  (-0.014586 -0.000018  0.019302)
  9:    437.86   0.000285    1.44  0.000203  (-0.013985 -0.000019  0.002777)
 10:    463.94   0.000000    0.00  0.000000  (-0.000002 -0.000310 -0.000001)
 11:    566.15   0.000710    3.59  0.000392  (-0.019786 -0.000026 -0.000181)
 12:    811.04   0.002082   10.52  0.000801  (-0.021128 -0.000021 -0.018838)
 13:    814.21   0.000477    2.41  0.000183  (-0.000006  0.013517  0.000008)
 14:    864.18   0.004134   20.89  0.001493  (-0.037148 -0.000044 -0.010626)
 15:    866.30   0.000590    2.98  0.000213  ( 0.006121  0.000009 -0.013230)
 16:    886.98   0.000374    1.89  0.000132  (-0.000007  0.011469  0.000004)
 17:    979.14   0.001773    8.96  0.000565  (-0.000023  0.023772  0.000002)
 18:   1019.78   0.001802    9.11  0.000551  ( 0.023458  0.000029  0.001051)
 19:   1036.33   0.016712   84.46  0.005032  ( 0.000087 -0.070939 -0.000007)
 20:   1042.56   0.001180    5.96  0.000353  (-0.001776 -0.000009  0.018708)
 21:   1078.05   0.003063   15.48  0.000887  ( 0.000034 -0.029778  0.000000)
 22:   1174.35   0.000541    2.73  0.000144  (-0.001620  0.000004 -0.011882)
 23:   1180.47   0.000142    0.72  0.000037  ( 0.000006 -0.006121  0.000003)
 24:   1204.29   0.003142   15.88  0.000814  (-0.000031  0.028536  0.000002)
 25:   1281.54   0.001021    5.16  0.000249  ( 0.013980  0.000019 -0.007285)
 26:   1295.78   0.000905    4.57  0.000218  ( 0.000018 -0.014765 -0.000004)
 27:   1314.81   0.000763    3.86  0.000181  ( 0.009836  0.000013  0.009189)
 28:   1345.26   0.000095    0.48  0.000022  (-0.000009  0.004693 -0.000002)
 29:   1366.82   0.000065    0.33  0.000015  ( 0.000006 -0.003858 -0.000001)
 30:   1371.71   0.000264    1.34  0.000060  (-0.007282 -0.000004  0.002672)
 31:   1378.06   0.000786    3.97  0.000178  (-0.000013  0.013344 -0.000006)
 32:   1399.78   0.000971    4.91  0.000217  (-0.014695 -0.000016 -0.000748)
 33:   1461.42   0.000597    3.02  0.000128  (-0.000015  0.011295  0.000003)
 34:   1472.32   0.001432    7.24  0.000304  ( 0.002783  0.000006 -0.017200)
 35:   1478.01   0.001402    7.09  0.000296  ( 0.016075  0.000018 -0.006134)
 36:   1479.28   0.000323    1.63  0.000068  ( 0.000008 -0.008256  0.000001)
 37:   1495.13   0.000883    4.46  0.000184  (-0.004645 -0.000006 -0.012757)
 38:   2949.23   0.005530   27.95  0.000585  ( 0.000039 -0.024190 -0.000032)
 39:   2953.87   0.019655   99.33  0.002076  ( 0.014683  0.000037 -0.043138)
 40:   2995.06   0.005188   26.22  0.000541  ( 0.016867  0.000021  0.016001)
 41:   3004.62   0.006197   31.32  0.000644  (-0.000020 -0.025370  0.000128)
 42:   3004.80   0.004356   22.01  0.000452  (-0.007871  0.000154  0.019758)
 43:   3051.63   0.007465   37.72  0.000763  (-0.026925 -0.000044 -0.006197)
 44:   3055.34   0.009127   46.12  0.000932  ( 0.000048 -0.030531 -0.000002)
 45:   3061.93   0.011191   56.55  0.001141  ( 0.010932  0.000018 -0.031954)
 46:   3070.74   0.008507   42.99  0.000864  (-0.000029  0.029402  0.000013)
 47:   3072.98   0.008842   44.68  0.000898  (-0.016022 -0.000007 -0.025323)

--------------------------
THERMOCHEMISTRY AT 298.15K
--------------------------

Temperature         ...   298.15 K
Pressure            ...     1.00 atm
Total Mass          ...    86.13 AMU
Quasi RRHO          ...     True
Cut-Off Frequency   ...     1.00 cm^-1

Throughout the following assumptions are being made:
  (1) The electronic state is orbitally nondegenerate
  (2) There are no thermally accessible electronically excited states
  (3) Hindered rotations indicated by low frequency modes are not
      treated as such but are treated as vibrations and this may
      cause some error
  (4) All equations used are the standard statistical mechanics
      equations for an ideal gas
  (5) All vibrations are strictly harmonic

freq.     248.34  E(vib)   ...       0.31
freq.     260.40  E(vib)   ...       0.30
freq.     410.54  E(vib)   ...       0.19
freq.     437.86  E(vib)   ...       0.17
freq.     463.94  E(vib)   ...       0.16
freq.     566.15  E(vib)   ...       0.11
freq.     811.04  E(vib)   ...       0.05
freq.     814.21  E(vib)   ...       0.05
freq.     864.18  E(vib)   ...       0.04
freq.     866.30  E(vib)   ...       0.04
freq.     886.98  E(vib)   ...       0.04
freq.     979.14  E(vib)   ...       0.03
freq.    1019.78  E(vib)   ...       0.02
freq.    1036.33  E(vib)   ...       0.02
freq.    1042.56  E(vib)   ...       0.02
freq.    1078.05  E(vib)   ...       0.02
freq.    1174.35  E(vib)   ...       0.01
freq.    1180.47  E(vib)   ...       0.01
freq.    1204.29  E(vib)   ...       0.01
freq.    1281.54  E(vib)   ...       0.01
freq.    1295.78  E(vib)   ...       0.01
freq.    1314.81  E(vib)   ...       0.01
freq.    1345.26  E(vib)   ...       0.01
freq.    1366.82  E(vib)   ...       0.01
freq.    1371.71  E(vib)   ...       0.01
freq.    1378.06  E(vib)   ...       0.01
freq.    1399.78  E(vib)   ...       0.00
freq.    1461.42  E(vib)   ...       0.00
freq.    1472.32  E(vib)   ...       0.00
freq.    1478.01  E(vib)   ...       0.00
freq.    1479.28  E(vib)   ...       0.00
freq.    1495.13  E(vib)   ...       0.00
freq.    2949.23  E(vib)   ...       0.00
freq.    2953.87  E(vib)   ...       0.00
freq.    2995.06  E(vib)   ...       0.00
freq.    3004.62  E(vib)   ...       0.00
freq.    3004.80  E(vib)   ...       0.00
freq.    3051.63  E(vib)   ...       0.00
freq.    3055.34  E(vib)   ...       0.00
freq.    3061.93  E(vib)   ...       0.00
freq.    3070.74  E(vib)   ...       0.00
freq.    3072.98  E(vib)   ...       0.00

------------
INNER ENERGY
------------

The inner energy is: U= E(el) + E(ZPE) + E(vib) + E(rot) + E(trans)
    E(el)   - is the total energy from the electronic structure calculation
              = E(kin-el) + E(nuc-el) + E(el-el) + E(nuc-nuc)
    E(ZPE)  - the the zero temperature vibrational energy from the frequency calculation
    E(vib)  - the the finite temperature correction to E(ZPE) due to population
              of excited vibrational states
    E(rot)  - is the rotational thermal energy
    E(trans)- is the translational thermal energy

Summary of contributions to the inner energy U:
Electronic energy                ...   -271.71100217 Eh
Zero point energy                ...      0.14513071 Eh      91.07 kcal/mol
Thermal vibrational correction   ...      0.00261628 Eh       1.64 kcal/mol
Thermal rotational correction    ...      0.00141627 Eh       0.89 kcal/mol
Thermal translational correction ...      0.00141627 Eh       0.89 kcal/mol
-----------------------------------------------------------------------
Total thermal energy                   -271.56042264 Eh

Summary of corrections to the electronic energy:
(perhaps to be used in another calculation)
Total thermal correction                  0.00544883 Eh       3.42 kcal/mol
Non-thermal (ZPE) correction              0.14513071 Eh      91.07 kcal/mol
-----------------------------------------------------------------------
Total correction                          0.15057953 Eh      94.49 kcal/mol

--------
ENTHALPY
--------

The enthalpy is H = U + kB*T
                kB is Boltzmann's constant
Total thermal energy              ...   -271.56042264 Eh
Thermal Enthalpy correction       ...      0.00094421 Eh       0.59 kcal/mol
-----------------------------------------------------------------------
Total Enthalpy                    ...   -271.55947843 Eh

Note: Rotational entropy computed according to Herzberg
Infrared and Raman Spectra, Chapter V,1, Van Nostrand Reinhold, 1945
Point Group:  Cs, Symmetry Number:   1
Rotational constants in cm-1:     0.154968     0.149919     0.086514

Vibrational entropy computed according to the QRRHO of S. Grimme
Chem.Eur.J. 2012 18 9955 using a reference frequency of 100.0 cm-1

-------
ENTROPY
-------

The entropy contributions are T*S = T*(S(el)+S(vib)+S(rot)+S(trans))
     S(el)   - electronic entropy
     S(vib)  - vibrational entropy
     S(rot)  - rotational entropy
     S(trans)- translational entropy
The entropies will be listed as multiplied by the temperature to get
units of energy

Electronic entropy                ...      0.00000000 Eh      0.00 kcal/mol
Vibrational entropy               ...      0.00384925 Eh      2.42 kcal/mol
Rotational entropy                ...      0.01244233 Eh      7.81 kcal/mol
Translational entropy             ...      0.01865984 Eh     11.71 kcal/mol
-----------------------------------------------------------------------
Final entropy term                ...      0.03495142 Eh     21.93 kcal/mol

In case the symmetry of your molecule has not been determined correctly
or in case you have a reason to use a different symmetry number we print
out the resulting rotational entropy values for sn=1,12:

 non-linear molecules -----------------------------------
|  sn= 1 | S(rot)=       0.01244233 Eh      7.81 kcal/mol|
|  sn= 2 | S(rot)=       0.01178787 Eh      7.40 kcal/mol|
|  sn= 3 | S(rot)=       0.01140504 Eh      7.16 kcal/mol|
|  sn= 4 | S(rot)=       0.01113341 Eh      6.99 kcal/mol|
|  sn= 5 | S(rot)=       0.01092273 Eh      6.85 kcal/mol|
|  sn= 6 | S(rot)=       0.01075058 Eh      6.75 kcal/mol|
|  sn= 7 | S(rot)=       0.01060504 Eh      6.65 kcal/mol|
|  sn= 8 | S(rot)=       0.01047896 Eh      6.58 kcal/mol|
|  sn= 9 | S(rot)=       0.01036775 Eh      6.51 kcal/mol|
|  sn=10 | S(rot)=       0.01026827 Eh      6.44 kcal/mol|
|  sn=11 | S(rot)=       0.01017828 Eh      6.39 kcal/mol|
|  sn=12 | S(rot)=       0.01009613 Eh      6.34 kcal/mol|
 linear molecules ---------------------------------------
|  Dinfh | S(rot)=       0.00763665 Eh      4.79 kcal/mol|
|  Cinfv | S(rot)=       0.00829110 Eh      5.20 kcal/mol|
 --------------------------------------------------------

-------------------
GIBBS FREE ENERGY
-------------------

The Gibbs free energy is G = H - T*S

                             ****ORCA TERMINATED NORMALLY****
TOTAL RUN TIME: 0 days 0 hours 9 minutes 25 seconds 769 msec
