                         Program Version 6.0.0  -   RELEASE  -
|  1> ! r2SCAN-3c DEF2-TZVP FREQ
|  2> * xyzfile 0 1 vacuum_censo.xyz
|  3>
|  4>                          ****END OF INPUT****

CARTESIAN COORDINATES (ANGSTROEM)
---------------------------------
  C     -1.482498    0.001296   -0.230414
  C     -0.731439   -1.250726    0.228556
  C      0.723286   -1.179594   -0.221683
  O      1.367858   -0.001235    0.261696
  C      0.725364    1.178269   -0.221661
  C     -0.729218    1.251963    0.228613
  H     -2.508769    0.002192    0.152570
  H     -1.548786    0.001381   -1.327607
  H     -0.760412   -1.321924    1.323024
  H     -1.197096   -2.158350   -0.174276
  H      1.304820   -2.021495    0.166201
  H      0.775873   -1.203456   -1.325580
  H      1.308403    2.019134    0.166214
  H      0.777965    1.202041   -1.325559
  H     -0.758045    1.323159    1.323084
  H     -1.193269    2.160432   -0.174166

 Total Charge           Charge          ....    0
 Multiplicity           Mult            ....    1
 Number of Electrons    NEL             ....   48
 Basis Dimension        Dim             ....  246

ORBITAL ENERGIES
----------------

  NO   OCC          E(Eh)            E(eV)
   0   2.0000     -18.948976      -515.6278
   1   2.0000     -10.072493      -274.0865
   2   2.0000     -10.072487      -274.0863
   3   2.0000     -10.031587      -272.9734
   4   2.0000     -10.028551      -272.8907
   5   2.0000     -10.028543      -272.8905
   6   2.0000      -0.990003       -26.9394
   7   2.0000      -0.764968       -20.8158
   8   2.0000      -0.725777       -19.7494
   9   2.0000      -0.608770       -16.5655
  10   2.0000      -0.599194       -16.3049
  11   2.0000      -0.528472       -14.3805
  12   2.0000      -0.461067       -12.5463
  13   2.0000      -0.438578       -11.9343
  14   2.0000      -0.418373       -11.3845
  15   2.0000      -0.407323       -11.0838
  16   2.0000      -0.387097       -10.5334
  17   2.0000      -0.356258        -9.6943
  18   2.0000      -0.346380        -9.4255
  19   2.0000      -0.321732        -8.7548
  20   2.0000      -0.305629        -8.3166
  21   2.0000      -0.293187        -7.9780
  22   2.0000      -0.268547        -7.3075
  23   2.0000      -0.217561        -5.9201
  24   0.0000       0.045105         1.2274
  25   0.0000       0.064583         1.7574
  26   0.0000       0.079486         2.1629
  27   0.0000       0.080575         2.1926
  28   0.0000       0.092088         2.5058

MULLIKEN ATOMIC CHARGES
-----------------------
   0 C :   -0.151718
   1 C :   -0.147775
   2 C :   -0.023672
   3 O :   -0.325627
   4 C :   -0.023676
   5 C :   -0.147769
   6 H :    0.091573
   7 H :    0.077846
   8 H :    0.079768
   9 H :    0.085128
  10 H :    0.096358
  11 H :    0.064153
  12 H :    0.096358
  13 H :    0.064155
  14 H :    0.079770
  15 H :    0.085127
Sum of atomic charges:    0.0000000

LOEWDIN ATOMIC CHARGES
----------------------
   0 C :   -0.266087
   1 C :   -0.270138
   2 C :   -0.314166
   3 O :    0.143570
   4 C :   -0.314166
   5 C :   -0.270138
   6 H :    0.132054
   7 H :    0.133986
   8 H :    0.136306
   9 H :    0.135151
  10 H :    0.125209
  11 H :    0.115876
  12 H :    0.125209
  13 H :    0.115877
  14 H :    0.136307
  15 H :    0.135151

  Mayer bond orders larger than 0.100000
B(  0-C ,  1-C ) :   0.9811 B(  0-C ,  5-C ) :   0.9811 B(  0-C ,  6-H ) :   0.9654
B(  0-C ,  7-H ) :   0.9695 B(  1-C ,  2-C ) :   0.9969 B(  1-C ,  8-H ) :   0.9550
B(  1-C ,  9-H ) :   0.9564 B(  2-C ,  3-O ) :   0.9807 B(  2-C , 10-H ) :   0.9641
B(  2-C , 11-H ) :   0.9674 B(  3-O ,  4-C ) :   0.9806 B(  4-C ,  5-C ) :   0.9969
B(  4-C , 12-H ) :   0.9641 B(  4-C , 13-H ) :   0.9674 B(  5-C , 14-H ) :   0.9550
B(  5-C , 15-H ) :   0.9564

Dispersion correction           -0.004000194
FINAL SINGLE POINT ENERGY      -271.711328312344

DIPOLE MOMENT
-------------

Method             : SCF
Type of density    : Electron Density
Multiplicity       :   1
Irrep              :   0
Energy             :  -271.7164636923747594 Eh
Relativity type    :
Basis              : AO
                                X                 Y                 Z
Electronic contribution:      3.032844466      -0.002669144       0.923422761
Nuclear contribution   :     -3.555562354       0.003132931      -1.159708095
                        -----------------------------------------
Total Dipole Moment    :     -0.522717888       0.000463787      -0.236285334
                        -----------------------------------------
Magnitude (a.u.)       :      0.573641844
Magnitude (Debye)      :      1.458081691

VIBRATIONAL FREQUENCIES
-----------------------

Scaling factor for frequencies =  1.000000000  (already applied!)

     0:       0.00 cm**-1
     1:       0.00 cm**-1
     2:       0.00 cm**-1
     3:       0.00 cm**-1
     4:       0.00 cm**-1
     5:       0.00 cm**-1
     6:     249.61 cm**-1
     7:     258.11 cm**-1
     8:     411.78 cm**-1
     9:     437.60 cm**-1
    10:     466.18 cm**-1
    11:     568.03 cm**-1
    12:     818.11 cm**-1
    13:     821.37 cm**-1
    14:     865.43 cm**-1
    15:     875.72 cm**-1
    16:     883.30 cm**-1
    17:     981.02 cm**-1
    18:    1016.97 cm**-1
    19:    1047.44 cm**-1
    20:    1056.98 cm**-1
    21:    1084.11 cm**-1
    22:    1175.10 cm**-1
    23:    1185.54 cm**-1
    24:    1211.07 cm**-1
    25:    1281.81 cm**-1
    26:    1298.42 cm**-1
    27:    1321.23 cm**-1
    28:    1346.91 cm**-1
    29:    1364.95 cm**-1
    30:    1370.21 cm**-1
    31:    1382.52 cm**-1
    32:    1405.93 cm**-1
    33:    1461.94 cm**-1
    34:    1472.88 cm**-1
    35:    1480.46 cm**-1
    36:    1481.86 cm**-1
    37:    1496.99 cm**-1
    38:    2924.60 cm**-1
    39:    2930.14 cm**-1
    40:    2991.09 cm**-1
    41:    3005.13 cm**-1
    42:    3005.28 cm**-1
    43:    3048.93 cm**-1
    44:    3054.50 cm**-1
    45:    3060.37 cm**-1
    46:    3066.41 cm**-1
    47:    3068.99 cm**-1

IR SPECTRUM
-----------

 Mode   freq       eps      Int      T**2         TX        TY        TZ
       cm**-1   L/(mol*cm) km/mol    a.u.
----------------------------------------------------------------------------
  6:    249.61   0.000062    0.31  0.000077  (-0.000006 -0.008799 -0.000001)
  7:    258.11   0.000700    3.54  0.000846  ( 0.014304 -0.000012 -0.025323)
  8:    411.78   0.000819    4.14  0.000621  (-0.015216  0.000014  0.019730)
  9:    437.60   0.000250    1.26  0.000178  (-0.013254  0.000013  0.001579)
 10:    466.18   0.000000    0.00  0.000000  ( 0.000002  0.000202  0.000001)
 11:    568.03   0.000687    3.47  0.000377  (-0.019418  0.000019 -0.000553)
 12:    818.11   0.000268    1.35  0.000102  ( 0.000009  0.010104  0.000004)
 13:    821.37   0.000887    4.48  0.000337  ( 0.010489 -0.000013  0.015067)
 14:    865.43   0.001124    5.68  0.000405  ( 0.017991 -0.000017 -0.009037)
 15:    875.72   0.004447   22.48  0.001585  (-0.035927  0.000030 -0.017147)
 16:    883.30   0.000109    0.55  0.000038  (-0.000012  0.006193 -0.000010)
 17:    981.02   0.000849    4.29  0.000270  ( 0.000010  0.016433 -0.000001)
 18:   1016.97   0.002096   10.59  0.000643  (-0.025333  0.000023 -0.001185)
 19:   1047.44   0.001355    6.85  0.000404  ( 0.001177 -0.000002  0.020055)
 20:   1056.98   0.008689   43.91  0.002565  (-0.000045 -0.050649  0.000002)
 21:   1084.11   0.011264   56.93  0.003242  (-0.000050 -0.056943 -0.000000)
 22:   1175.10   0.000554    2.80  0.000147  (-0.001502 -0.000004 -0.012031)
 23:   1185.54   0.000011    0.06  0.000003  (-0.000001 -0.001707 -0.000002)
 24:   1211.07   0.005063   25.58  0.001304  ( 0.000030  0.036118 -0.000001)
 25:   1281.81   0.001030    5.21  0.000251  ( 0.014133 -0.000015 -0.007142)
 26:   1298.42   0.001174    5.93  0.000282  (-0.000015 -0.016799  0.000002)
 27:   1321.23   0.000846    4.28  0.000200  ( 0.009865 -0.000010  0.010127)
 28:   1346.91   0.000021    0.11  0.000005  ( 0.000004  0.002225  0.000001)
 29:   1364.95   0.000113    0.57  0.000026  (-0.000003 -0.005080 -0.000001)
 30:   1370.21   0.000256    1.29  0.000058  (-0.006898  0.000004  0.003268)
 31:   1382.52   0.000813    4.11  0.000183  ( 0.000011  0.013544  0.000004)
 32:   1405.93   0.001041    5.26  0.000231  (-0.015132  0.000013 -0.001450)
 33:   1461.94   0.000586    2.96  0.000125  ( 0.000010  0.011183 -0.000001)
 34:   1472.88   0.001498    7.57  0.000317  ( 0.003482 -0.000004 -0.017470)
 35:   1480.46   0.001404    7.09  0.000296  ( 0.016753 -0.000015 -0.003906)
 36:   1481.86   0.000287    1.45  0.000060  (-0.000007 -0.007773 -0.000000)
 37:   1496.99   0.000812    4.10  0.000169  (-0.002607  0.000003 -0.012744)
 38:   2924.60   0.005257   26.57  0.000561  (-0.000021 -0.023684  0.000002)
 39:   2930.14   0.021496  108.63  0.002289  ( 0.013936 -0.000014 -0.045773)
 40:   2991.09   0.005496   27.78  0.000573  ( 0.016159 -0.000016  0.017672)
 41:   3005.13   0.003556   17.97  0.000369  ( 0.009094  0.000279 -0.016925)
 42:   3005.28   0.007002   35.39  0.000727  (-0.000071  0.026964  0.000181)
 43:   3048.93   0.007831   39.57  0.000801  (-0.028138  0.000018 -0.003126)
 44:   3054.50   0.008767   44.30  0.000896  (-0.000017 -0.029928 -0.000012)
 45:   3060.37   0.010463   52.88  0.001067  ( 0.010424  0.000009 -0.030956)
 46:   3066.41   0.008919   45.07  0.000908  ( 0.000043  0.030127  0.000038)
 47:   3068.99   0.009482   47.92  0.000964  (-0.016136  0.000051 -0.026529)

--------------------------
THERMOCHEMISTRY AT 298.15K
--------------------------

Temperature         ...   298.15 K
Pressure            ...     1.00 atm
Total Mass          ...    86.13 AMU
Quasi RRHO          ...     True
Cut-Off Frequency   ...     1.00 cm^-1

Throughout the following assumptions are being made:
  (1) The electronic state is orbitally nondegenerate
  (2) There are no thermally accessible electronically excited states
  (3) Hindered rotations indicated by low frequency modes are not
      treated as such but are treated as vibrations and this may
      cause some error
  (4) All equations used are the standard statistical mechanics
      equations for an ideal gas
  (5) All vibrations are strictly harmonic

freq.     249.61  E(vib)   ...       0.31
freq.     258.11  E(vib)   ...       0.30
freq.     411.78  E(vib)   ...       0.19
freq.     437.60  E(vib)   ...       0.17
freq.     466.18  E(vib)   ...       0.16
freq.     568.03  E(vib)   ...       0.11
freq.     818.11  E(vib)   ...       0.05
freq.     821.37  E(vib)   ...       0.05
freq.     865.43  E(vib)   ...       0.04
freq.     875.72  E(vib)   ...       0.04
freq.     883.30  E(vib)   ...       0.04
freq.     981.02  E(vib)   ...       0.02
freq.    1016.97  E(vib)   ...       0.02
freq.    1047.44  E(vib)   ...       0.02
freq.    1056.98  E(vib)   ...       0.02
freq.    1084.11  E(vib)   ...       0.02
freq.    1175.10  E(vib)   ...       0.01
freq.    1185.54  E(vib)   ...       0.01
freq.    1211.07  E(vib)   ...       0.01
freq.    1281.81  E(vib)   ...       0.01
freq.    1298.42  E(vib)   ...       0.01
freq.    1321.23  E(vib)   ...       0.01
freq.    1346.91  E(vib)   ...       0.01
freq.    1364.95  E(vib)   ...       0.01
freq.    1370.21  E(vib)   ...       0.01
freq.    1382.52  E(vib)   ...       0.01
freq.    1405.93  E(vib)   ...       0.00
freq.    1461.94  E(vib)   ...       0.00
freq.    1472.88  E(vib)   ...       0.00
freq.    1480.46  E(vib)   ...       0.00
freq.    1481.86  E(vib)   ...       0.00
freq.    1496.99  E(vib)   ...       0.00
freq.    2924.60  E(vib)   ...       0.00
freq.    2930.14  E(vib)   ...       0.00
freq.    2991.09  E(vib)   ...       0.00
freq.    3005.13  E(vib)   ...       0.00
freq.    3005.28  E(vib)   ...       0.00
freq.    3048.93  E(vib)   ...       0.00
freq.    3054.50  E(vib)   ...       0.00
freq.    3060.37  E(vib)   ...       0.00
freq.    3066.41  E(vib)   ...       0.00
freq.    3068.99  E(vib)   ...       0.00

------------
INNER ENERGY
------------

The inner energy is: U= E(el) + E(ZPE) + E(vib) + E(rot) + E(trans)
    E(el)   - is the total energy from the electronic structure calculation
              = E(kin-el) + E(nuc-el) + E(el-el) + E(nuc-nuc)
    E(ZPE)  - the the zero temperature vibrational energy from the frequency calculation
    E(vib)  - the the finite temperature correction to E(ZPE) due to population
              of excited vibrational states
    E(rot)  - is the rotational thermal energy
    E(trans)- is the translational thermal energy

Summary of contributions to the inner energy U:
Electronic energy                ...   -271.71132831 Eh
Zero point energy                ...      0.14519908 Eh      91.11 kcal/mol
Thermal vibrational correction   ...      0.00260289 Eh       1.63 kcal/mol
Thermal rotational correction    ...      0.00141627 Eh       0.89 kcal/mol
Thermal translational correction ...      0.00141627 Eh       0.89 kcal/mol
-----------------------------------------------------------------------
Total thermal energy                   -271.56069380 Eh

Summary of corrections to the electronic energy:
(perhaps to be used in another calculation)
Total thermal correction                  0.00543544 Eh       3.41 kcal/mol
Non-thermal (ZPE) correction              0.14519908 Eh      91.11 kcal/mol
-----------------------------------------------------------------------
Total correction                          0.15063452 Eh      94.52 kcal/mol

--------
ENTHALPY
--------

The enthalpy is H = U + kB*T
                kB is Boltzmann's constant
Total thermal energy              ...   -271.56069380 Eh
Thermal Enthalpy correction       ...      0.00094421 Eh       0.59 kcal/mol
-----------------------------------------------------------------------
Total Enthalpy                    ...   -271.55974959 Eh

Note: Rotational entropy computed according to Herzberg
Infrared and Raman Spectra, Chapter V,1, Van Nostrand Reinhold, 1945
Point Group:  Cs, Symmetry Number:   1
Rotational constants in cm-1:     0.155760     0.150024     0.086766

Vibrational entropy computed according to the QRRHO of S. Grimme
Chem.Eur.J. 2012 18 9955 using a reference frequency of 100.0 cm-1

-------
ENTROPY
-------

The entropy contributions are T*S = T*(S(el)+S(vib)+S(rot)+S(trans))
     S(el)   - electronic entropy
     S(vib)  - vibrational entropy
     S(rot)  - rotational entropy
     S(trans)- translational entropy
The entropies will be listed as multiplied by the temperature to get
units of energy

Electronic entropy                ...      0.00000000 Eh      0.00 kcal/mol
Vibrational entropy               ...      0.00383200 Eh      2.40 kcal/mol
Rotational entropy                ...      0.01243821 Eh      7.81 kcal/mol
Translational entropy             ...      0.01865984 Eh     11.71 kcal/mol
-----------------------------------------------------------------------
Final entropy term                ...      0.03493006 Eh     21.92 kcal/mol

In case the symmetry of your molecule has not been determined correctly
or in case you have a reason to use a different symmetry number we print
out the resulting rotational entropy values for sn=1,12:

 non-linear molecules -----------------------------------
|  sn= 1 | S(rot)=       0.01243821 Eh      7.81 kcal/mol|
|  sn= 2 | S(rot)=       0.01178376 Eh      7.39 kcal/mol|
|  sn= 3 | S(rot)=       0.01140092 Eh      7.15 kcal/mol|
|  sn= 4 | S(rot)=       0.01112930 Eh      6.98 kcal/mol|
|  sn= 5 | S(rot)=       0.01091861 Eh      6.85 kcal/mol|
|  sn= 6 | S(rot)=       0.01074647 Eh      6.74 kcal/mol|
|  sn= 7 | S(rot)=       0.01060092 Eh      6.65 kcal/mol|
|  sn= 8 | S(rot)=       0.01047484 Eh      6.57 kcal/mol|
|  sn= 9 | S(rot)=       0.01036364 Eh      6.50 kcal/mol|
|  sn=10 | S(rot)=       0.01026416 Eh      6.44 kcal/mol|
|  sn=11 | S(rot)=       0.01017417 Eh      6.38 kcal/mol|
|  sn=12 | S(rot)=       0.01009201 Eh      6.33 kcal/mol|
 linear molecules ---------------------------------------
|  Dinfh | S(rot)=       0.00763389 Eh      4.79 kcal/mol|
|  Cinfv | S(rot)=       0.00828835 Eh      5.20 kcal/mol|
 --------------------------------------------------------

-------------------
GIBBS FREE ENERGY
-------------------

The Gibbs free energy is G = H - T*S

                             ****ORCA TERMINATED NORMALLY****
TOTAL RUN TIME: 0 days 0 hours 9 minutes 37 seconds 801 msec
