                         Program Version 6.0.0  -   RELEASE  -
|  1> ! r2SCAN-3c DEF2-TZVP FREQ
|  2> * xyzfile 0 1 censo.xyz
|  3>
|  4>                          ****END OF INPUT****

CARTESIAN COORDINATES (ANGSTROEM)
---------------------------------
  C     -0.733135   -1.201533   -0.230167
  C      0.717516   -1.179588    0.218400
  O      1.389194    0.001452   -0.256861
  C      0.715074    1.181091    0.218412
  C     -0.735628    1.200016   -0.230147
  N     -1.483058   -0.001542    0.192762
  H     -1.221447   -2.096421    0.170579
  H     -0.772923   -1.264743   -1.324861
  H      0.774131   -1.210966    1.319418
  H      1.269660   -2.033880   -0.186442
  H      0.771638    1.212592    1.319429
  H      1.265429    2.036534   -0.186436
  H     -1.225809    2.093877    0.170610
  H     -0.775550    1.263154   -1.324840
  H     -1.480660   -0.001548    1.212392

 Total Charge           Charge          ....    0
 Multiplicity           Mult            ....    1
 Number of Electrons    NEL             ....   48
 Basis Dimension        Dim             ....  240

ORBITAL ENERGIES
----------------

  NO   OCC          E(Eh)            E(eV)
   0   2.0000     -18.955016      -515.7922
   1   2.0000     -14.153299      -385.1308
   2   2.0000     -10.076505      -274.1956
   3   2.0000     -10.076498      -274.1955
   4   2.0000     -10.055719      -273.6300
   5   2.0000     -10.055715      -273.6299
   6   2.0000      -0.992162       -26.9981
   7   2.0000      -0.869972       -23.6731
   8   2.0000      -0.736046       -20.0288
   9   2.0000      -0.648607       -17.6495
  10   2.0000      -0.612562       -16.6686
  11   2.0000      -0.554144       -15.0790
  12   2.0000      -0.465598       -12.6696
  13   2.0000      -0.443462       -12.0672
  14   2.0000      -0.435161       -11.8413
  15   2.0000      -0.423385       -11.5209
  16   2.0000      -0.415945       -11.3184
  17   2.0000      -0.362962        -9.8767
  18   2.0000      -0.340771        -9.2729
  19   2.0000      -0.330350        -8.9893
  20   2.0000      -0.320683        -8.7262
  21   2.0000      -0.294078        -8.0023
  22   2.0000      -0.244036        -6.6406
  23   2.0000      -0.192015        -5.2250
  24   0.0000       0.037515         1.0208
  25   0.0000       0.067679         1.8416
  26   0.0000       0.071582         1.9479
  27   0.0000       0.078253         2.1294
  28   0.0000       0.084163         2.2902

MULLIKEN ATOMIC CHARGES
-----------------------
   0 C :   -0.092556
   1 C :   -0.021819
   2 O :   -0.322988
   3 C :   -0.021802
   4 C :   -0.092572
   5 N :   -0.299420
   6 H :    0.097393
   7 H :    0.082824
   8 H :    0.064525
   9 H :    0.094874
  10 H :    0.064525
  11 H :    0.094874
  12 H :    0.097394
  13 H :    0.082822
  14 H :    0.171925
Sum of atomic charges:   -0.0000000

LOEWDIN ATOMIC CHARGES
----------------------
   0 C :   -0.316124
   1 C :   -0.320348
   2 O :    0.128989
   3 C :   -0.320350
   4 C :   -0.316120
   5 N :   -0.024585
   6 H :    0.130437
   7 H :    0.132374
   8 H :    0.113116
   9 H :    0.126936
  10 H :    0.113115
  11 H :    0.126936
  12 H :    0.130437
  13 H :    0.132374
  14 H :    0.162813

  Mayer bond orders larger than 0.100000
B(  0-C ,  1-C ) :   0.9859 B(  0-C ,  5-N ) :   1.0007 B(  0-C ,  6-H ) :   0.9638
B(  0-C ,  7-H ) :   0.9565 B(  1-C ,  2-O ) :   0.9705 B(  1-C ,  8-H ) :   0.9612
B(  1-C ,  9-H ) :   0.9560 B(  2-O ,  3-C ) :   0.9705 B(  3-C ,  4-C ) :   0.9859
B(  3-C , 10-H ) :   0.9612 B(  3-C , 11-H ) :   0.9560 B(  4-C ,  5-N ) :   1.0007
B(  4-C , 12-H ) :   0.9638 B(  4-C , 13-H ) :   0.9565 B(  5-N , 14-H ) :   0.9293

Dispersion correction           -0.003725609
FINAL SINGLE POINT ENERGY      -287.735630955409

DIPOLE MOMENT
-------------

Method             : SCF
Type of density    : Electron Density
Multiplicity       :   1
Irrep              :   0
Energy             :  -287.7451271552714616 Eh
Relativity type    :
Basis              : AO
                                X                 Y                 Z
Electronic contribution:      1.196973922       0.001238655      -0.703068894
Nuclear contribution   :     -1.259120307      -0.001308182       1.144585772
                        -----------------------------------------
Total Dipole Moment    :     -0.062146385      -0.000069526       0.441516878
                        -----------------------------------------
Magnitude (a.u.)       :      0.445869186
Magnitude (Debye)      :      1.133309406

VIBRATIONAL FREQUENCIES
-----------------------

Scaling factor for frequencies =  1.000000000  (already applied!)

     0:       0.00 cm**-1
     1:       0.00 cm**-1
     2:       0.00 cm**-1
     3:       0.00 cm**-1
     4:       0.00 cm**-1
     5:       0.00 cm**-1
     6:     256.49 cm**-1
     7:     278.15 cm**-1
     8:     423.95 cm**-1
     9:     443.01 cm**-1
    10:     486.93 cm**-1
    11:     597.15 cm**-1
    12:     813.13 cm**-1
    13:     828.66 cm**-1
    14:     831.60 cm**-1
    15:     888.27 cm**-1
    16:     926.98 cm**-1
    17:    1011.94 cm**-1
    18:    1032.37 cm**-1
    19:    1050.67 cm**-1
    20:    1079.09 cm**-1
    21:    1103.47 cm**-1
    22:    1178.22 cm**-1
    23:    1197.92 cm**-1
    24:    1263.26 cm**-1
    25:    1309.97 cm**-1
    26:    1333.38 cm**-1
    27:    1340.15 cm**-1
    28:    1363.18 cm**-1
    29:    1380.40 cm**-1
    30:    1397.95 cm**-1
    31:    1457.39 cm**-1
    32:    1466.26 cm**-1
    33:    1468.94 cm**-1
    34:    1479.82 cm**-1
    35:    1484.65 cm**-1
    36:    2944.84 cm**-1
    37:    2951.77 cm**-1
    38:    3010.70 cm**-1
    39:    3013.50 cm**-1
    40:    3063.90 cm**-1
    41:    3064.32 cm**-1
    42:    3068.49 cm**-1
    43:    3069.14 cm**-1
    44:    3433.55 cm**-1

IR SPECTRUM
-----------

 Mode   freq       eps      Int      T**2         TX        TY        TZ
       cm**-1   L/(mol*cm) km/mol    a.u.
----------------------------------------------------------------------------
  6:    256.49   0.000012    0.06  0.000014  (-0.000005  0.003763  0.000016)
  7:    278.15   0.002727   13.78  0.003060  (-0.004246 -0.000005  0.055154)
  8:    423.95   0.001138    5.75  0.000838  ( 0.028904  0.000030 -0.001525)
  9:    443.01   0.000136    0.69  0.000096  ( 0.008912  0.000011 -0.004034)
 10:    486.93   0.000170    0.86  0.000109  (-0.000007  0.010433 -0.000000)
 11:    597.15   0.000786    3.97  0.000411  (-0.001322 -0.000004 -0.020228)
 12:    813.13   0.005385   27.21  0.002067  ( 0.045203  0.000048 -0.004821)
 13:    828.66   0.021671  109.52  0.008161  (-0.084947 -0.000090  0.030740)
 14:    831.60   0.000485    2.45  0.000182  ( 0.000042 -0.013493 -0.000008)
 15:    888.27   0.003470   17.53  0.001219  ( 0.000027 -0.034914  0.000004)
 16:    926.98   0.002684   13.56  0.000903  (-0.029959 -0.000031  0.002434)
 17:   1011.94   0.000462    2.34  0.000143  (-0.009257 -0.000014  0.007539)
 18:   1032.37   0.006502   32.86  0.001965  ( 0.000045 -0.044332 -0.000001)
 19:   1050.67   0.001596    8.07  0.000474  (-0.015557 -0.000014 -0.015235)
 20:   1079.09   0.014489   73.22  0.004190  ( 0.000064 -0.064732  0.000002)
 21:   1103.47   0.002336   11.81  0.000661  (-0.000023  0.025703  0.000000)
 22:   1178.22   0.002572   13.00  0.000681  (-0.020958 -0.000020  0.015560)
 23:   1197.92   0.000645    3.26  0.000168  (-0.000013  0.012962  0.000000)
 24:   1263.26   0.002281   11.53  0.000563  ( 0.000024 -0.023737  0.000001)
 25:   1309.97   0.000305    1.54  0.000073  (-0.002003 -0.000001 -0.008281)
 26:   1333.38   0.000805    4.07  0.000188  ( 0.013139  0.000016  0.003958)
 27:   1340.15   0.000219    1.11  0.000051  (-0.000010  0.007147 -0.000002)
 28:   1363.18   0.001524    7.70  0.000349  ( 0.000020 -0.018678 -0.000001)
 29:   1380.40   0.000144    0.73  0.000033  (-0.005002 -0.000006  0.002764)
 30:   1397.95   0.000507    2.56  0.000113  ( 0.009342  0.000010 -0.005091)
 31:   1457.39   0.000148    0.75  0.000032  ( 0.000007 -0.005634  0.000001)
 32:   1466.26   0.001304    6.59  0.000277  ( 0.000017 -0.016657  0.000002)
 33:   1468.94   0.002022   10.22  0.000430  (-0.011272 -0.000013 -0.017392)
 34:   1479.82   0.000629    3.18  0.000133  (-0.004095 -0.000004 -0.010769)
 35:   1484.65   0.000874    4.42  0.000184  (-0.000013  0.013552  0.000001)
 36:   2944.84   0.006271   31.69  0.000664  (-0.000026  0.025778  0.000004)
 37:   2951.77   0.019825  100.19  0.002096  (-0.011560 -0.000010 -0.044298)
 38:   3010.70   0.007179   36.28  0.000744  (-0.000006  0.027278  0.000028)
 39:   3013.50   0.006151   31.09  0.000637  ( 0.015064 -0.000024  0.020251)
 40:   3063.90   0.019608   99.09  0.001997  ( 0.000144 -0.044688  0.000009)
 41:   3064.32   0.000591    2.99  0.000060  (-0.007696 -0.000571 -0.000791)
 42:   3068.49   0.000069    0.35  0.000007  (-0.000128 -0.002627  0.000253)
 43:   3069.14   0.013673   69.10  0.001390  ( 0.017045 -0.000004 -0.033162)
 44:   3433.55   0.000343    1.74  0.000031  ( 0.000548  0.000001 -0.005560)

--------------------------
THERMOCHEMISTRY AT 298.15K
--------------------------

Temperature         ...   298.15 K
Pressure            ...     1.00 atm
Total Mass          ...    87.12 AMU
Quasi RRHO          ...     True
Cut-Off Frequency   ...     1.00 cm^-1

Throughout the following assumptions are being made:
  (1) The electronic state is orbitally nondegenerate
  (2) There are no thermally accessible electronically excited states
  (3) Hindered rotations indicated by low frequency modes are not
      treated as such but are treated as vibrations and this may
      cause some error
  (4) All equations used are the standard statistical mechanics
      equations for an ideal gas
  (5) All vibrations are strictly harmonic

freq.     256.49  E(vib)   ...       0.30
freq.     278.15  E(vib)   ...       0.28
freq.     423.95  E(vib)   ...       0.18
freq.     443.01  E(vib)   ...       0.17
freq.     486.93  E(vib)   ...       0.15
freq.     597.15  E(vib)   ...       0.10
freq.     813.13  E(vib)   ...       0.05
freq.     828.66  E(vib)   ...       0.04
freq.     831.60  E(vib)   ...       0.04
freq.     888.27  E(vib)   ...       0.04
freq.     926.98  E(vib)   ...       0.03
freq.    1011.94  E(vib)   ...       0.02
freq.    1032.37  E(vib)   ...       0.02
freq.    1050.67  E(vib)   ...       0.02
freq.    1079.09  E(vib)   ...       0.02
freq.    1103.47  E(vib)   ...       0.02
freq.    1178.22  E(vib)   ...       0.01
freq.    1197.92  E(vib)   ...       0.01
freq.    1263.26  E(vib)   ...       0.01
freq.    1309.97  E(vib)   ...       0.01
freq.    1333.38  E(vib)   ...       0.01
freq.    1340.15  E(vib)   ...       0.01
freq.    1363.18  E(vib)   ...       0.01
freq.    1380.40  E(vib)   ...       0.01
freq.    1397.95  E(vib)   ...       0.00
freq.    1457.39  E(vib)   ...       0.00
freq.    1466.26  E(vib)   ...       0.00
freq.    1468.94  E(vib)   ...       0.00
freq.    1479.82  E(vib)   ...       0.00
freq.    1484.65  E(vib)   ...       0.00
freq.    2944.84  E(vib)   ...       0.00
freq.    2951.77  E(vib)   ...       0.00
freq.    3010.70  E(vib)   ...       0.00
freq.    3013.50  E(vib)   ...       0.00
freq.    3063.90  E(vib)   ...       0.00
freq.    3064.32  E(vib)   ...       0.00
freq.    3068.49  E(vib)   ...       0.00
freq.    3069.14  E(vib)   ...       0.00
freq.    3433.55  E(vib)   ...       0.00

------------
INNER ENERGY
------------

The inner energy is: U= E(el) + E(ZPE) + E(vib) + E(rot) + E(trans)
    E(el)   - is the total energy from the electronic structure calculation
              = E(kin-el) + E(nuc-el) + E(el-el) + E(nuc-nuc)
    E(ZPE)  - the the zero temperature vibrational energy from the frequency calculation
    E(vib)  - the the finite temperature correction to E(ZPE) due to population
              of excited vibrational states
    E(rot)  - is the rotational thermal energy
    E(trans)- is the translational thermal energy

Summary of contributions to the inner energy U:
Electronic energy                ...   -287.73563096 Eh
Zero point energy                ...      0.13394161 Eh      84.05 kcal/mol
Thermal vibrational correction   ...      0.00247779 Eh       1.55 kcal/mol
Thermal rotational correction    ...      0.00141627 Eh       0.89 kcal/mol
Thermal translational correction ...      0.00141627 Eh       0.89 kcal/mol
-----------------------------------------------------------------------
Total thermal energy                   -287.59637902 Eh

Summary of corrections to the electronic energy:
(perhaps to be used in another calculation)
Total thermal correction                  0.00531033 Eh       3.33 kcal/mol
Non-thermal (ZPE) correction              0.13394161 Eh      84.05 kcal/mol
-----------------------------------------------------------------------
Total correction                          0.13925194 Eh      87.38 kcal/mol

--------
ENTHALPY
--------

The enthalpy is H = U + kB*T
                kB is Boltzmann's constant
Total thermal energy              ...   -287.59637902 Eh
Thermal Enthalpy correction       ...      0.00094421 Eh       0.59 kcal/mol
-----------------------------------------------------------------------
Total Enthalpy                    ...   -287.59543481 Eh

Note: Rotational entropy computed according to Herzberg
Infrared and Raman Spectra, Chapter V,1, Van Nostrand Reinhold, 1945
Point Group:  Cs, Symmetry Number:   1
Rotational constants in cm-1:     0.161887     0.152568     0.089038

Vibrational entropy computed according to the QRRHO of S. Grimme
Chem.Eur.J. 2012 18 9955 using a reference frequency of 100.0 cm-1

-------
ENTROPY
-------

The entropy contributions are T*S = T*(S(el)+S(vib)+S(rot)+S(trans))
     S(el)   - electronic entropy
     S(vib)  - vibrational entropy
     S(rot)  - rotational entropy
     S(trans)- translational entropy
The entropies will be listed as multiplied by the temperature to get
units of energy

Electronic entropy                ...      0.00000000 Eh      0.00 kcal/mol
Vibrational entropy               ...      0.00362012 Eh      2.27 kcal/mol
Rotational entropy                ...      0.01239986 Eh      7.78 kcal/mol
Translational entropy             ...      0.01867599 Eh     11.72 kcal/mol
-----------------------------------------------------------------------
Final entropy term                ...      0.03469597 Eh     21.77 kcal/mol

In case the symmetry of your molecule has not been determined correctly
or in case you have a reason to use a different symmetry number we print
out the resulting rotational entropy values for sn=1,12:

 non-linear molecules -----------------------------------
|  sn= 1 | S(rot)=       0.01239986 Eh      7.78 kcal/mol|
|  sn= 2 | S(rot)=       0.01174540 Eh      7.37 kcal/mol|
|  sn= 3 | S(rot)=       0.01136257 Eh      7.13 kcal/mol|
|  sn= 4 | S(rot)=       0.01109095 Eh      6.96 kcal/mol|
|  sn= 5 | S(rot)=       0.01088026 Eh      6.83 kcal/mol|
|  sn= 6 | S(rot)=       0.01070811 Eh      6.72 kcal/mol|
|  sn= 7 | S(rot)=       0.01056257 Eh      6.63 kcal/mol|
|  sn= 8 | S(rot)=       0.01043649 Eh      6.55 kcal/mol|
|  sn= 9 | S(rot)=       0.01032528 Eh      6.48 kcal/mol|
|  sn=10 | S(rot)=       0.01022580 Eh      6.42 kcal/mol|
|  sn=11 | S(rot)=       0.01013581 Eh      6.36 kcal/mol|
|  sn=12 | S(rot)=       0.01005366 Eh      6.31 kcal/mol|
 linear molecules ---------------------------------------
|  Dinfh | S(rot)=       0.00760949 Eh      4.78 kcal/mol|
|  Cinfv | S(rot)=       0.00826394 Eh      5.19 kcal/mol|
 --------------------------------------------------------

-------------------
GIBBS FREE ENERGY
-------------------

The Gibbs free energy is G = H - T*S

Total enthalpy                    ...   -287.59543481 Eh
Total entropy correction          ...     -0.03469597 Eh    -21.77 kcal/mol

                             ****ORCA TERMINATED NORMALLY****
TOTAL RUN TIME: 0 days 0 hours 9 minutes 7 seconds 433 msec
