                         Program Version 6.0.0  -   RELEASE  -
|  1> ! r2SCAN-3c DEF2-TZVP FREQ
|  2> * xyzfile 0 1 vacuum_censo.xyz
|  3>
|  4>                          ****END OF INPUT****

CARTESIAN COORDINATES (ANGSTROEM)
---------------------------------
  C     -0.729163   -1.200503    0.239056
  C      0.714478   -1.172840   -0.239515
  O      1.385969    0.000359    0.221302
  C      0.713904    1.173215   -0.239552
  C     -0.729757    1.200194    0.239001
  N     -1.408490   -0.000334   -0.262970
  H     -0.731309   -1.263040    1.344206
  H     -1.228400   -2.093320   -0.156834
  H      1.274233   -2.024229    0.159238
  H      0.737926   -1.209554   -1.341631
  H      1.273233    2.024889    0.159189
  H      0.737353    1.209917   -1.341668
  H     -0.731954    1.262792    1.344147
  H     -1.229425    2.092743   -0.156949
  H     -2.374529   -0.000564    0.043513

 Total Charge           Charge          ....    0
 Multiplicity           Mult            ....    1
 Number of Electrons    NEL             ....   48
 Basis Dimension        Dim             ....  240

ORBITAL ENERGIES
----------------

  NO   OCC          E(Eh)            E(eV)
   0   2.0000     -18.951748      -515.7033
   1   2.0000     -14.151773      -385.0893
   2   2.0000     -10.073031      -274.1011
   3   2.0000     -10.073024      -274.1009
   4   2.0000     -10.055699      -273.6295
   5   2.0000     -10.055695      -273.6294
   6   2.0000      -0.994440       -27.0601
   7   2.0000      -0.870087       -23.6763
   8   2.0000      -0.733925       -19.9711
   9   2.0000      -0.650686       -17.7061
  10   2.0000      -0.611446       -16.6383
  11   2.0000      -0.532508       -14.4903
  12   2.0000      -0.489532       -13.3208
  13   2.0000      -0.439624       -11.9628
  14   2.0000      -0.429115       -11.6768
  15   2.0000      -0.417092       -11.3497
  16   2.0000      -0.395230       -10.7548
  17   2.0000      -0.380408       -10.3514
  18   2.0000      -0.361151        -9.8274
  19   2.0000      -0.324006        -8.8167
  20   2.0000      -0.319648        -8.6981
  21   2.0000      -0.275146        -7.4871
  22   2.0000      -0.224938        -6.1209
  23   2.0000      -0.202273        -5.5041
  24   0.0000       0.039458         1.0737
  25   0.0000       0.066483         1.8091
  26   0.0000       0.074388         2.0242
  27   0.0000       0.082200         2.2368
  28   0.0000       0.100993         2.7482

MULLIKEN ATOMIC CHARGES
-----------------------
   0 C :   -0.073117
   1 C :    0.002661
   2 O :   -0.328606
   3 C :    0.002657
   4 C :   -0.073120
   5 N :   -0.342744
   6 H :    0.066339
   7 H :    0.089899
   8 H :    0.093666
   9 H :    0.063634
  10 H :    0.093665
  11 H :    0.063637
  12 H :    0.066341
  13 H :    0.089899
  14 H :    0.185189
Sum of atomic charges:   -0.0000000

LOEWDIN ATOMIC CHARGES
----------------------
   0 C :   -0.314260
   1 C :   -0.315776
   2 O :    0.141991
   3 C :   -0.315776
   4 C :   -0.314260
   5 N :   -0.024549
   6 H :    0.115842
   7 H :    0.129983
   8 H :    0.126290
   9 H :    0.118445
  10 H :    0.126290
  11 H :    0.118444
  12 H :    0.115841
  13 H :    0.129983
  14 H :    0.161511

  Mayer bond orders larger than 0.100000
B(  0-C ,  1-C ) :   1.0010 B(  0-C ,  5-N ) :   0.9879 B(  0-C ,  6-H ) :   0.9519
B(  0-C ,  7-H ) :   0.9500 B(  1-C ,  2-O ) :   0.9829 B(  1-C ,  8-H ) :   0.9608
B(  1-C ,  9-H ) :   0.9597 B(  2-O ,  3-C ) :   0.9829 B(  3-C ,  4-C ) :   1.0010
B(  3-C , 10-H ) :   0.9608 B(  3-C , 11-H ) :   0.9597 B(  4-C ,  5-N ) :   0.9879
B(  4-C , 12-H ) :   0.9519 B(  4-C , 13-H ) :   0.9500 B(  5-N , 14-H ) :   0.9333

Dispersion correction           -0.003702687
FINAL SINGLE POINT ENERGY      -287.737506484532

DIPOLE MOMENT
-------------

Method             : SCF
Type of density    : Electron Density
Multiplicity       :   1
Irrep              :   0
Energy             :  -287.7469900185126335 Eh
Relativity type    :
Basis              : AO
                                X                 Y                 Z
Electronic contribution:      1.506018154       0.000344108       0.063275005
Nuclear contribution   :     -2.098973664      -0.000483112       0.061589519
                        -----------------------------------------
Total Dipole Moment    :     -0.592955511      -0.000139003       0.124864524
                        -----------------------------------------
Magnitude (a.u.)       :      0.605959905
Magnitude (Debye)      :      1.540227674

VIBRATIONAL FREQUENCIES
-----------------------

Scaling factor for frequencies =  1.000000000  (already applied!)

     0:       0.00 cm**-1
     1:       0.00 cm**-1
     2:       0.00 cm**-1
     3:       0.00 cm**-1
     4:       0.00 cm**-1
     5:       0.00 cm**-1
     6:     272.67 cm**-1
     7:     274.55 cm**-1
     8:     429.22 cm**-1
     9:     447.26 cm**-1
    10:     482.44 cm**-1
    11:     593.70 cm**-1
    12:     797.26 cm**-1
    13:     838.31 cm**-1
    14:     859.49 cm**-1
    15:     892.07 cm**-1
    16:     911.73 cm**-1
    17:    1036.54 cm**-1
    18:    1081.26 cm**-1
    19:    1083.10 cm**-1
    20:    1090.49 cm**-1
    21:    1136.34 cm**-1
    22:    1142.96 cm**-1
    23:    1218.63 cm**-1
    24:    1240.01 cm**-1
    25:    1296.00 cm**-1
    26:    1330.13 cm**-1
    27:    1335.83 cm**-1
    28:    1367.90 cm**-1
    29:    1399.43 cm**-1
    30:    1413.80 cm**-1
    31:    1470.54 cm**-1
    32:    1471.95 cm**-1
    33:    1480.91 cm**-1
    34:    1481.56 cm**-1
    35:    1487.78 cm**-1
    36:    2904.30 cm**-1
    37:    2908.56 cm**-1
    38:    2954.75 cm**-1
    39:    2958.84 cm**-1
    40:    3041.49 cm**-1
    41:    3041.70 cm**-1
    42:    3073.57 cm**-1
    43:    3075.31 cm**-1
    44:    3510.35 cm**-1

IR SPECTRUM
-----------

 Mode   freq       eps      Int      T**2         TX        TY        TZ
       cm**-1   L/(mol*cm) km/mol    a.u.
----------------------------------------------------------------------------
  6:    272.67   0.000208    1.05  0.000238  (-0.000014  0.015434  0.000008)
  7:    274.55   0.001813    9.16  0.002061  ( 0.035971  0.000014 -0.027699)
  8:    429.22   0.000014    0.07  0.000010  (-0.003170 -0.000001 -0.000310)
  9:    447.26   0.001184    5.98  0.000826  ( 0.008278  0.000002  0.027520)
 10:    482.44   0.000195    0.98  0.000126  ( 0.000003 -0.011221 -0.000000)
 11:    593.70   0.006254   31.60  0.003287  (-0.050447 -0.000014 -0.027245)
 12:    797.26   0.017911   90.51  0.007011  ( 0.048547  0.000014  0.068219)
 13:    838.31   0.003687   18.63  0.001372  (-0.025494 -0.000005 -0.026878)
 14:    859.49   0.000222    1.12  0.000080  ( 0.000000  0.008969  0.000003)
 15:    892.07   0.001247    6.30  0.000436  ( 0.000006 -0.020886 -0.000000)
 16:    911.73   0.002558   12.93  0.000876  (-0.029412 -0.000008  0.003244)
 17:   1036.54   0.001374    6.94  0.000414  ( 0.020009  0.000005  0.003653)
 18:   1081.26   0.001897    9.59  0.000547  ( 0.004376  0.000004 -0.022985)
 19:   1083.10   0.002818   14.24  0.000812  ( 0.000008 -0.028496 -0.000003)
 20:   1090.49   0.019016   96.10  0.005442  ( 0.000017 -0.073769  0.000000)
 21:   1136.34   0.005407   27.33  0.001485  ( 0.000011 -0.038536  0.000003)
 22:   1142.96   0.000489    2.47  0.000133  ( 0.007142  0.000008  0.009077)
 23:   1218.63   0.000917    4.63  0.000235  (-0.000004  0.015320 -0.000001)
 24:   1240.01   0.000864    4.36  0.000217  (-0.000004  0.014741 -0.000001)
 25:   1296.00   0.001185    5.99  0.000285  (-0.004068 -0.000001  0.016396)
 26:   1330.13   0.000585    2.95  0.000137  (-0.007368  0.000003 -0.009104)
 27:   1335.83   0.005606   28.33  0.001310  (-0.000008  0.036188  0.000001)
 28:   1367.90   0.002476   12.51  0.000565  ( 0.000006 -0.023768  0.000000)
 29:   1399.43   0.000249    1.26  0.000056  (-0.007152 -0.000001 -0.002116)
 30:   1413.80   0.000432    2.18  0.000095  ( 0.009707  0.000003  0.001042)
 31:   1470.54   0.000038    0.19  0.000008  (-0.000000  0.002840 -0.000000)
 32:   1471.95   0.000256    1.30  0.000054  (-0.000001  0.007372  0.000000)
 33:   1480.91   0.000113    0.57  0.000024  ( 0.000015 -0.004874 -0.000019)
 34:   1481.56   0.002889   14.60  0.000609  (-0.016154 -0.000008  0.018645)
 35:   1487.78   0.000077    0.39  0.000016  (-0.004019 -0.000001  0.000204)
 36:   2904.30   0.008982   45.39  0.000965  (-0.000006  0.031067 -0.000049)
 37:   2908.56   0.021458  108.44  0.002302  (-0.001632  0.000032  0.047954)
 38:   2954.75   0.003977   20.10  0.000420  (-0.000006  0.020494  0.000005)
 39:   2958.84   0.022341  112.90  0.002356  ( 0.013187  0.000005 -0.046715)
 40:   3041.49   0.010701   54.08  0.001098  (-0.000128 -0.033135 -0.000185)
 41:   3041.70   0.005395   27.26  0.000553  ( 0.013811 -0.000320  0.019043)
 42:   3073.57   0.009694   48.99  0.000984  (-0.000018  0.031372 -0.000012)
 43:   3075.31   0.005096   25.75  0.000517  ( 0.015224  0.000025  0.016892)
 44:   3510.35   0.000033    0.17  0.000003  (-0.000738 -0.000000  0.001542)

--------------------------
THERMOCHEMISTRY AT 298.15K
--------------------------

Temperature         ...   298.15 K
Pressure            ...     1.00 atm
Total Mass          ...    87.12 AMU
Quasi RRHO          ...     True
Cut-Off Frequency   ...     1.00 cm^-1

Throughout the following assumptions are being made:
  (1) The electronic state is orbitally nondegenerate
  (2) There are no thermally accessible electronically excited states
  (3) Hindered rotations indicated by low frequency modes are not
      treated as such but are treated as vibrations and this may
      cause some error
  (4) All equations used are the standard statistical mechanics
      equations for an ideal gas
  (5) All vibrations are strictly harmonic

freq.     272.67  E(vib)   ...       0.29
freq.     274.55  E(vib)   ...       0.28
freq.     429.22  E(vib)   ...       0.18
freq.     447.26  E(vib)   ...       0.17
freq.     482.44  E(vib)   ...       0.15
freq.     593.70  E(vib)   ...       0.10
freq.     797.26  E(vib)   ...       0.05
freq.     838.31  E(vib)   ...       0.04
freq.     859.49  E(vib)   ...       0.04
freq.     892.07  E(vib)   ...       0.03
freq.     911.73  E(vib)   ...       0.03
freq.    1036.54  E(vib)   ...       0.02
freq.    1081.26  E(vib)   ...       0.02
freq.    1083.10  E(vib)   ...       0.02
freq.    1090.49  E(vib)   ...       0.02
freq.    1136.34  E(vib)   ...       0.01
freq.    1142.96  E(vib)   ...       0.01
freq.    1218.63  E(vib)   ...       0.01
freq.    1240.01  E(vib)   ...       0.01
freq.    1296.00  E(vib)   ...       0.01
freq.    1330.13  E(vib)   ...       0.01
freq.    1335.83  E(vib)   ...       0.01
freq.    1367.90  E(vib)   ...       0.01
freq.    1399.43  E(vib)   ...       0.00
freq.    1413.80  E(vib)   ...       0.00
freq.    1470.54  E(vib)   ...       0.00
freq.    1471.95  E(vib)   ...       0.00
freq.    1480.91  E(vib)   ...       0.00
freq.    1481.56  E(vib)   ...       0.00
freq.    1487.78  E(vib)   ...       0.00
freq.    2904.30  E(vib)   ...       0.00
freq.    2908.56  E(vib)   ...       0.00
freq.    2954.75  E(vib)   ...       0.00
freq.    2958.84  E(vib)   ...       0.00
freq.    3041.49  E(vib)   ...       0.00
freq.    3041.70  E(vib)   ...       0.00
freq.    3073.57  E(vib)   ...       0.00
freq.    3075.31  E(vib)   ...       0.00
freq.    3510.35  E(vib)   ...       0.00

------------
INNER ENERGY
------------

The inner energy is: U= E(el) + E(ZPE) + E(vib) + E(rot) + E(trans)
    E(el)   - is the total energy from the electronic structure calculation
              = E(kin-el) + E(nuc-el) + E(el-el) + E(nuc-nuc)
    E(ZPE)  - the the zero temperature vibrational energy from the frequency calculation
    E(vib)  - the the finite temperature correction to E(ZPE) due to population
              of excited vibrational states
    E(rot)  - is the rotational thermal energy
    E(trans)- is the translational thermal energy

Summary of contributions to the inner energy U:
Electronic energy                ...   -287.73750648 Eh
Zero point energy                ...      0.13403076 Eh      84.11 kcal/mol
Thermal vibrational correction   ...      0.00243966 Eh       1.53 kcal/mol
Thermal rotational correction    ...      0.00141627 Eh       0.89 kcal/mol
Thermal translational correction ...      0.00141627 Eh       0.89 kcal/mol
-----------------------------------------------------------------------
Total thermal energy                   -287.59820352 Eh

Summary of corrections to the electronic energy:
(perhaps to be used in another calculation)
Total thermal correction                  0.00527220 Eh       3.31 kcal/mol
Non-thermal (ZPE) correction              0.13403076 Eh      84.11 kcal/mol
-----------------------------------------------------------------------
Total correction                          0.13930296 Eh      87.41 kcal/mol

--------
ENTHALPY
--------

The enthalpy is H = U + kB*T
                kB is Boltzmann's constant
Total thermal energy              ...   -287.59820352 Eh
Thermal Enthalpy correction       ...      0.00094421 Eh       0.59 kcal/mol
-----------------------------------------------------------------------
Total Enthalpy                    ...   -287.59725931 Eh

Note: Rotational entropy computed according to Herzberg
Infrared and Raman Spectra, Chapter V,1, Van Nostrand Reinhold, 1945
Point Group:  Cs, Symmetry Number:   1
Rotational constants in cm-1:     0.164021     0.153801     0.089344

Vibrational entropy computed according to the QRRHO of S. Grimme
Chem.Eur.J. 2012 18 9955 using a reference frequency of 100.0 cm-1

-------
ENTROPY
-------

The entropy contributions are T*S = T*(S(el)+S(vib)+S(rot)+S(trans))
     S(el)   - electronic entropy
     S(vib)  - vibrational entropy
     S(rot)  - rotational entropy
     S(trans)- translational entropy
The entropies will be listed as multiplied by the temperature to get
units of energy

Electronic entropy                ...      0.00000000 Eh      0.00 kcal/mol
Vibrational entropy               ...      0.00355174 Eh      2.23 kcal/mol
Rotational entropy                ...      0.01238826 Eh      7.77 kcal/mol
Translational entropy             ...      0.01867599 Eh     11.72 kcal/mol
-----------------------------------------------------------------------
Final entropy term                ...      0.03461600 Eh     21.72 kcal/mol

In case the symmetry of your molecule has not been determined correctly
or in case you have a reason to use a different symmetry number we print
out the resulting rotational entropy values for sn=1,12:

 non-linear molecules -----------------------------------
|  sn= 1 | S(rot)=       0.01238826 Eh      7.77 kcal/mol|
|  sn= 2 | S(rot)=       0.01173380 Eh      7.36 kcal/mol|
|  sn= 3 | S(rot)=       0.01135097 Eh      7.12 kcal/mol|
|  sn= 4 | S(rot)=       0.01107935 Eh      6.95 kcal/mol|
|  sn= 5 | S(rot)=       0.01086866 Eh      6.82 kcal/mol|
|  sn= 6 | S(rot)=       0.01069651 Eh      6.71 kcal/mol|
|  sn= 7 | S(rot)=       0.01055097 Eh      6.62 kcal/mol|
|  sn= 8 | S(rot)=       0.01042489 Eh      6.54 kcal/mol|
|  sn= 9 | S(rot)=       0.01031368 Eh      6.47 kcal/mol|
|  sn=10 | S(rot)=       0.01021420 Eh      6.41 kcal/mol|
|  sn=11 | S(rot)=       0.01012421 Eh      6.35 kcal/mol|
|  sn=12 | S(rot)=       0.01004206 Eh      6.30 kcal/mol|
 linear molecules ---------------------------------------
|  Dinfh | S(rot)=       0.00760625 Eh      4.77 kcal/mol|
|  Cinfv | S(rot)=       0.00826071 Eh      5.18 kcal/mol|
 --------------------------------------------------------

-------------------
GIBBS FREE ENERGY
-------------------

The Gibbs free energy is G = H - T*S

Total enthalpy                    ...   -287.59725931 Eh
Total entropy correction          ...     -0.03461600 Eh    -21.72 kcal/mol

                             ****ORCA TERMINATED NORMALLY****
TOTAL RUN TIME: 0 days 0 hours 9 minutes 1 seconds 407 msec
