                         Program Version 6.0.1  -  RELEASE   -
|  1> ! pbe def2-sv(p) def2/J RI DEFGRID1 loosescf d4 GCP(DFT/SV(P)) printgap
|  2> %output
|  3>     printlevel normal
|  4> end
|  5> * xyz 0 1
|  6> C -2.5523643303 -0.9064606943 0.2645804873
|  7> C -1.1346043971 -0.4455485952 0.6340553511
|  8> H -1.0351183123 -0.3832923719 1.7273206864
|  9> C -0.8514574345 0.9440166894 0.0433014933
| 10> H -1.1143677968 0.9245489608 -1.0298260662
| 11> C 0.6355571535 1.286643926 0.1893770947
| 12> H 0.8628617754 1.4501991383 1.2497993144
| 13> C 1.5193006491 0.1506209855 -0.3380326024
| 14> H 1.3312065044 0.0228961373 -1.4229604967
| 15> C 1.1191509483 -1.1614611355 0.369078285
| 16> H 1.2957553846 -1.0598192786 1.4503005537
| 17> O -0.2481008245 -1.4124341609 0.1080679171
| 18> O 1.8453621153 -2.2519170861 -0.0362414552
| 19> O 2.8739332996 0.4205219026 -0.1129273845
| 20> O 0.9504188752 2.5110386209 -0.4404735934
| 21> O -1.6468834772 1.8801608939 0.7227104448
| 22> O -2.6687397559 -1.140031072 -1.1114082746
| 23> H -3.2598321455 -0.1165653508 0.5188024843
| 24> H -2.789034355 -1.8134946027 0.8355129452
| 25> H 1.7441001268 -2.3716724589 -0.9889459933
| 26> H 3.0040565983 1.376113379 -0.1889531695
| 27> H 0.744497558 2.4443830811 -1.3820630108
| 28> H -1.2919453003 2.7605686509 0.5414742367
| 29> H -1.9807826821 -1.7750908061 -1.3474412413
| 30> *
| 31>
| 32>                          ****END OF INPUT****

CARTESIAN COORDINATES (ANGSTROEM)
---------------------------------
  C     -2.552364   -0.906461    0.264580
  C     -1.134604   -0.445549    0.634055
  H     -1.035118   -0.383292    1.727321
  C     -0.851457    0.944017    0.043301
  H     -1.114368    0.924549   -1.029826
  C      0.635557    1.286644    0.189377
  H      0.862862    1.450199    1.249799
  C      1.519301    0.150621   -0.338033
  H      1.331207    0.022896   -1.422960
  C      1.119151   -1.161461    0.369078
  H      1.295755   -1.059819    1.450301
  O     -0.248101   -1.412434    0.108068
  O      1.845362   -2.251917   -0.036241
  O      2.873933    0.420522   -0.112927
  O      0.950419    2.511039   -0.440474
  O     -1.646883    1.880161    0.722710
  O     -2.668740   -1.140031   -1.111408
  H     -3.259832   -0.116565    0.518802
  H     -2.789034   -1.813495    0.835513
  H      1.744100   -2.371672   -0.988946
  H      3.004057    1.376113   -0.188953
  H      0.744498    2.444383   -1.382063
  H     -1.291945    2.760569    0.541474
  H     -1.980783   -1.775091   -1.347441

 Total Charge           Charge          ....    0
 Multiplicity           Mult            ....    1
 Number of Electrons    NEL             ....   96
 Basis Dimension        Dim             ....  192

ORBITAL ENERGIES
----------------

  NO   OCC          E(Eh)            E(eV)
   0   2.0000     -18.782325      -511.0930
   1   2.0000     -18.782097      -511.0868
   2   2.0000     -18.764345      -510.6038
   3   2.0000     -18.759297      -510.4664
   4   2.0000     -18.755816      -510.3717
   5   2.0000     -18.748989      -510.1859
   6   2.0000      -9.994197      -271.9559
   7   2.0000      -9.955449      -270.9015
   8   2.0000      -9.950379      -270.7636
   9   2.0000      -9.949609      -270.7426
  10   2.0000      -9.948417      -270.7102
  11   2.0000      -9.931057      -270.2378
  12   2.0000      -0.992590       -27.0098
  13   2.0000      -0.966017       -26.2867
  14   2.0000      -0.942793       -25.6547
  15   2.0000      -0.930978       -25.3332
  16   2.0000      -0.927627       -25.2420
  17   2.0000      -0.916938       -24.9511
  18   2.0000      -0.710888       -19.3442
  19   2.0000      -0.696658       -18.9570
  20   2.0000      -0.621885       -16.9224
  21   2.0000      -0.591545       -16.0968
  22   2.0000      -0.576936       -15.6992
  23   2.0000      -0.547825       -14.9071
  24   2.0000      -0.500691       -13.6245
  25   2.0000      -0.498509       -13.5651
  26   2.0000      -0.477490       -12.9932
  27   2.0000      -0.458715       -12.4823
  28   2.0000      -0.454493       -12.3674
  29   2.0000      -0.441253       -12.0071
  30   2.0000      -0.433631       -11.7997
  31   2.0000      -0.427061       -11.6209
  32   2.0000      -0.379333       -10.3222
  33   2.0000      -0.374588       -10.1931
  34   2.0000      -0.369686       -10.0597
  35   2.0000      -0.365841        -9.9550
  36   2.0000      -0.327809        -8.9201
  37   2.0000      -0.319190        -8.6856
  38   2.0000      -0.315059        -8.5732
  39   2.0000      -0.297286        -8.0896
  40   2.0000      -0.294013        -8.0005
  41   2.0000      -0.281768        -7.6673
  42   2.0000      -0.268658        -7.3105
  43   2.0000      -0.246369        -6.7041
  44   2.0000      -0.242217        -6.5911
  45   2.0000      -0.228854        -6.2274
  46   2.0000      -0.217220        -5.9109
  47   2.0000      -0.216604        -5.8941
  48   0.0000       0.000186         0.0051
  49   0.0000       0.019726         0.5368
  50   0.0000       0.036727         0.9994
  51   0.0000       0.043556         1.1852
  52   0.0000       0.049694         1.3523

MULLIKEN ATOMIC CHARGES
-----------------------
   0 C :    0.094677
   1 C :   -0.014654
   2 H :    0.061398
   3 C :    0.065032
   4 H :    0.038459
   5 C :    0.004119
   6 H :    0.072643
   7 C :    0.042591
   8 H :    0.023157
   9 C :    0.204387
  10 H :    0.057297
  11 O :   -0.318865
  12 O :   -0.355269
  13 O :   -0.396853
  14 O :   -0.418868
  15 O :   -0.410898
  16 O :   -0.437643
  17 H :    0.099443
  18 H :    0.082201
  19 H :    0.301647
  20 H :    0.303071
  21 H :    0.303098
  22 H :    0.303854
  23 H :    0.295976
Sum of atomic charges:    0.0000000

LOEWDIN ATOMIC CHARGES
----------------------
   0 C :   -0.122036
   1 C :   -0.070092
   2 H :    0.109992
   3 C :   -0.080058
   4 H :    0.097093
   5 C :   -0.095950
   6 H :    0.120145
   7 C :   -0.099752
   8 H :    0.088420
   9 C :    0.006304
  10 H :    0.103935
  11 O :   -0.157919
  12 O :   -0.272117
  13 O :   -0.314072
  14 O :   -0.312748
  15 O :   -0.316756
  16 O :   -0.330319
  17 H :    0.124644
  18 H :    0.101778
  19 H :    0.288113
  20 H :    0.282615
  21 H :    0.287037
  22 H :    0.284839
  23 H :    0.276904

  Mayer bond orders larger than 0.100000
B(  0-C ,  1-C ) :   1.0455 B(  0-C , 16-O ) :   1.0605 B(  0-C , 17-H ) :   0.9148
B(  0-C , 18-H ) :   0.9158 B(  1-C ,  2-H ) :   0.8707 B(  1-C ,  3-C ) :   1.0050
B(  1-C , 11-O ) :   0.9914 B(  3-C ,  4-H ) :   0.8545 B(  3-C ,  5-C ) :   1.0224
B(  3-C , 15-O ) :   1.0698 B(  5-C ,  6-H ) :   0.8642 B(  5-C ,  7-C ) :   1.0155
B(  5-C , 14-O ) :   1.0053 B(  7-C ,  8-H ) :   0.8496 B(  7-C ,  9-C ) :   0.9789
B(  7-C , 13-O ) :   1.1097 B(  9-C , 10-H ) :   0.8800 B(  9-C , 11-O ) :   0.9828
B(  9-C , 12-O ) :   1.1769 B( 12-O , 19-H ) :   0.8440 B( 13-O , 20-H ) :   0.8317
B( 14-O , 21-H ) :   0.8459 B( 15-O , 22-H ) :   0.8343 B( 16-O , 23-H ) :   0.8398

Dispersion correction           -0.024016325
FINAL SINGLE POINT ENERGY      -685.700540377192

DIPOLE MOMENT
-------------

Method             : SCF
Type of density    : Electron Density
Multiplicity       :   1
Irrep              :   0
Energy             :  -685.8314882056740771 Eh
Relativity type    :
Basis              : AO
                                X                 Y                 Z
Electronic contribution:      2.513709766      -0.742154861      -0.576578825
Nuclear contribution   :     -2.318347954       1.368687349      -0.047585945
                        -----------------------------------------
Total Dipole Moment    :      0.195361812       0.626532488      -0.624164771
                        -----------------------------------------
Magnitude (a.u.)       :      0.905699099
Magnitude (Debye)      :      2.302104158

Rotational constants in cm-1:             0.038416             0.027539             0.017952
Rotational constants in MHz :          1151.671308           825.591018           538.175358

                             ****ORCA TERMINATED NORMALLY****
TOTAL RUN TIME: 0 days 0 hours 0 minutes 8 seconds 826 msec
