                         Program Version 6.0.1  -  RELEASE   -
|  1> ! r2scan-3c def2/J RI DEFGRID2 scfconv6 printgap
|  2> %output
|  3>     printlevel normal
|  4> end
|  5> * xyz 0 1
|  6> C -2.8509779236 0.7471049555 0.121909283
|  7> C -1.9776970861 -0.483120402 -0.0964524702
|  8> C -0.4921545283 -0.2334933035 -0.0448757605
|  9> C 0.3601024344 -1.3102689795 0.1818384944
| 10> C 1.7311246056 -1.1405456088 0.2195333728
| 11> C 2.2792184498 0.1173896088 0.0326772043
| 12> C 1.4433781997 1.1954667679 -0.1938485845
| 13> C 0.0698602734 1.0215258036 -0.2341167518
| 14> H -3.8957894587 0.450289541 0.1856235279
| 15> H -2.7530420618 1.451288224 -0.7008258886
| 16> H -2.5796218639 1.2495886755 1.0478894178
| 17> H -2.2179571469 -0.9223644461 -1.0707899262
| 18> H -2.2246913837 -1.2334727082 0.659669835
| 19> H -0.0611436761 -2.2951665569 0.3308294645
| 20> H 2.3740028936 -1.9905552085 0.3977540406
| 21> H 3.350090237 0.2548882833 0.064530316
| 22> H 1.8609604934 2.1812617355 -0.3410801166
| 23> H -0.560263631 1.8783909364 -0.4146868522
| 24> *
| 25>
| 26>                          ****END OF INPUT****

CARTESIAN COORDINATES (ANGSTROEM)
---------------------------------
  C     -2.850978    0.747105    0.121909
  C     -1.977697   -0.483120   -0.096452
  C     -0.492155   -0.233493   -0.044876
  C      0.360102   -1.310269    0.181838
  C      1.731125   -1.140546    0.219533
  C      2.279218    0.117390    0.032677
  C      1.443378    1.195467   -0.193849
  C      0.069860    1.021526   -0.234117
  H     -3.895789    0.450290    0.185624
  H     -2.753042    1.451288   -0.700826
  H     -2.579622    1.249589    1.047889
  H     -2.217957   -0.922364   -1.070790
  H     -2.224691   -1.233473    0.659670
  H     -0.061144   -2.295167    0.330829
  H      2.374003   -1.990555    0.397754
  H      3.350090    0.254888    0.064530
  H      1.860960    2.181262   -0.341080
  H     -0.560264    1.878391   -0.414687

 Total Charge           Charge          ....    0
 Multiplicity           Mult            ....    1
 Number of Electrons    NEL             ....   58
 Basis Dimension        Dim             ....  202

ORBITAL ENERGIES
----------------

  NO   OCC          E(Eh)            E(eV)
   0   2.0000     -10.039291      -273.1830
   1   2.0000     -10.034718      -273.0586
   2   2.0000     -10.030952      -272.9561
   3   2.0000     -10.030797      -272.9519
   4   2.0000     -10.028651      -272.8935
   5   2.0000     -10.028022      -272.8764
   6   2.0000     -10.027995      -272.8756
   7   2.0000     -10.022054      -272.7139
   8   2.0000      -0.826370       -22.4867
   9   2.0000      -0.755710       -20.5639
  10   2.0000      -0.712552       -19.3895
  11   2.0000      -0.691087       -18.8054
  12   2.0000      -0.605507       -16.4767
  13   2.0000      -0.569916       -15.5082
  14   2.0000      -0.541614       -14.7381
  15   2.0000      -0.481337       -13.0978
  16   2.0000      -0.429949       -11.6995
  17   2.0000      -0.423182       -11.5154
  18   2.0000      -0.413818       -11.2606
  19   2.0000      -0.397329       -10.8119
  20   2.0000      -0.383572       -10.4375
  21   2.0000      -0.350379        -9.5343
  22   2.0000      -0.343575        -9.3491
  23   2.0000      -0.333174        -9.0661
  24   2.0000      -0.318502        -8.6669
  25   2.0000      -0.300626        -8.1805
  26   2.0000      -0.299650        -8.1539
  27   2.0000      -0.233670        -6.3585
  28   2.0000      -0.223343        -6.0775
  29   0.0000      -0.029073        -0.7911
  30   0.0000      -0.024617        -0.6699
  31   0.0000       0.086349         2.3497
  32   0.0000       0.101974         2.7749
  33   0.0000       0.108452         2.9511

MULLIKEN ATOMIC CHARGES
-----------------------
   0 C :   -0.484466
   1 C :   -0.298360
   2 C :    0.156873
   3 C :   -0.208030
   4 C :   -0.151835
   5 C :   -0.154713
   6 C :   -0.166577
   7 C :   -0.185660
   8 H :    0.149396
   9 H :    0.142259
  10 H :    0.164666
  11 H :    0.164223
  12 H :    0.149829
  13 H :    0.145093
  14 H :    0.144563
  15 H :    0.145594
  16 H :    0.144205
  17 H :    0.142941
Sum of atomic charges:   -0.0000000

LOEWDIN ATOMIC CHARGES
----------------------
   0 C :   -0.419182
   1 C :   -0.287160
   2 C :   -0.089875
   3 C :   -0.163266
   4 C :   -0.162601
   5 C :   -0.175065
   6 C :   -0.162207
   7 C :   -0.165851
   8 H :    0.152965
   9 H :    0.150099
  10 H :    0.155804
  11 H :    0.167286
  12 H :    0.162630
  13 H :    0.168285
  14 H :    0.166291
  15 H :    0.165970
  16 H :    0.165971
  17 H :    0.169908

  Mayer bond orders larger than 0.100000
B(  0-C ,  1-C ) :   0.8726 B(  0-C ,  8-H ) :   0.9722 B(  0-C ,  9-H ) :   0.9635
B(  0-C , 10-H ) :   0.9921 B(  1-C ,  2-C ) :   0.8333 B(  1-C , 11-H ) :   0.9597
B(  1-C , 12-H ) :   1.0122 B(  2-C ,  3-C ) :   1.3857 B(  2-C ,  7-C ) :   1.4434
B(  3-C ,  4-C ) :   1.4516 B(  3-C , 13-H ) :   0.9541 B(  4-C ,  5-C ) :   1.4170
B(  4-C , 14-H ) :   0.9476 B(  5-C ,  6-C ) :   1.4309 B(  5-C , 15-H ) :   0.9483
B(  6-C ,  7-C ) :   1.4353 B(  6-C , 16-H ) :   0.9497 B(  7-C , 17-H ) :   0.9457

Dispersion correction           -0.005595793
FINAL SINGLE POINT ENERGY      -310.778665497378

DIPOLE MOMENT
-------------

Method             : SCF
Type of density    : Electron Density
Multiplicity       :   1
Irrep              :   0
Energy             :  -310.7786027143039860 Eh
Relativity type    :
Basis              : AO
                                X                 Y                 Z
Electronic contribution:      6.088061583      -0.999315217      -0.163431646
Nuclear contribution   :     -6.292717384       0.960822897       0.149087792
                        -----------------------------------------
Total Dipole Moment    :     -0.204655801      -0.038492320      -0.014343853
                        -----------------------------------------
Magnitude (a.u.)       :      0.208737638
Magnitude (Debye)      :      0.530568911

Rotational constants in cm-1:             0.161522             0.049624             0.038771
Rotational constants in MHz :          4842.309879          1487.694147          1162.328449

                             ****ORCA TERMINATED NORMALLY****
TOTAL RUN TIME: 0 days 0 hours 0 minutes 20 seconds 893 msec
