                         Program Version 6.0.1  -  RELEASE   -
|  1> ! pbe def2-sv(p) def2/J RI DEFGRID1 loosescf d4 GCP(DFT/SV(P)) printgap
|  2> %output
|  3>     printlevel normal
|  4> end
|  5> * xyz 0 1
|  6> C -2.1115641839 -0.9189307934 -0.3272041216
|  7> C -1.1992774564 -0.3433733221 0.7741639656
|  8> H -1.7810959187 -0.3842990386 1.7039418065
|  9> C -0.7769098505 1.1266931289 0.587573878
| 10> H -1.6443182399 1.7076512847 0.2565666332
| 11> C 0.3655869438 1.3115761757 -0.4319416946
| 12> H 0.7854397135 2.3128993999 -0.248498338
| 13> C 1.501490735 0.2969198483 -0.1446882437
| 14> H 2.11533815 0.2019571859 -1.0521874538
| 15> C 1.030721287 -1.1187827879 0.2278670174
| 16> H 1.8385461816 -1.5700999456 0.8233753451
| 17> O -0.0785260237 -1.1782669603 1.067925488
| 18> O 0.8373775353 -1.8653754289 -0.9536606265
| 19> O 2.2782256681 0.721374956 0.9569599235
| 20> O -0.0387478932 1.3255472871 -1.7640090963
| 21> O -0.3981460325 1.6656004379 1.8303180163
| 22> O -1.5974802383 -0.883686851 -1.6336191706
| 23> H -3.0342735185 -0.3346890783 -0.3480537761
| 24> H -2.357016291 -1.9523650733 -0.0458535146
| 25> H 0.7260832016 -2.7945044539 -0.7171786328
| 26> H 2.6549199505 1.5871118648 0.759463819
| 27> H -0.6768525739 0.601336198 -1.9235355953
| 28> H 0.3852734309 1.1856044535 2.1369698336
| 29> H -0.7484533046 -1.3705502664 -1.6423841677
| 30> *
| 31>
| 32>                          ****END OF INPUT****

CARTESIAN COORDINATES (ANGSTROEM)
---------------------------------
  C     -2.111564   -0.918931   -0.327204
  C     -1.199277   -0.343373    0.774164
  H     -1.781096   -0.384299    1.703942
  C     -0.776910    1.126693    0.587574
  H     -1.644318    1.707651    0.256567
  C      0.365587    1.311576   -0.431942
  H      0.785440    2.312899   -0.248498
  C      1.501491    0.296920   -0.144688
  H      2.115338    0.201957   -1.052187
  C      1.030721   -1.118783    0.227867
  H      1.838546   -1.570100    0.823375
  O     -0.078526   -1.178267    1.067925
  O      0.837378   -1.865375   -0.953661
  O      2.278226    0.721375    0.956960
  O     -0.038748    1.325547   -1.764009
  O     -0.398146    1.665600    1.830318
  O     -1.597480   -0.883687   -1.633619
  H     -3.034274   -0.334689   -0.348054
  H     -2.357016   -1.952365   -0.045854
  H      0.726083   -2.794504   -0.717179
  H      2.654920    1.587112    0.759464
  H     -0.676853    0.601336   -1.923536
  H      0.385273    1.185604    2.136970
  H     -0.748453   -1.370550   -1.642384

 Total Charge           Charge          ....    0
 Multiplicity           Mult            ....    1
 Number of Electrons    NEL             ....   96
 Basis Dimension        Dim             ....  192

ORBITAL ENERGIES
----------------

  NO   OCC          E(Eh)            E(eV)
   0   2.0000     -18.799823      -511.5692
   1   2.0000     -18.782059      -511.0858
   2   2.0000     -18.772896      -510.8365
   3   2.0000     -18.765141      -510.6254
   4   2.0000     -18.742224      -510.0018
   5   2.0000     -18.729986      -509.6688
   6   2.0000     -10.004199      -272.2281
   7   2.0000      -9.950495      -270.7667
   8   2.0000      -9.950214      -270.7591
   9   2.0000      -9.944731      -270.6099
  10   2.0000      -9.942786      -270.5570
  11   2.0000      -9.939988      -270.4808
  12   2.0000      -1.003609       -27.3096
  13   2.0000      -0.951678       -25.8965
  14   2.0000      -0.943110       -25.6633
  15   2.0000      -0.938027       -25.5250
  16   2.0000      -0.921421       -25.0731
  17   2.0000      -0.909341       -24.7444
  18   2.0000      -0.707819       -19.2607
  19   2.0000      -0.693660       -18.8754
  20   2.0000      -0.630392       -17.1538
  21   2.0000      -0.593256       -16.1433
  22   2.0000      -0.588219       -16.0063
  23   2.0000      -0.541663       -14.7394
  24   2.0000      -0.497258       -13.5311
  25   2.0000      -0.491677       -13.3792
  26   2.0000      -0.478622       -13.0240
  27   2.0000      -0.470823       -12.8117
  28   2.0000      -0.444325       -12.0907
  29   2.0000      -0.436321       -11.8729
  30   2.0000      -0.428769       -11.6674
  31   2.0000      -0.415943       -11.3184
  32   2.0000      -0.395007       -10.7487
  33   2.0000      -0.376496       -10.2450
  34   2.0000      -0.368813       -10.0359
  35   2.0000      -0.360368        -9.8061
  36   2.0000      -0.345591        -9.4040
  37   2.0000      -0.325566        -8.8591
  38   2.0000      -0.311661        -8.4807
  39   2.0000      -0.304582        -8.2881
  40   2.0000      -0.285405        -7.7663
  41   2.0000      -0.280890        -7.6434
  42   2.0000      -0.270692        -7.3659
  43   2.0000      -0.255884        -6.9629
  44   2.0000      -0.247140        -6.7250
  45   2.0000      -0.231227        -6.2920
  46   2.0000      -0.218682        -5.9506
  47   2.0000      -0.194463        -5.2916
  48   0.0000      -0.000935        -0.0254
  49   0.0000       0.016117         0.4386
  50   0.0000       0.043148         1.1741
  51   0.0000       0.054637         1.4867
  52   0.0000       0.064166         1.7461

MULLIKEN ATOMIC CHARGES
-----------------------
   0 C :    0.030326
   1 C :    0.009084
   2 H :    0.084977
   3 C :    0.054730
   4 H :    0.077859
   5 C :    0.048046
   6 H :    0.061226
   7 C :    0.010325
   8 H :    0.087759
   9 C :    0.179788
  10 H :    0.085851
  11 O :   -0.307769
  12 O :   -0.406964
  13 O :   -0.419613
  14 O :   -0.416662
  15 O :   -0.425928
  16 O :   -0.442513
  17 H :    0.097388
  18 H :    0.082776
  19 H :    0.317620
  20 H :    0.311197
  21 H :    0.284947
  22 H :    0.294571
  23 H :    0.300979
Sum of atomic charges:    0.0000000

LOEWDIN ATOMIC CHARGES
----------------------
   0 C :   -0.136906
   1 C :   -0.081496
   2 H :    0.128046
   3 C :   -0.070570
   4 H :    0.121115
   5 C :   -0.084036
   6 H :    0.109678
   7 C :   -0.087030
   8 H :    0.115076
   9 C :   -0.004672
  10 H :    0.112172
  11 O :   -0.139564
  12 O :   -0.303126
  13 O :   -0.311125
  14 O :   -0.329589
  15 O :   -0.318868
  16 O :   -0.333567
  17 H :    0.122815
  18 H :    0.104415
  19 H :    0.294711
  20 H :    0.291077
  21 H :    0.264662
  22 H :    0.270767
  23 H :    0.266015

  Mayer bond orders larger than 0.100000
B(  0-C ,  1-C ) :   1.0346 B(  0-C , 16-O ) :   1.0547 B(  0-C , 17-H ) :   0.9191
B(  0-C , 18-H ) :   0.9125 B(  1-C ,  2-H ) :   0.8811 B(  1-C ,  3-C ) :   0.9977
B(  1-C , 11-O ) :   0.9684 B(  3-C ,  4-H ) :   0.8926 B(  3-C ,  5-C ) :   0.9722
B(  3-C , 15-O ) :   1.0419 B(  5-C ,  6-H ) :   0.8991 B(  5-C ,  7-C ) :   0.9512
B(  5-C , 14-O ) :   1.1186 B(  7-C ,  8-H ) :   0.8894 B(  7-C ,  9-C ) :   0.9970
B(  7-C , 13-O ) :   1.0311 B(  9-C , 10-H ) :   0.8989 B(  9-C , 11-O ) :   1.0920
B(  9-C , 12-O ) :   1.0409 B( 12-O , 19-H ) :   0.8318 B( 12-O , 23-H ) :   0.1488
B( 13-O , 20-H ) :   0.8397 B( 14-O , 21-H ) :   0.7705 B( 15-O , 22-H ) :   0.8242
B( 16-O , 21-H ) :   0.1715 B( 16-O , 23-H ) :   0.7574

Dispersion correction           -0.026584579
FINAL SINGLE POINT ENERGY      -685.706253052925

DIPOLE MOMENT
-------------

Method             : SCF
Type of density    : Electron Density
Multiplicity       :   1
Irrep              :   0
Energy             :  -685.8425125700878198 Eh
Relativity type    :
Basis              : AO
                                X                 Y                 Z
Electronic contribution:      2.060380390      -0.231852065       0.568770457
Nuclear contribution   :     -1.614192706      -0.763050763      -0.286336693
                        -----------------------------------------
Total Dipole Moment    :      0.446187684      -0.994902827       0.282433764
                        -----------------------------------------
Magnitude (a.u.)       :      1.126358698
Magnitude (Debye)      :      2.862976285

Rotational constants in cm-1:             0.039132             0.031341             0.027974
Rotational constants in MHz :          1173.153067           939.593367           838.650710

                             ****ORCA TERMINATED NORMALLY****
TOTAL RUN TIME: 0 days 0 hours 0 minutes 8 seconds 371 msec
