                         Program Version 6.0.1  -  RELEASE   -
|  1> ! pbe def2-sv(p) def2/J RI DEFGRID1 loosescf d4 GCP(DFT/SV(P)) printgap
|  2> %output
|  3>     printlevel normal
|  4> end
|  5> * xyz 0 1
|  6> C -2.5096734952 -0.9784715032 0.4125651664
|  7> C -1.0807588077 -0.4667056273 0.6430651425
|  8> H -0.9048211739 -0.3488218781 1.7245314993
|  9> C -0.8233897064 0.8778654516 -0.0585098487
| 10> H -0.9625579235 0.7419756314 -1.141064933
| 11> C 0.6273491619 1.2840737673 0.2066594139
| 12> H 0.7506520212 1.4345708428 1.2923903778
| 13> C 1.5910159249 0.1824849647 -0.2521372651
| 14> H 1.571510156 0.1263678235 -1.3506123422
| 15> C 1.1655933706 -1.1848614724 0.3011469819
| 16> H 1.3905129862 -1.198861899 1.3877088963
| 17> O -0.2114681841 -1.444750844 0.1110549908
| 18> O 1.8599968538 -2.1614649511 -0.3782168536
| 19> O 2.8855275096 0.4433057356 0.2121286783
| 20> O 0.9703613786 2.4627326251 -0.4798088589
| 21> O -1.6476683417 1.9146118664 0.4205906252
| 22> O -2.8462116417 -1.0034434217 -0.9468404853
| 23> H -3.2274456981 -0.3183274698 0.9044781893
| 24> H -2.5904965511 -1.9793464227 0.8566112043
| 25> H 1.5470957307 -3.0267305164 -0.0876396809
| 26> H 3.1267467141 1.3240216127 -0.1022141642
| 27> H 0.2728139972 3.1065057186 -0.3044706519
| 28> H -2.5510350004 1.744749487 0.13156541
| 29> H -2.1915075993 -1.5517471177 -1.3968299654
| 30> *
| 31>
| 32>                          ****END OF INPUT****

CARTESIAN COORDINATES (ANGSTROEM)
---------------------------------
  C     -2.509673   -0.978472    0.412565
  C     -1.080759   -0.466706    0.643065
  H     -0.904821   -0.348822    1.724531
  C     -0.823390    0.877865   -0.058510
  H     -0.962558    0.741976   -1.141065
  C      0.627349    1.284074    0.206659
  H      0.750652    1.434571    1.292390
  C      1.591016    0.182485   -0.252137
  H      1.571510    0.126368   -1.350612
  C      1.165593   -1.184861    0.301147
  H      1.390513   -1.198862    1.387709
  O     -0.211468   -1.444751    0.111055
  O      1.859997   -2.161465   -0.378217
  O      2.885528    0.443306    0.212129
  O      0.970361    2.462733   -0.479809
  O     -1.647668    1.914612    0.420591
  O     -2.846212   -1.003443   -0.946840
  H     -3.227446   -0.318327    0.904478
  H     -2.590497   -1.979346    0.856611
  H      1.547096   -3.026731   -0.087640
  H      3.126747    1.324022   -0.102214
  H      0.272814    3.106506   -0.304471
  H     -2.551035    1.744749    0.131565
  H     -2.191508   -1.551747   -1.396830

 Total Charge           Charge          ....    0
 Multiplicity           Mult            ....    1
 Number of Electrons    NEL             ....   96
 Basis Dimension        Dim             ....  192

ORBITAL ENERGIES
----------------

  NO   OCC          E(Eh)            E(eV)
   0   2.0000     -18.780095      -511.0324
   1   2.0000     -18.769098      -510.7331
   2   2.0000     -18.759972      -510.4848
   3   2.0000     -18.759861      -510.4818
   4   2.0000     -18.753027      -510.2958
   5   2.0000     -18.744740      -510.0703
   6   2.0000      -9.989658      -271.8324
   7   2.0000      -9.949612      -270.7427
   8   2.0000      -9.944805      -270.6119
   9   2.0000      -9.944354      -270.5996
  10   2.0000      -9.940912      -270.5060
  11   2.0000      -9.938669      -270.4449
  12   2.0000      -0.989343       -26.9214
  13   2.0000      -0.952926       -25.9304
  14   2.0000      -0.942149       -25.6372
  15   2.0000      -0.932711       -25.3804
  16   2.0000      -0.919471       -25.0201
  17   2.0000      -0.914184       -24.8762
  18   2.0000      -0.706611       -19.2279
  19   2.0000      -0.694045       -18.8859
  20   2.0000      -0.629351       -17.1255
  21   2.0000      -0.580411       -15.7938
  22   2.0000      -0.567461       -15.4414
  23   2.0000      -0.524798       -14.2805
  24   2.0000      -0.502597       -13.6764
  25   2.0000      -0.498615       -13.5680
  26   2.0000      -0.474477       -12.9112
  27   2.0000      -0.466183       -12.6855
  28   2.0000      -0.457028       -12.4364
  29   2.0000      -0.443458       -12.0671
  30   2.0000      -0.417721       -11.3668
  31   2.0000      -0.397814       -10.8251
  32   2.0000      -0.387583       -10.5467
  33   2.0000      -0.383961       -10.4481
  34   2.0000      -0.367454        -9.9989
  35   2.0000      -0.359682        -9.7874
  36   2.0000      -0.332324        -9.0430
  37   2.0000      -0.315438        -8.5835
  38   2.0000      -0.309199        -8.4137
  39   2.0000      -0.297175        -8.0865
  40   2.0000      -0.285725        -7.7750
  41   2.0000      -0.279687        -7.6107
  42   2.0000      -0.256414        -6.9774
  43   2.0000      -0.242840        -6.6080
  44   2.0000      -0.231736        -6.3058
  45   2.0000      -0.228692        -6.2230
  46   2.0000      -0.216080        -5.8798
  47   2.0000      -0.213287        -5.8038
  48   0.0000       0.011112         0.3024
  49   0.0000       0.027831         0.7573
  50   0.0000       0.033628         0.9151
  51   0.0000       0.040769         1.1094
  52   0.0000       0.056826         1.5463

MULLIKEN ATOMIC CHARGES
-----------------------
   0 C :    0.072102
   1 C :   -0.037747
   2 H :    0.055556
   3 C :    0.052809
   4 H :    0.053948
   5 C :    0.064147
   6 H :    0.053686
   7 C :    0.052516
   8 H :    0.062551
   9 C :    0.201317
  10 H :    0.044106
  11 O :   -0.325782
  12 O :   -0.365971
  13 O :   -0.410559
  14 O :   -0.425225
  15 O :   -0.423156
  16 O :   -0.435929
  17 H :    0.081242
  18 H :    0.088769
  19 H :    0.302637
  20 H :    0.308636
  21 H :    0.309343
  22 H :    0.315256
  23 H :    0.305746
Sum of atomic charges:    0.0000000

LOEWDIN ATOMIC CHARGES
----------------------
   0 C :   -0.129588
   1 C :   -0.083362
   2 H :    0.105657
   3 C :   -0.084076
   4 H :    0.104295
   5 C :   -0.077341
   6 H :    0.103299
   7 C :   -0.074958
   8 H :    0.111164
   9 C :    0.011970
  10 H :    0.085179
  11 O :   -0.162006
  12 O :   -0.285123
  13 O :   -0.311860
  14 O :   -0.325178
  15 O :   -0.318654
  16 O :   -0.332383
  17 H :    0.111064
  18 H :    0.106057
  19 H :    0.288208
  20 H :    0.289875
  21 H :    0.287920
  22 H :    0.293375
  23 H :    0.286466

  Mayer bond orders larger than 0.100000
B(  0-C ,  1-C ) :   1.0411 B(  0-C , 16-O ) :   1.0682 B(  0-C , 17-H ) :   0.9142
B(  0-C , 18-H ) :   0.9185 B(  1-C ,  2-H ) :   0.8692 B(  1-C ,  3-C ) :   0.9779
B(  1-C , 11-O ) :   0.9819 B(  3-C ,  4-H ) :   0.8666 B(  3-C ,  5-C ) :   1.0099
B(  3-C , 15-O ) :   1.0660 B(  5-C ,  6-H ) :   0.8715 B(  5-C ,  7-C ) :   1.0261
B(  5-C , 14-O ) :   1.0830 B(  7-C ,  8-H ) :   0.8636 B(  7-C ,  9-C ) :   1.0017
B(  7-C , 13-O ) :   1.0807 B(  9-C , 10-H ) :   0.8862 B(  9-C , 11-O ) :   0.9942
B(  9-C , 12-O ) :   1.1996 B( 12-O , 19-H ) :   0.8437 B( 13-O , 20-H ) :   0.8408
B( 14-O , 21-H ) :   0.8349 B( 15-O , 22-H ) :   0.8403 B( 16-O , 23-H ) :   0.8401

Dispersion correction           -0.023988945
FINAL SINGLE POINT ENERGY      -685.701475061225

DIPOLE MOMENT
-------------

Method             : SCF
Type of density    : Electron Density
Multiplicity       :   1
Irrep              :   0
Energy             :  -685.8318927385030292 Eh
Relativity type    :
Basis              : AO
                                X                 Y                 Z
Electronic contribution:      2.710683430      -0.200990868      -1.446518596
Nuclear contribution   :     -3.520553831       0.054120723       1.780363848
                        -----------------------------------------
Total Dipole Moment    :     -0.809870401      -0.146870145       0.333845252
                        -----------------------------------------
Magnitude (a.u.)       :      0.888208060
Magnitude (Debye)      :      2.257645471

Rotational constants in cm-1:             0.039914             0.027029             0.017695
Rotational constants in MHz :          1196.581918           810.306773           530.491942

                             ****ORCA TERMINATED NORMALLY****
TOTAL RUN TIME: 0 days 0 hours 0 minutes 8 seconds 38 msec
