                         Program Version 6.0.1  -  RELEASE   -
|  1> ! pbe def2-sv(p) def2/J RI DEFGRID1 loosescf d4 GCP(DFT/SV(P)) printgap
|  2> %output
|  3>     printlevel normal
|  4> end
|  5> * xyz 0 1
|  6> C 2.4702664685 0.5303905376 1.0841467721
|  7> C 1.6982910889 -0.0198204875 -0.0903952078
|  8> O 2.2496939351 -0.5285849862 -1.0380618215
|  9> C 0.2144122878 0.0396882885 -0.0076194304
| 10> C -0.4918545837 1.1089701458 0.5378518371
| 11> C -1.8753732257 1.0603930583 0.5493648471
| 12> C -2.5029946238 -0.0552088014 0.0137155191
| 13> N -1.8441682405 -1.0742057883 -0.5119301965
| 14> C -0.5283480344 -1.0243294847 -0.5278404853
| 15> H 3.2786309523 1.1626021258 0.7227869342
| 16> H 2.9260431683 -0.3112120522 1.6047842628
| 17> H 1.846107905 1.0770970797 1.7822619528
| 18> H 0.0240826322 1.9797374875 0.9166743234
| 19> H -2.4546266095 1.8746220105 0.9563490885
| 20> H -3.5817509136 -0.1364775311 -0.0049263275
| 21> H -0.0191030447 -1.8721049607 -0.9665389209
| 22> *
| 23>
| 24>                          ****END OF INPUT****

CARTESIAN COORDINATES (ANGSTROEM)
---------------------------------
  C      2.470266    0.530391    1.084147
  C      1.698291   -0.019820   -0.090395
  O      2.249694   -0.528585   -1.038062
  C      0.214412    0.039688   -0.007619
  C     -0.491855    1.108970    0.537852
  C     -1.875373    1.060393    0.549365
  C     -2.502995   -0.055209    0.013716
  N     -1.844168   -1.074206   -0.511930
  C     -0.528348   -1.024329   -0.527840
  H      3.278631    1.162602    0.722787
  H      2.926043   -0.311212    1.604784
  H      1.846108    1.077097    1.782262
  H      0.024083    1.979737    0.916674
  H     -2.454627    1.874622    0.956349
  H     -3.581751   -0.136478   -0.004926
  H     -0.019103   -1.872105   -0.966539

 Total Charge           Charge          ....    0
 Multiplicity           Mult            ....    1
 Number of Electrons    NEL             ....   64
 Basis Dimension        Dim             ....  140

ORBITAL ENERGIES
----------------

  NO   OCC          E(Eh)            E(eV)
   0   2.0000     -18.748855      -510.1823
   1   2.0000     -13.993846      -380.7919
   2   2.0000      -9.985334      -271.7147
   3   2.0000      -9.937049      -270.4009
   4   2.0000      -9.935068      -270.3469
   5   2.0000      -9.928272      -270.1620
   6   2.0000      -9.919000      -269.9097
   7   2.0000      -9.916226      -269.8342
   8   2.0000      -9.896097      -269.2865
   9   2.0000      -0.950124       -25.8542
  10   2.0000      -0.873069       -23.7574
  11   2.0000      -0.748179       -20.3590
  12   2.0000      -0.707436       -19.2503
  13   2.0000      -0.673543       -18.3280
  14   2.0000      -0.594206       -16.1692
  15   2.0000      -0.577974       -15.7275
  16   2.0000      -0.512064       -13.9340
  17   2.0000      -0.473510       -12.8849
  18   2.0000      -0.454096       -12.3566
  19   2.0000      -0.424570       -11.5531
  20   2.0000      -0.408770       -11.1232
  21   2.0000      -0.403979       -10.9928
  22   2.0000      -0.384273       -10.4566
  23   2.0000      -0.374464       -10.1897
  24   2.0000      -0.369189       -10.0462
  25   2.0000      -0.359094        -9.7714
  26   2.0000      -0.336657        -9.1609
  27   2.0000      -0.325657        -8.8616
  28   2.0000      -0.276907        -7.5350
  29   2.0000      -0.253376        -6.8947
  30   2.0000      -0.221263        -6.0209
  31   2.0000      -0.203001        -5.5239
  32   0.0000      -0.094269        -2.5652
  33   0.0000      -0.066189        -1.8011
  34   0.0000      -0.022279        -0.6062
  35   0.0000       0.032615         0.8875
  36   0.0000       0.059830         1.6281

MULLIKEN ATOMIC CHARGES
-----------------------
   0 C :   -0.265003
   1 C :    0.020007
   2 O :   -0.154515
   3 C :    0.004807
   4 C :   -0.048397
   5 C :   -0.071374
   6 C :   -0.048876
   7 N :   -0.043399
   8 C :   -0.071099
   9 H :    0.129323
  10 H :    0.138790
  11 H :    0.114803
  12 H :    0.070453
  13 H :    0.068573
  14 H :    0.078178
  15 H :    0.077729
Sum of atomic charges:   -0.0000000

LOEWDIN ATOMIC CHARGES
----------------------
   0 C :   -0.362976
   1 C :    0.045757
   2 O :   -0.116154
   3 C :   -0.089837
   4 C :   -0.086437
   5 C :   -0.138061
   6 C :   -0.067638
   7 N :   -0.065388
   8 C :   -0.048702
   9 H :    0.145506
  10 H :    0.154072
  11 H :    0.126217
  12 H :    0.129957
  13 H :    0.131689
  14 H :    0.118419
  15 H :    0.123575

  Mayer bond orders larger than 0.100000
B(  0-C ,  1-C ) :   1.0688 B(  0-C ,  9-H ) :   0.9255 B(  0-C , 10-H ) :   0.9214
B(  0-C , 11-H ) :   0.9329 B(  1-C ,  2-O ) :   2.1711 B(  1-C ,  3-C ) :   0.9218
B(  3-C ,  4-C ) :   1.3915 B(  3-C ,  8-C ) :   1.3438 B(  4-C ,  5-C ) :   1.4172
B(  4-C , 12-H ) :   0.9482 B(  5-C ,  6-C ) :   1.3783 B(  5-C , 13-H ) :   0.9461
B(  6-C ,  7-N ) :   1.5360 B(  6-C , 14-H ) :   0.9525 B(  7-N ,  8-C ) :   1.5585
B(  8-C , 15-H ) :   0.9506

Dispersion correction           -0.016379570
FINAL SINGLE POINT ENERGY      -400.080736057639

DIPOLE MOMENT
-------------

Method             : SCF
Type of density    : Electron Density
Multiplicity       :   1
Irrep              :   0
Energy             :  -400.1258201393960690 Eh
Relativity type    :
Basis              : AO
                                X                 Y                 Z
Electronic contribution:     -2.096837728      -2.560509402      -3.626097372
Nuclear contribution   :      1.917722767       3.527178446       4.683356435
                        -----------------------------------------
Total Dipole Moment    :     -0.179114961       0.966669044       1.057259064
                        -----------------------------------------
Magnitude (a.u.)       :      1.443720173
Magnitude (Debye)      :      3.669645048

Rotational constants in cm-1:             0.126559             0.040499             0.032261
Rotational constants in MHz :          3794.148388          1214.142023           967.160995

                             ****ORCA TERMINATED NORMALLY****
TOTAL RUN TIME: 0 days 0 hours 0 minutes 12 seconds 225 msec
