                         Program Version 6.0.0  -   RELEASE  -
|  1> ! r2SCAN-3c DEF2-TZVP FREQ
|  2> * xyzfile 0 1 censo.xyz
|  3>
|  4>                          ****END OF INPUT****

CARTESIAN COORDINATES (ANGSTROEM)
---------------------------------
  C      2.812298   -0.000008    0.025408
  N      1.406544   -0.000012   -0.384008
  C      0.740021    1.190427    0.165459
  C     -0.740019    1.190428   -0.165456
  N     -1.406549   -0.000006    0.384017
  C     -0.740020   -1.190446   -0.165443
  C      0.740020   -1.190443    0.165474
  C     -2.812296   -0.000006   -0.025417
  H      3.316760   -0.887004   -0.371233
  H      2.930541    0.000048    1.124326
  H      3.316787    0.886930   -0.371326
  H      0.873420    1.244687    1.263263
  H      1.202982    2.086391   -0.263278
  H     -1.202978    2.086395    0.263276
  H     -0.873418    1.244683   -1.263260
  H     -1.202980   -2.086408    0.263298
  H     -0.873416   -1.244713   -1.263247
  H      0.873418   -1.244691    1.263279
  H      1.202980   -2.086413   -0.263253
  H     -3.316779    0.886957    0.371268
  H     -3.316777   -0.886976    0.371258
  H     -2.930524   -0.000000   -1.124336

 Total Charge           Charge          ....    0
 Multiplicity           Mult            ....    1
 Number of Electrons    NEL             ....   64
 Basis Dimension        Dim             ....  332

ORBITAL ENERGIES
----------------

  NO   OCC          E(Eh)            E(eV)
   0   2.0000     -14.156338      -385.2135
   1   2.0000     -14.156332      -385.2134
   2   2.0000     -10.051344      -273.5110
   3   2.0000     -10.051341      -273.5109
   4   2.0000     -10.051201      -273.5071
   5   2.0000     -10.051199      -273.5070
   6   2.0000     -10.046966      -273.3918
   7   2.0000     -10.046965      -273.3918
   8   2.0000      -0.906910       -24.6783
   9   2.0000      -0.867091       -23.5947
  10   2.0000      -0.726020       -19.7560
  11   2.0000      -0.701098       -19.0778
  12   2.0000      -0.635870       -17.3029
  13   2.0000      -0.604351       -16.4452
  14   2.0000      -0.583606       -15.8807
  15   2.0000      -0.518539       -14.1102
  16   2.0000      -0.462076       -12.5737
  17   2.0000      -0.435161       -11.8413
  18   2.0000      -0.430383       -11.7113
  19   2.0000      -0.426029       -11.5928
  20   2.0000      -0.417089       -11.3496
  21   2.0000      -0.397562       -10.8182
  22   2.0000      -0.365813        -9.9543
  23   2.0000      -0.361919        -9.8483
  24   2.0000      -0.358132        -9.7453
  25   2.0000      -0.336303        -9.1513
  26   2.0000      -0.324031        -8.8173
  27   2.0000      -0.319011        -8.6807
  28   2.0000      -0.298348        -8.1185
  29   2.0000      -0.296503        -8.0683
  30   2.0000      -0.196667        -5.3516
  31   2.0000      -0.194028        -5.2798
  32   0.0000       0.042739         1.1630
  33   0.0000       0.049139         1.3371
  34   0.0000       0.073669         2.0046
  35   0.0000       0.084257         2.2927
  36   0.0000       0.087302         2.3756

MULLIKEN ATOMIC CHARGES
-----------------------
   0 C :   -0.241598
   1 N :   -0.165143
   2 C :   -0.094123
   3 C :   -0.094119
   4 N :   -0.165142
   5 C :   -0.094128
   6 C :   -0.094113
   7 C :   -0.241596
   8 H :    0.107651
   9 H :    0.080685
  10 H :    0.107652
  11 H :    0.059803
  12 H :    0.089695
  13 H :    0.089694
  14 H :    0.059803
  15 H :    0.089695
  16 H :    0.059804
  17 H :    0.059802
  18 H :    0.089694
  19 H :    0.107651
  20 H :    0.107651
  21 H :    0.080685
Sum of atomic charges:   -0.0000000

LOEWDIN ATOMIC CHARGES
----------------------
   0 C :   -0.321814
   1 N :    0.058984
   2 C :   -0.283489
   3 C :   -0.283489
   4 N :    0.058984
   5 C :   -0.283489
   6 C :   -0.283489
   7 C :   -0.321814
   8 H :    0.113686
   9 H :    0.098115
  10 H :    0.113686
  11 H :    0.119676
  12 H :    0.132484
  13 H :    0.132484
  14 H :    0.119676
  15 H :    0.132484
  16 H :    0.119676
  17 H :    0.119676
  18 H :    0.132484
  19 H :    0.113686
  20 H :    0.113686
  21 H :    0.098115

  Mayer bond orders larger than 0.100000
B(  0-C ,  1-N ) :   0.9643 B(  0-C ,  8-H ) :   0.9746 B(  0-C ,  9-H ) :   0.9657
B(  0-C , 10-H ) :   0.9746 B(  1-N ,  2-C ) :   0.9694 B(  1-N ,  6-C ) :   0.9694
B(  2-C ,  3-C ) :   1.0188 B(  2-C , 11-H ) :   0.9443 B(  2-C , 12-H ) :   0.9537
B(  3-C ,  4-N ) :   0.9694 B(  3-C , 13-H ) :   0.9537 B(  3-C , 14-H ) :   0.9443
B(  4-N ,  5-C ) :   0.9694 B(  4-N ,  7-C ) :   0.9643 B(  5-C ,  6-C ) :   1.0188
B(  5-C , 15-H ) :   0.9537 B(  5-C , 16-H ) :   0.9443 B(  6-C , 17-H ) :   0.9442
B(  6-C , 18-H ) :   0.9537 B(  7-C , 19-H ) :   0.9746 B(  7-C , 20-H ) :   0.9746
B(  7-C , 21-H ) :   0.9657

Dispersion correction           -0.006663518
FINAL SINGLE POINT ENERGY      -346.457267063214

DIPOLE MOMENT
-------------

Method             : SCF
Type of density    : Electron Density
Multiplicity       :   1
Irrep              :   0
Energy             :  -346.4728441770763538 Eh
Relativity type    :
Basis              : AO
                                X                 Y                 Z
Electronic contribution:     -0.000009558      -0.000003887       0.000019575
Nuclear contribution   :      0.000015174       0.000001899      -0.000021134
                        -----------------------------------------
Total Dipole Moment    :      0.000005616      -0.000001988      -0.000001559
                        -----------------------------------------
Magnitude (a.u.)       :      0.000006158
Magnitude (Debye)      :      0.000015653

VIBRATIONAL FREQUENCIES
-----------------------

Scaling factor for frequencies =  1.000000000  (already applied!)

     0:       0.00 cm**-1
     1:       0.00 cm**-1
     2:       0.00 cm**-1
     3:       0.00 cm**-1
     4:       0.00 cm**-1
     5:       0.00 cm**-1
     6:     130.00 cm**-1
     7:     235.75 cm**-1
     8:     262.28 cm**-1
     9:     269.31 cm**-1
    10:     276.76 cm**-1
    11:     318.76 cm**-1
    12:     387.51 cm**-1
    13:     387.65 cm**-1
    14:     400.88 cm**-1
    15:     448.34 cm**-1
    16:     521.65 cm**-1
    17:     634.64 cm**-1
    18:     770.79 cm**-1
    19:     799.39 cm**-1
    20:     847.83 cm**-1
    21:     916.38 cm**-1
    22:    1015.31 cm**-1
    23:    1025.86 cm**-1
    24:    1041.23 cm**-1
    25:    1061.36 cm**-1
    26:    1084.16 cm**-1
    27:    1101.48 cm**-1
    28:    1111.71 cm**-1
    29:    1128.49 cm**-1
    30:    1165.10 cm**-1
    31:    1170.48 cm**-1
    32:    1181.27 cm**-1
    33:    1215.43 cm**-1
    34:    1260.73 cm**-1
    35:    1299.60 cm**-1
    36:    1305.90 cm**-1
    37:    1325.60 cm**-1
    38:    1357.05 cm**-1
    39:    1387.88 cm**-1
    40:    1387.95 cm**-1
    41:    1402.76 cm**-1
    42:    1445.52 cm**-1
    43:    1446.21 cm**-1
    44:    1467.50 cm**-1
    45:    1471.51 cm**-1
    46:    1477.15 cm**-1
    47:    1478.18 cm**-1
    48:    1488.99 cm**-1
    49:    1492.65 cm**-1
    50:    1493.46 cm**-1
    51:    1496.24 cm**-1
    52:    2894.79 cm**-1
    53:    2900.91 cm**-1
    54:    2907.29 cm**-1
    55:    2910.26 cm**-1
    56:    2919.52 cm**-1
    57:    2922.37 cm**-1
    58:    3040.60 cm**-1
    59:    3040.91 cm**-1
    60:    3042.68 cm**-1
    61:    3044.16 cm**-1
    62:    3046.90 cm**-1
    63:    3050.08 cm**-1
    64:    3088.23 cm**-1
    65:    3088.41 cm**-1

IR SPECTRUM
-----------

 Mode   freq       eps      Int      T**2         TX        TY        TZ
       cm**-1   L/(mol*cm) km/mol    a.u.
----------------------------------------------------------------------------
  6:    130.00   0.000346    1.75  0.000832  (-0.026539 -0.000000  0.011279)
  7:    235.75   0.000006    0.03  0.000007  (-0.000000 -0.002702 -0.000000)
  8:    262.28   0.000000    0.00  0.000000  (-0.000001 -0.000002 -0.000001)
  9:    269.31   0.000000    0.00  0.000000  ( 0.000000 -0.000002 -0.000000)
 10:    276.76   0.000122    0.62  0.000138  ( 0.000000 -0.011748  0.000000)
 11:    318.76   0.000064    0.32  0.000062  ( 0.000000 -0.007895  0.000001)
 12:    387.51   0.000000    0.00  0.000000  ( 0.000000 -0.000000  0.000035)
 13:    387.65   0.002148   10.85  0.001729  ( 0.000023 -0.000000 -0.041582)
 14:    400.88   0.000000    0.00  0.000000  (-0.000000 -0.000000 -0.000002)
 15:    448.34   0.000000    0.00  0.000000  (-0.000000 -0.000000 -0.000001)
 16:    521.65   0.000000    0.00  0.000000  ( 0.000000 -0.000000  0.000000)
 17:    634.64   0.000033    0.17  0.000016  (-0.000918 -0.000000 -0.003904)
 18:    770.79   0.000000    0.00  0.000000  (-0.000000 -0.000000  0.000001)
 19:    799.39   0.006571   33.21  0.002565  ( 0.001645 -0.000000 -0.050622)
 20:    847.83   0.000000    0.00  0.000000  (-0.000000  0.000000  0.000000)
 21:    916.38   0.001931    9.76  0.000658  ( 0.000000  0.025646  0.000000)
 22:   1015.31   0.007688   38.85  0.002363  (-0.048071 -0.000000  0.007228)
 23:   1025.86   0.000000    0.00  0.000000  (-0.000000  0.000000  0.000000)
 24:   1041.23   0.000000    0.00  0.000000  (-0.000001  0.000000 -0.000000)
 25:   1061.36   0.001389    7.02  0.000408  (-0.000000 -0.020207  0.000000)
 26:   1084.16   0.000000    0.00  0.000000  ( 0.000000  0.000001 -0.000000)
 27:   1101.48   0.004398   22.22  0.001246  ( 0.000000  0.035297 -0.000000)
 28:   1111.71   0.000000    0.00  0.000000  ( 0.000000  0.000001  0.000000)
 29:   1128.49   0.005793   29.28  0.001602  (-0.039436  0.000000  0.006848)
 30:   1165.10   0.010251   51.80  0.002746  ( 0.042889 -0.000001  0.030104)
 31:   1170.48   0.002847   14.39  0.000759  (-0.000002 -0.027549 -0.000002)
 32:   1181.27   0.000000    0.00  0.000000  (-0.000001  0.000001 -0.000001)
 33:   1215.43   0.000000    0.00  0.000000  (-0.000001 -0.000000 -0.000001)
 34:   1260.73   0.000000    0.00  0.000000  ( 0.000000 -0.000000  0.000000)
 35:   1299.60   0.005716   28.89  0.001373  ( 0.002418  0.000002  0.036970)
 36:   1305.90   0.006018   30.41  0.001438  ( 0.000000 -0.037922  0.000001)
 37:   1325.60   0.000000    0.00  0.000000  (-0.000000  0.000001 -0.000000)
 38:   1357.05   0.000000    0.00  0.000000  ( 0.000000 -0.000000  0.000000)
 39:   1387.88   0.004422   22.35  0.000994  ( 0.031395  0.000012  0.002939)
 40:   1387.95   0.000594    3.00  0.000134  ( 0.000033 -0.011554  0.000003)
 41:   1402.76   0.000000    0.00  0.000000  (-0.000000  0.000000 -0.000000)
 42:   1445.52   0.000000    0.00  0.000000  ( 0.000000  0.000000  0.000000)
 43:   1446.21   0.000123    0.62  0.000027  (-0.001935 -0.000000  0.004771)
 44:   1467.50   0.000000    0.00  0.000000  (-0.000001  0.000000  0.000001)
 45:   1471.51   0.000041    0.21  0.000009  (-0.000001 -0.002956  0.000001)
 46:   1477.15   0.005875   29.69  0.001241  ( 0.032795  0.000000 -0.012868)
 47:   1478.18   0.000000    0.00  0.000000  (-0.000005 -0.000000  0.000002)
 48:   1488.99   0.006648   33.60  0.001393  ( 0.010842 -0.000002  0.035717)
 49:   1492.65   0.002375   12.00  0.000497  ( 0.000000 -0.022284 -0.000004)
 50:   1493.46   0.000000    0.00  0.000000  ( 0.000001 -0.000007 -0.000003)
 51:   1496.24   0.000000    0.00  0.000000  ( 0.000000  0.000003  0.000000)
 52:   2894.79   0.012058   60.94  0.001300  ( 0.000000  0.036054  0.000001)
 53:   2900.91   0.000000    0.00  0.000000  ( 0.000001 -0.000004 -0.000001)
 54:   2907.29   0.000000    0.00  0.000000  ( 0.000004 -0.000001 -0.000007)
 55:   2910.26   0.009509   48.05  0.001020  (-0.020094 -0.000001  0.024816)
 56:   2919.52   0.000000    0.00  0.000000  (-0.000016 -0.000001 -0.000034)
 57:   2922.37   0.070984  358.72  0.007580  (-0.041192 -0.000000 -0.076702)
 58:   3040.60   0.011843   59.85  0.001215  ( 0.026922  0.000002 -0.022152)
 59:   3040.91   0.000001    0.00  0.000000  (-0.000181  0.000000  0.000147)
 60:   3042.68   0.000000    0.00  0.000000  ( 0.000002  0.000007 -0.000002)
 61:   3044.16   0.014839   74.99  0.001521  ( 0.026150 -0.000003 -0.028937)
 62:   3046.90   0.019873  100.43  0.002035  ( 0.000002  0.045115 -0.000002)
 63:   3050.08   0.000000    0.00  0.000000  (-0.000001 -0.000001  0.000002)
 64:   3088.23   0.000002    0.01  0.000000  (-0.000000 -0.000396  0.000000)
 65:   3088.41   0.011190   56.55  0.001131  (-0.000002  0.033625  0.000001)

--------------------------
THERMOCHEMISTRY AT 298.15K
--------------------------

Temperature         ...   298.15 K
Pressure            ...     1.00 atm
Total Mass          ...   114.19 AMU
Quasi RRHO          ...     True
Cut-Off Frequency   ...     1.00 cm^-1

Throughout the following assumptions are being made:
  (1) The electronic state is orbitally nondegenerate
  (2) There are no thermally accessible electronically excited states
  (3) Hindered rotations indicated by low frequency modes are not
      treated as such but are treated as vibrations and this may
      cause some error
  (4) All equations used are the standard statistical mechanics
      equations for an ideal gas
  (5) All vibrations are strictly harmonic

freq.     130.00  E(vib)   ...       0.43
freq.     235.75  E(vib)   ...       0.32
freq.     262.28  E(vib)   ...       0.29
freq.     269.31  E(vib)   ...       0.29
freq.     276.76  E(vib)   ...       0.28
freq.     318.76  E(vib)   ...       0.25
freq.     387.51  E(vib)   ...       0.20
freq.     387.65  E(vib)   ...       0.20
freq.     400.88  E(vib)   ...       0.19
freq.     448.34  E(vib)   ...       0.17
freq.     521.65  E(vib)   ...       0.13
freq.     634.64  E(vib)   ...       0.09
freq.     770.79  E(vib)   ...       0.05
freq.     799.39  E(vib)   ...       0.05
freq.     847.83  E(vib)   ...       0.04
freq.     916.38  E(vib)   ...       0.03
freq.    1015.31  E(vib)   ...       0.02
freq.    1025.86  E(vib)   ...       0.02
freq.    1041.23  E(vib)   ...       0.02
freq.    1061.36  E(vib)   ...       0.02
freq.    1084.16  E(vib)   ...       0.02
freq.    1101.48  E(vib)   ...       0.02
freq.    1111.71  E(vib)   ...       0.01
freq.    1128.49  E(vib)   ...       0.01
freq.    1165.10  E(vib)   ...       0.01
freq.    1170.48  E(vib)   ...       0.01
freq.    1181.27  E(vib)   ...       0.01
freq.    1215.43  E(vib)   ...       0.01
freq.    1260.73  E(vib)   ...       0.01
freq.    1299.60  E(vib)   ...       0.01
freq.    1305.90  E(vib)   ...       0.01
freq.    1325.60  E(vib)   ...       0.01
freq.    1357.05  E(vib)   ...       0.01
freq.    1387.88  E(vib)   ...       0.00
freq.    1387.95  E(vib)   ...       0.00
freq.    1402.76  E(vib)   ...       0.00
freq.    1445.52  E(vib)   ...       0.00
freq.    1446.21  E(vib)   ...       0.00
freq.    1467.50  E(vib)   ...       0.00
freq.    1471.51  E(vib)   ...       0.00
freq.    1477.15  E(vib)   ...       0.00
freq.    1478.18  E(vib)   ...       0.00
freq.    1488.99  E(vib)   ...       0.00
freq.    1492.65  E(vib)   ...       0.00
freq.    1493.46  E(vib)   ...       0.00
freq.    1496.24  E(vib)   ...       0.00
freq.    2894.79  E(vib)   ...       0.00
freq.    2900.91  E(vib)   ...       0.00
freq.    2907.29  E(vib)   ...       0.00
freq.    2910.26  E(vib)   ...       0.00
freq.    2919.52  E(vib)   ...       0.00
freq.    2922.37  E(vib)   ...       0.00
freq.    3040.60  E(vib)   ...       0.00
freq.    3040.91  E(vib)   ...       0.00
freq.    3042.68  E(vib)   ...       0.00
freq.    3044.16  E(vib)   ...       0.00
freq.    3046.90  E(vib)   ...       0.00
freq.    3050.08  E(vib)   ...       0.00
freq.    3088.23  E(vib)   ...       0.00
freq.    3088.41  E(vib)   ...       0.00

------------
INNER ENERGY
------------

The inner energy is: U= E(el) + E(ZPE) + E(vib) + E(rot) + E(trans)
    E(el)   - is the total energy from the electronic structure calculation
              = E(kin-el) + E(nuc-el) + E(el-el) + E(nuc-nuc)
    E(ZPE)  - the the zero temperature vibrational energy from the frequency calculation
    E(vib)  - the the finite temperature correction to E(ZPE) due to population
              of excited vibrational states
    E(rot)  - is the rotational thermal energy
    E(trans)- is the translational thermal energy

Summary of contributions to the inner energy U:
Electronic energy                ...   -346.45726706 Eh
Zero point energy                ...      0.20114352 Eh     126.22 kcal/mol
Thermal vibrational correction   ...      0.00524189 Eh       3.29 kcal/mol
Thermal rotational correction    ...      0.00141627 Eh       0.89 kcal/mol
Thermal translational correction ...      0.00141627 Eh       0.89 kcal/mol
-----------------------------------------------------------------------
Total thermal energy                   -346.24804911 Eh

Summary of corrections to the electronic energy:
(perhaps to be used in another calculation)
Total thermal correction                  0.00807443 Eh       5.07 kcal/mol
Non-thermal (ZPE) correction              0.20114352 Eh     126.22 kcal/mol
-----------------------------------------------------------------------
Total correction                          0.20921795 Eh     131.29 kcal/mol

--------
ENTHALPY
--------

The enthalpy is H = U + kB*T
                kB is Boltzmann's constant
Total thermal energy              ...   -346.24804911 Eh
Thermal Enthalpy correction       ...      0.00094421 Eh       0.59 kcal/mol
-----------------------------------------------------------------------
Total Enthalpy                    ...   -346.24710490 Eh

Note: Rotational entropy computed according to Herzberg
Infrared and Raman Spectra, Chapter V,1, Van Nostrand Reinhold, 1945
Point Group:  Ci, Symmetry Number:   1
Rotational constants in cm-1:     0.152816     0.047143     0.038542

Vibrational entropy computed according to the QRRHO of S. Grimme
Chem.Eur.J. 2012 18 9955 using a reference frequency of 100.0 cm-1

-------
ENTROPY
-------

The entropy contributions are T*S = T*(S(el)+S(vib)+S(rot)+S(trans))
     S(el)   - electronic entropy
     S(vib)  - vibrational entropy
     S(rot)  - rotational entropy
     S(trans)- translational entropy
The entropies will be listed as multiplied by the temperature to get
units of energy

Electronic entropy                ...      0.00000000 Eh      0.00 kcal/mol
Vibrational entropy               ...      0.00828037 Eh      5.20 kcal/mol
Rotational entropy                ...      0.01337680 Eh      8.39 kcal/mol
Translational entropy             ...      0.01905920 Eh     11.96 kcal/mol
-----------------------------------------------------------------------
Final entropy term                ...      0.04071637 Eh     25.55 kcal/mol

In case the symmetry of your molecule has not been determined correctly
or in case you have a reason to use a different symmetry number we print
out the resulting rotational entropy values for sn=1,12:

 non-linear molecules -----------------------------------
|  sn= 1 | S(rot)=       0.01337680 Eh      8.39 kcal/mol|
|  sn= 2 | S(rot)=       0.01272234 Eh      7.98 kcal/mol|
|  sn= 3 | S(rot)=       0.01233951 Eh      7.74 kcal/mol|
|  sn= 4 | S(rot)=       0.01206788 Eh      7.57 kcal/mol|
|  sn= 5 | S(rot)=       0.01185720 Eh      7.44 kcal/mol|

                             ****ORCA TERMINATED NORMALLY****
TOTAL RUN TIME: 0 days 0 hours 20 minutes 14 seconds 359 msec
