                         Program Version 6.0.0  -   RELEASE  -
|  1> ! r2SCAN-3c DEF2-TZVP FREQ
|  2> * xyzfile 0 1 vacuum_censo.xyz
|  3>
|  4>                          ****END OF INPUT****

CARTESIAN COORDINATES (ANGSTROEM)
---------------------------------
  C      2.814747   -0.000004    0.012756
  N      1.399169    0.000014   -0.331647
  C      0.735619    1.193907    0.192055
  C     -0.735626    1.193913   -0.191952
  N     -1.399172   -0.000030    0.331640
  C     -0.735616   -1.193934   -0.192029
  C      0.735636   -1.193933    0.191950
  C     -2.814737   -0.000028   -0.012817
  H      3.299140   -0.886666   -0.410250
  H      2.990923   -0.000254    1.106901
  H      3.299051    0.886906   -0.409826
  H      0.821156    1.253874    1.296619
  H      1.222172    2.081294   -0.231246
  H     -1.222194    2.081260    0.231417
  H     -0.821155    1.253969   -1.296511
  H     -1.222161   -2.081310    0.231306
  H     -0.821172   -1.253934   -1.296589
  H      0.821195   -1.253992    1.296507
  H      1.222197   -2.081278   -0.231432
  H     -3.299103    0.886757    0.409958
  H     -3.299105   -0.886816    0.409952
  H     -2.990865   -0.000024   -1.106970

 Total Charge           Charge          ....    0
 Multiplicity           Mult            ....    1
 Number of Electrons    NEL             ....   64
 Basis Dimension        Dim             ....  332

ORBITAL ENERGIES
----------------

  NO   OCC          E(Eh)            E(eV)
   0   2.0000     -14.154480      -385.1630
   1   2.0000     -14.154474      -385.1628
   2   2.0000     -10.051188      -273.5067
   3   2.0000     -10.051185      -273.5066
   4   2.0000     -10.051050      -273.5030
   5   2.0000     -10.051048      -273.5029
   6   2.0000     -10.047081      -273.3950
   7   2.0000     -10.047079      -273.3949
   8   2.0000      -0.908649       -24.7256
   9   2.0000      -0.868201       -23.6249
  10   2.0000      -0.726130       -19.7590
  11   2.0000      -0.701900       -19.0997
  12   2.0000      -0.636902       -17.3310
  13   2.0000      -0.605512       -16.4768
  14   2.0000      -0.581736       -15.8298
  15   2.0000      -0.516742       -14.0613
  16   2.0000      -0.462931       -12.5970
  17   2.0000      -0.435886       -11.8611
  18   2.0000      -0.430298       -11.7090
  19   2.0000      -0.427519       -11.6334
  20   2.0000      -0.415493       -11.3061
  21   2.0000      -0.398251       -10.8370
  22   2.0000      -0.364412        -9.9161
  23   2.0000      -0.363271        -9.8851
  24   2.0000      -0.360808        -9.8181
  25   2.0000      -0.336800        -9.1648
  26   2.0000      -0.323122        -8.7926
  27   2.0000      -0.317915        -8.6509
  28   2.0000      -0.300537        -8.1780
  29   2.0000      -0.297216        -8.0877
  30   2.0000      -0.191965        -5.2236
  31   2.0000      -0.190712        -5.1895
  32   0.0000       0.042824         1.1653
  33   0.0000       0.049640         1.3508
  34   0.0000       0.073098         1.9891
  35   0.0000       0.083993         2.2856
  36   0.0000       0.087361         2.3772

MULLIKEN ATOMIC CHARGES
-----------------------
   0 C :   -0.241541
   1 N :   -0.162507
   2 C :   -0.089406
   3 C :   -0.089401
   4 N :   -0.162507
   5 C :   -0.089407
   6 C :   -0.089408
   7 C :   -0.241541
   8 H :    0.106818
   9 H :    0.079169
  10 H :    0.106813
  11 H :    0.056447
  12 H :    0.088581
  13 H :    0.088582
  14 H :    0.056447
  15 H :    0.088582
  16 H :    0.056449
  17 H :    0.056449
  18 H :    0.088584
  19 H :    0.106815
  20 H :    0.106816
  21 H :    0.079169
Sum of atomic charges:   -0.0000000

LOEWDIN ATOMIC CHARGES
----------------------
   0 C :   -0.322686
   1 N :    0.061194
   2 C :   -0.283422
   3 C :   -0.283422
   4 N :    0.061194
   5 C :   -0.283422
   6 C :   -0.283422
   7 C :   -0.322686
   8 H :    0.114030
   9 H :    0.098128
  10 H :    0.114031
  11 H :    0.118838
  12 H :    0.132235
  13 H :    0.132235
  14 H :    0.118838
  15 H :    0.132236
  16 H :    0.118837
  17 H :    0.118837
  18 H :    0.132236
  19 H :    0.114030
  20 H :    0.114030
  21 H :    0.098128

  Mayer bond orders larger than 0.100000
B(  0-C ,  1-N ) :   0.9685 B(  0-C ,  8-H ) :   0.9748 B(  0-C ,  9-H ) :   0.9637
B(  0-C , 10-H ) :   0.9748 B(  1-N ,  2-C ) :   0.9721 B(  1-N ,  6-C ) :   0.9721
B(  2-C ,  3-C ) :   1.0156 B(  2-C , 11-H ) :   0.9404 B(  2-C , 12-H ) :   0.9545
B(  3-C ,  4-N ) :   0.9721 B(  3-C , 13-H ) :   0.9545 B(  3-C , 14-H ) :   0.9404
B(  4-N ,  5-C ) :   0.9721 B(  4-N ,  7-C ) :   0.9685 B(  5-C ,  6-C ) :   1.0156
B(  5-C , 15-H ) :   0.9545 B(  5-C , 16-H ) :   0.9404 B(  6-C , 17-H ) :   0.9404
B(  6-C , 18-H ) :   0.9545 B(  7-C , 19-H ) :   0.9748 B(  7-C , 20-H ) :   0.9748
B(  7-C , 21-H ) :   0.9637

Dispersion correction           -0.006659197
FINAL SINGLE POINT ENERGY      -346.458504507280

DIPOLE MOMENT
-------------

Method             : SCF
Type of density    : Electron Density
Multiplicity       :   1
Irrep              :   0
Energy             :  -346.4741210223148755 Eh
Relativity type    :
Basis              : AO
                                X                 Y                 Z
Electronic contribution:     -0.000022248       0.000049369       0.000066986
Nuclear contribution   :      0.000036432      -0.000041859      -0.000072874
                        -----------------------------------------
Total Dipole Moment    :      0.000014184       0.000007510      -0.000005888
                        -----------------------------------------
Magnitude (a.u.)       :      0.000017096
Magnitude (Debye)      :      0.000043454

VIBRATIONAL FREQUENCIES
-----------------------

Scaling factor for frequencies =  1.000000000  (already applied!)

     0:       0.00 cm**-1
     1:       0.00 cm**-1
     2:       0.00 cm**-1
     3:       0.00 cm**-1
     4:       0.00 cm**-1
     5:       0.00 cm**-1
     6:     125.03 cm**-1
     7:     243.28 cm**-1
     8:     253.74 cm**-1
     9:     267.79 cm**-1
    10:     279.33 cm**-1
    11:     326.69 cm**-1
    12:     370.31 cm**-1
    13:     392.53 cm**-1
    14:     398.11 cm**-1
    15:     445.62 cm**-1
    16:     521.76 cm**-1
    17:     631.71 cm**-1
    18:     776.02 cm**-1
    19:     806.32 cm**-1
    20:     862.20 cm**-1
    21:     923.78 cm**-1
    22:    1022.17 cm**-1
    23:    1025.16 cm**-1
    24:    1052.10 cm**-1
    25:    1070.47 cm**-1
    26:    1088.41 cm**-1
    27:    1099.74 cm**-1
    28:    1132.54 cm**-1
    29:    1134.95 cm**-1
    30:    1179.05 cm**-1
    31:    1179.42 cm**-1
    32:    1181.76 cm**-1
    33:    1216.02 cm**-1
    34:    1275.63 cm**-1
    35:    1303.54 cm**-1
    36:    1311.51 cm**-1
    37:    1331.00 cm**-1
    38:    1357.19 cm**-1
    39:    1385.97 cm**-1
    40:    1390.90 cm**-1
    41:    1402.12 cm**-1
    42:    1447.68 cm**-1
    43:    1448.61 cm**-1
    44:    1467.91 cm**-1
    45:    1471.28 cm**-1
    46:    1476.91 cm**-1
    47:    1477.68 cm**-1
    48:    1489.15 cm**-1
    49:    1495.75 cm**-1
    50:    1495.83 cm**-1
    51:    1496.63 cm**-1
    52:    2872.80 cm**-1
    53:    2878.26 cm**-1
    54:    2885.55 cm**-1
    55:    2885.71 cm**-1
    56:    2894.17 cm**-1
    57:    2899.25 cm**-1
    58:    3032.63 cm**-1
    59:    3032.94 cm**-1
    60:    3033.20 cm**-1
    61:    3034.86 cm**-1
    62:    3036.92 cm**-1
    63:    3040.24 cm**-1
    64:    3082.00 cm**-1
    65:    3082.19 cm**-1

IR SPECTRUM
-----------

 Mode   freq       eps      Int      T**2         TX        TY        TZ
       cm**-1   L/(mol*cm) km/mol    a.u.
----------------------------------------------------------------------------
  6:    125.03   0.000348    1.76  0.000868  ( 0.026825  0.000000 -0.012171)
  7:    243.28   0.000000    0.00  0.000000  ( 0.000002  0.000215  0.000001)
  8:    253.74   0.000000    0.00  0.000000  (-0.000000  0.000002 -0.000001)
  9:    267.79   0.000000    0.00  0.000000  (-0.000003 -0.000000 -0.000001)
 10:    279.33   0.000084    0.42  0.000094  (-0.000002 -0.009672 -0.000001)
 11:    326.69   0.000079    0.40  0.000076  ( 0.000001  0.008712  0.000002)
 12:    370.31   0.002201   11.12  0.001855  ( 0.001809 -0.000002  0.043033)
 13:    392.53   0.000000    0.00  0.000000  (-0.000000 -0.000000 -0.000001)
 14:    398.11   0.000000    0.00  0.000000  ( 0.000000 -0.000001  0.000002)
 15:    445.62   0.000000    0.00  0.000000  ( 0.000000 -0.000001  0.000001)
 16:    521.76   0.000000    0.00  0.000000  (-0.000000 -0.000000 -0.000000)
 17:    631.71   0.000030    0.15  0.000015  (-0.002517  0.000000 -0.002923)
 18:    776.02   0.000000    0.00  0.000000  ( 0.000001 -0.000002 -0.000001)
 19:    806.32   0.006514   32.92  0.002521  (-0.000283 -0.000002  0.050209)
 20:    862.20   0.000000    0.00  0.000000  ( 0.000000  0.000000 -0.000000)
 21:    923.78   0.001463    7.39  0.000494  (-0.000001  0.022231 -0.000000)
 22:   1022.17   0.000000    0.00  0.000000  ( 0.000004  0.000001 -0.000001)
 23:   1025.16   0.006741   34.07  0.002052  ( 0.044205 -0.000000 -0.009899)
 24:   1052.10   0.000000    0.00  0.000000  ( 0.000003 -0.000000  0.000000)
 25:   1070.47   0.001249    6.31  0.000364  ( 0.000002 -0.019084 -0.000000)
 26:   1088.41   0.000000    0.00  0.000000  (-0.000001  0.000002  0.000000)
 27:   1099.74   0.004971   25.12  0.001411  (-0.000002  0.037559  0.000002)
 28:   1132.54   0.000000    0.00  0.000000  (-0.000013  0.000003  0.000002)
 29:   1134.95   0.005850   29.56  0.001608  (-0.038467 -0.000002  0.011346)
 30:   1179.05   0.013430   67.87  0.003555  (-0.050643 -0.000136 -0.031462)
 31:   1179.42   0.002668   13.48  0.000706  ( 0.000261 -0.026566  0.000161)
 32:   1181.76   0.000000    0.00  0.000000  ( 0.000023  0.000004  0.000014)
 33:   1216.02   0.000000    0.00  0.000000  ( 0.000002 -0.000001  0.000002)
 34:   1275.63   0.000000    0.00  0.000000  (-0.000002 -0.000000 -0.000003)
 35:   1303.54   0.005466   27.62  0.001309  ( 0.000715  0.000011 -0.036167)
 36:   1311.51   0.007764   39.24  0.001847  ( 0.000001 -0.042982 -0.000008)
 37:   1331.00   0.000000    0.00  0.000000  ( 0.000000  0.000004  0.000001)
 38:   1357.19   0.000000    0.00  0.000000  ( 0.000000 -0.000000 -0.000001)
 39:   1385.97   0.000466    2.35  0.000105  ( 0.000005 -0.010238 -0.000000)
 40:   1390.90   0.004769   24.10  0.001070  (-0.032677 -0.000001 -0.001490)
 41:   1402.12   0.000000    0.00  0.000000  ( 0.000001  0.000001  0.000000)
 42:   1447.68   0.000000    0.00  0.000000  (-0.000001  0.000002 -0.000000)
 43:   1448.61   0.000100    0.51  0.000022  ( 0.004624 -0.000001 -0.000427)
 44:   1467.91   0.000000    0.00  0.000000  ( 0.000003  0.000000 -0.000003)
 45:   1471.28   0.000054    0.27  0.000012  ( 0.000004 -0.003391 -0.000003)
 46:   1476.91   0.006440   32.54  0.001361  (-0.032301 -0.000001  0.017815)
 47:   1477.68   0.000000    0.00  0.000000  ( 0.000007 -0.000000 -0.000005)
 48:   1489.15   0.006060   30.63  0.001270  (-0.014820 -0.000001 -0.032408)
 49:   1495.75   0.002630   13.29  0.000549  ( 0.000003  0.023423 -0.000005)
 50:   1495.83   0.000001    0.01  0.000000  (-0.000001  0.000504 -0.000000)
 51:   1496.63   0.000000    0.00  0.000000  ( 0.000004  0.000003 -0.000006)
 52:   2872.80   0.013859   70.04  0.001505  (-0.000000  0.038801 -0.000006)
 53:   2878.26   0.000000    0.00  0.000000  (-0.000002 -0.000000  0.000004)
 54:   2885.55   0.010802   54.59  0.001168  (-0.032904  0.000006  0.009247)
 55:   2885.71   0.000000    0.00  0.000000  (-0.000125  0.000003  0.000038)
 56:   2894.17   0.000000    0.00  0.000000  (-0.000004  0.000003 -0.000005)
 57:   2899.25   0.078180  395.09  0.008415  (-0.036300  0.000001 -0.084245)
 58:   3032.63   0.008832   44.63  0.000909  (-0.023978  0.000000  0.018272)
 59:   3032.94   0.000000    0.00  0.000000  ( 0.000036  0.000001 -0.000025)
 60:   3033.20   0.000000    0.00  0.000000  ( 0.000043  0.000014 -0.000041)
 61:   3034.86   0.018558   93.78  0.001908  (-0.030925  0.000011  0.030853)
 62:   3036.92   0.019470   98.39  0.002001  ( 0.000007  0.044729 -0.000006)
 63:   3040.24   0.000000    0.00  0.000000  ( 0.000004  0.000023 -0.000005)
 64:   3082.00   0.000000    0.00  0.000000  (-0.000004 -0.000157  0.000001)
 65:   3082.19   0.011392   57.57  0.001153  ( 0.000002  0.033961  0.000001)

--------------------------
THERMOCHEMISTRY AT 298.15K
--------------------------

Temperature         ...   298.15 K
Pressure            ...     1.00 atm
Total Mass          ...   114.19 AMU
Quasi RRHO          ...     True
Cut-Off Frequency   ...     1.00 cm^-1

Throughout the following assumptions are being made:
  (1) The electronic state is orbitally nondegenerate
  (2) There are no thermally accessible electronically excited states
  (3) Hindered rotations indicated by low frequency modes are not
      treated as such but are treated as vibrations and this may
      cause some error
  (4) All equations used are the standard statistical mechanics
      equations for an ideal gas
  (5) All vibrations are strictly harmonic

freq.     125.03  E(vib)   ...       0.43
freq.     243.28  E(vib)   ...       0.31
freq.     253.74  E(vib)   ...       0.30
freq.     267.79  E(vib)   ...       0.29
freq.     279.33  E(vib)   ...       0.28
freq.     326.69  E(vib)   ...       0.24
freq.     370.31  E(vib)   ...       0.21
freq.     392.53  E(vib)   ...       0.20
freq.     398.11  E(vib)   ...       0.20
freq.     445.62  E(vib)   ...       0.17
freq.     521.76  E(vib)   ...       0.13
freq.     631.71  E(vib)   ...       0.09
freq.     776.02  E(vib)   ...       0.05
freq.     806.32  E(vib)   ...       0.05
freq.     862.20  E(vib)   ...       0.04
freq.     923.78  E(vib)   ...       0.03
freq.    1022.17  E(vib)   ...       0.02
freq.    1025.16  E(vib)   ...       0.02
freq.    1052.10  E(vib)   ...       0.02
freq.    1070.47  E(vib)   ...       0.02
freq.    1088.41  E(vib)   ...       0.02
freq.    1099.74  E(vib)   ...       0.02
freq.    1132.54  E(vib)   ...       0.01
freq.    1134.95  E(vib)   ...       0.01
freq.    1179.05  E(vib)   ...       0.01
freq.    1179.42  E(vib)   ...       0.01
freq.    1181.76  E(vib)   ...       0.01
freq.    1216.02  E(vib)   ...       0.01
freq.    1275.63  E(vib)   ...       0.01
freq.    1303.54  E(vib)   ...       0.01
freq.    1311.51  E(vib)   ...       0.01
freq.    1331.00  E(vib)   ...       0.01
freq.    1357.19  E(vib)   ...       0.01
freq.    1385.97  E(vib)   ...       0.00
freq.    1390.90  E(vib)   ...       0.00
freq.    1402.12  E(vib)   ...       0.00
freq.    1447.68  E(vib)   ...       0.00
freq.    1448.61  E(vib)   ...       0.00
freq.    1467.91  E(vib)   ...       0.00
freq.    1471.28  E(vib)   ...       0.00
freq.    1476.91  E(vib)   ...       0.00
freq.    1477.68  E(vib)   ...       0.00
freq.    1489.15  E(vib)   ...       0.00
freq.    1495.75  E(vib)   ...       0.00
freq.    1495.83  E(vib)   ...       0.00
freq.    1496.63  E(vib)   ...       0.00
freq.    2872.80  E(vib)   ...       0.00
freq.    2878.26  E(vib)   ...       0.00
freq.    2885.55  E(vib)   ...       0.00
freq.    2885.71  E(vib)   ...       0.00
freq.    2894.17  E(vib)   ...       0.00
freq.    2899.25  E(vib)   ...       0.00
freq.    3032.63  E(vib)   ...       0.00
freq.    3032.94  E(vib)   ...       0.00
freq.    3033.20  E(vib)   ...       0.00
freq.    3034.86  E(vib)   ...       0.00
freq.    3036.92  E(vib)   ...       0.00
freq.    3040.24  E(vib)   ...       0.00
freq.    3082.00  E(vib)   ...       0.00
freq.    3082.19  E(vib)   ...       0.00

------------
INNER ENERGY
------------

The inner energy is: U= E(el) + E(ZPE) + E(vib) + E(rot) + E(trans)
    E(el)   - is the total energy from the electronic structure calculation
              = E(kin-el) + E(nuc-el) + E(el-el) + E(nuc-nuc)
    E(ZPE)  - the the zero temperature vibrational energy from the frequency calculation
    E(vib)  - the the finite temperature correction to E(ZPE) due to population
              of excited vibrational states
    E(rot)  - is the rotational thermal energy
    E(trans)- is the translational thermal energy

Summary of contributions to the inner energy U:
Electronic energy                ...   -346.45850451 Eh
Zero point energy                ...      0.20098454 Eh     126.12 kcal/mol
Thermal vibrational correction   ...      0.00524262 Eh       3.29 kcal/mol
Thermal rotational correction    ...      0.00141627 Eh       0.89 kcal/mol
Thermal translational correction ...      0.00141627 Eh       0.89 kcal/mol
-----------------------------------------------------------------------
Total thermal energy                   -346.24944481 Eh

Summary of corrections to the electronic energy:
(perhaps to be used in another calculation)
Total thermal correction                  0.00807516 Eh       5.07 kcal/mol
Non-thermal (ZPE) correction              0.20098454 Eh     126.12 kcal/mol
-----------------------------------------------------------------------
Total correction                          0.20905970 Eh     131.19 kcal/mol

--------
ENTHALPY
--------

The enthalpy is H = U + kB*T
                kB is Boltzmann's constant
Total thermal energy              ...   -346.24944481 Eh
Thermal Enthalpy correction       ...      0.00094421 Eh       0.59 kcal/mol
-----------------------------------------------------------------------
Total Enthalpy                    ...   -346.24850060 Eh

WARNING (ORCA/SYM): A non-planar off-center atom subset has been encountered
in function TSymmetryFinder::FilterSubsetShapes() which cannot occur under
regular conditions. The full point group may not be assigned correctly. If the
symmetry appears to be too low, please try increasing the cleaning tolerance
using option SymThresh in the %symmetry input block. If the problem persists,
you may post a message in the ORCA forum.

Note: Only C1 symmetry has been detected, increase convergence thresholds
      if your molecule has a higher symmetry. Symmetry factor of 1.0 is
      used for the rotational entropy correction.

Note: Rotational entropy computed according to Herzberg
Infrared and Raman Spectra, Chapter V,1, Van Nostrand Reinhold, 1945
Point Group:  C1, Symmetry Number:   1
Rotational constants in cm-1:     0.152619     0.047244     0.038551

Vibrational entropy computed according to the QRRHO of S. Grimme
Chem.Eur.J. 2012 18 9955 using a reference frequency of 100.0 cm-1

-------
ENTROPY
-------

The entropy contributions are T*S = T*(S(el)+S(vib)+S(rot)+S(trans))
     S(el)   - electronic entropy
     S(vib)  - vibrational entropy
     S(rot)  - rotational entropy
     S(trans)- translational entropy
The entropies will be listed as multiplied by the temperature to get
units of energy

Electronic entropy                ...      0.00000000 Eh      0.00 kcal/mol
Vibrational entropy               ...      0.00829707 Eh      5.21 kcal/mol
Rotational entropy                ...      0.01337630 Eh      8.39 kcal/mol
Translational entropy             ...      0.01905920 Eh     11.96 kcal/mol
-----------------------------------------------------------------------

                             ****ORCA TERMINATED NORMALLY****
TOTAL RUN TIME: 0 days 0 hours 20 minutes 52 seconds 106 msec
