                         Program Version 6.0.1  -  RELEASE   -
|  1> ! pbe def2-sv(p) def2/J RI DEFGRID1 loosescf d4 GCP(DFT/SV(P)) printgap
|  2> %output
|  3>     printlevel normal
|  4> end
|  5> * xyz 0 1
|  6> C -2.4915532988 -0.9188294727 0.9803691165
|  7> C -2.0271694875 -0.3388231916 -0.360326204
|  8> H -2.921315356 -0.1895850868 -0.9774205434
|  9> C -1.0576266103 -1.2578567969 -1.0994187515
| 10> C 0.2903549264 -1.3996136636 -0.3859822311
| 11> C 0.7684473023 -0.0751780642 0.2503082383
| 12> H 0.4871333015 -0.0717075404 1.3097003876
| 13> C 0.0612052659 1.1174163231 -0.4008094275
| 14> C -1.4186592865 1.0339282355 -0.1269825749
| 15> O -2.071467614 1.9699049669 0.2629394922
| 16> C 2.2766988831 0.0073373893 0.1870069054
| 17> C 2.942818476 0.6793885538 -0.7371811112
| 18> C 2.9805262897 -0.7767628408 1.2544236781
| 19> H -3.1662316399 -0.2196501536 1.4682011214
| 20> H -3.0158378004 -1.8583259259 0.820112123
| 21> H -1.6484700033 -1.100988361 1.6412342079
| 22> H -1.5094249901 -2.2452893369 -1.2147783964
| 23> H -0.8975345674 -0.8586866178 -2.1032723036
| 24> H 0.2186014769 -2.1663393433 0.3865446429
| 25> H 1.032452004 -1.7393500683 -1.1120114678
| 26> H 0.4506942922 2.0592489997 -0.0118423198
| 27> H 0.2095118778 1.1015470201 -1.4820300668
| 28> H 4.0196172261 0.6889137503 -0.7539703495
| 29> H 2.45928458 1.2490941142 -1.5104582272
| 30> H 2.7365682254 -0.3752668463 2.2378543041
| 31> H 2.6620671218 -1.8181932431 1.2330194054
| 32> H 4.0581535783 -0.7381441132 1.121859568
| 33> *
| 34>
| 35>                          ****END OF INPUT****

CARTESIAN COORDINATES (ANGSTROEM)
---------------------------------
  C     -2.491553   -0.918829    0.980369
  C     -2.027169   -0.338823   -0.360326
  H     -2.921315   -0.189585   -0.977421
  C     -1.057627   -1.257857   -1.099419
  C      0.290355   -1.399614   -0.385982
  C      0.768447   -0.075178    0.250308
  H      0.487133   -0.071708    1.309700
  C      0.061205    1.117416   -0.400809
  C     -1.418659    1.033928   -0.126983
  O     -2.071468    1.969905    0.262939
  C      2.276699    0.007337    0.187007
  C      2.942818    0.679389   -0.737181
  C      2.980526   -0.776763    1.254424
  H     -3.166232   -0.219650    1.468201
  H     -3.015838   -1.858326    0.820112
  H     -1.648470   -1.100988    1.641234
  H     -1.509425   -2.245289   -1.214778
  H     -0.897535   -0.858687   -2.103272
  H      0.218601   -2.166339    0.386545
  H      1.032452   -1.739350   -1.112011
  H      0.450694    2.059249   -0.011842
  H      0.209512    1.101547   -1.482030
  H      4.019617    0.688914   -0.753970
  H      2.459285    1.249094   -1.510458
  H      2.736568   -0.375267    2.237854
  H      2.662067   -1.818193    1.233019
  H      4.058154   -0.738144    1.121860

 Total Charge           Charge          ....    0
 Multiplicity           Mult            ....    1
 Number of Electrons    NEL             ....   84
 Basis Dimension        Dim             ....  186

ORBITAL ENERGIES
----------------

  NO   OCC          E(Eh)            E(eV)
   0   2.0000     -18.737927      -509.8849
   1   2.0000      -9.968405      -271.2541
   2   2.0000      -9.909742      -269.6578
   3   2.0000      -9.904965      -269.5278
   4   2.0000      -9.901502      -269.4336
   5   2.0000      -9.895306      -269.2650
   6   2.0000      -9.894699      -269.2484
   7   2.0000      -9.891536      -269.1624
   8   2.0000      -9.886672      -269.0300
   9   2.0000      -9.886081      -269.0139
  10   2.0000      -9.876197      -268.7450
  11   2.0000      -0.937925       -25.5222
  12   2.0000      -0.774292       -21.0696
  13   2.0000      -0.730593       -19.8804
  14   2.0000      -0.682966       -18.5844
  15   2.0000      -0.660133       -17.9631
  16   2.0000      -0.617664       -16.8075
  17   2.0000      -0.614235       -16.7142
  18   2.0000      -0.555651       -15.1200
  19   2.0000      -0.531394       -14.4600
  20   2.0000      -0.475277       -12.9329
  21   2.0000      -0.461862       -12.5679
  22   2.0000      -0.444604       -12.0983
  23   2.0000      -0.422317       -11.4918
  24   2.0000      -0.413805       -11.2602
  25   2.0000      -0.406868       -11.0714
  26   2.0000      -0.388029       -10.5588
  27   2.0000      -0.378293       -10.2939
  28   2.0000      -0.371243       -10.1020
  29   2.0000      -0.364125        -9.9083
  30   2.0000      -0.357095        -9.7171
  31   2.0000      -0.345124        -9.3913
  32   2.0000      -0.342282        -9.3140
  33   2.0000      -0.328766        -8.9462
  34   2.0000      -0.321433        -8.7466
  35   2.0000      -0.316728        -8.6186
  36   2.0000      -0.304638        -8.2896
  37   2.0000      -0.292228        -7.9519
  38   2.0000      -0.278925        -7.5899
  39   2.0000      -0.276053        -7.5118
  40   2.0000      -0.222986        -6.0677
  41   2.0000      -0.190460        -5.1827
  42   0.0000      -0.049609        -1.3499
  43   0.0000      -0.015025        -0.4088
  44   0.0000       0.022015         0.5991
  45   0.0000       0.036677         0.9980
  46   0.0000       0.056166         1.5284

MULLIKEN ATOMIC CHARGES
-----------------------
   0 C :   -0.256117
   1 C :   -0.176719
   2 H :    0.090969
   3 C :   -0.083595
   4 C :   -0.129742
   5 C :   -0.200123
   6 H :    0.077031
   7 C :   -0.059451
   8 C :    0.009922
   9 O :   -0.154553
  10 C :   -0.037542
  11 C :   -0.234314
  12 C :   -0.212494
  13 H :    0.120389
  14 H :    0.105684
  15 H :    0.107017
  16 H :    0.086232
  17 H :    0.078591
  18 H :    0.089764
  19 H :    0.090730
  20 H :    0.093879
  21 H :    0.101719
  22 H :    0.082560
  23 H :    0.091184
  24 H :    0.110952
  25 H :    0.110010
  26 H :    0.098016
Sum of atomic charges:   -0.0000000

LOEWDIN ATOMIC CHARGES
----------------------
   0 C :   -0.320297
   1 C :   -0.175766
   2 H :    0.137583
   3 C :   -0.219253
   4 C :   -0.214533
   5 C :   -0.130895
   6 H :    0.121857
   7 C :   -0.234430
   8 C :    0.051618
   9 O :   -0.122974
  10 C :   -0.046996
  11 C :   -0.270425
  12 C :   -0.320945
  13 H :    0.128833
  14 H :    0.121604
  15 H :    0.117689
  16 H :    0.122305
  17 H :    0.118507
  18 H :    0.118885
  19 H :    0.125841
  20 H :    0.133429
  21 H :    0.139529
  22 H :    0.119801
  23 H :    0.117401
  24 H :    0.129826
  25 H :    0.127276
  26 H :    0.124528

  Mayer bond orders larger than 0.100000
B(  0-C ,  1-C ) :   1.0954 B(  0-C , 13-H ) :   0.9426 B(  0-C , 14-H ) :   0.9477
B(  0-C , 15-H ) :   0.9447 B(  1-C ,  2-H ) :   0.8705 B(  1-C ,  3-C ) :   1.1010
B(  1-C ,  8-C ) :   0.9139 B(  3-C ,  4-C ) :   1.1536 B(  3-C , 16-H ) :   0.9099
B(  3-C , 17-H ) :   0.8950 B(  4-C ,  5-C ) :   1.0587 B(  4-C , 18-H ) :   0.9102
B(  4-C , 19-H ) :   0.9058 B(  5-C ,  6-H ) :   0.8771 B(  5-C ,  7-C ) :   1.1221
B(  5-C , 10-C ) :   0.9989 B(  7-C ,  8-C ) :   1.0625 B(  7-C , 20-H ) :   0.8961
B(  7-C , 21-H ) :   0.8437 B(  8-C ,  9-O ) :   2.1978 B( 10-C , 11-C ) :   2.0439
B( 10-C , 12-C ) :   1.1235 B( 11-C , 22-H ) :   0.8985 B( 11-C , 23-H ) :   0.9028
B( 12-C , 24-H ) :   0.9281 B( 12-C , 25-H ) :   0.9323 B( 12-C , 26-H ) :   0.9389

Dispersion correction           -0.028742339
FINAL SINGLE POINT ENERGY      -464.823728677127

DIPOLE MOMENT
-------------

Method             : SCF
Type of density    : Electron Density
Multiplicity       :   1
Irrep              :   0
Energy             :  -464.9092660244161834 Eh
Relativity type    :
Basis              : AO
                                X                 Y                 Z
Electronic contribution:     -4.365117800       6.747449239      -1.163107333
Nuclear contribution   :      4.824547219      -7.741362117       0.991546478
                        -----------------------------------------
Total Dipole Moment    :      0.459429419      -0.993912878      -0.171560855
                        -----------------------------------------
Magnitude (a.u.)       :      1.108319145
Magnitude (Debye)      :      2.817123387

Rotational constants in cm-1:             0.062012             0.024440             0.021388
Rotational constants in MHz :          1859.084498           732.678721           641.198997

                             ****ORCA TERMINATED NORMALLY****
TOTAL RUN TIME: 0 days 0 hours 0 minutes 26 seconds 921 msec
