                         Program Version 6.0.1  -  RELEASE   -
|  1> ! pbe def2-sv(p) def2/J RI DEFGRID1 loosescf d4 GCP(DFT/SV(P)) printgap
|  2> %output
|  3>     printlevel normal
|  4> end
|  5> * xyz 0 1
|  6> C 1.8190150943 -0.2655503233 0.1495353401
|  7> C 0.5719152768 0.5692158894 -0.1217510433
|  8> C -0.6596155102 -0.2794683936 -0.2402254521
|  9> O -1.7410237926 -0.0036951764 0.1952367205
| 10> H 1.9597971964 -1.010080561 -0.6310207565
| 11> H 1.7333357468 -0.7786055198 1.1044483004
| 12> H 2.6991011425 0.371475744 0.1802283192
| 13> H 0.4213229633 1.3207078815 0.6548919185
| 14> H 0.6838672103 1.0904056945 -1.0779738833
| 15> H -0.4922518477 -1.2236002654 -0.7981298752
| 16> *
| 17>
| 18>                          ****END OF INPUT****

CARTESIAN COORDINATES (ANGSTROEM)
---------------------------------
  C      1.819015   -0.265550    0.149535
  C      0.571915    0.569216   -0.121751
  C     -0.659616   -0.279468   -0.240225
  O     -1.741024   -0.003695    0.195237
  H      1.959797   -1.010081   -0.631021
  H      1.733336   -0.778606    1.104448
  H      2.699101    0.371476    0.180228
  H      0.421323    1.320708    0.654892
  H      0.683867    1.090406   -1.077974
  H     -0.492252   -1.223600   -0.798130

 Total Charge           Charge          ....    0
 Multiplicity           Mult            ....    1
 Number of Electrons    NEL             ....   32
 Basis Dimension        Dim             ....   68

ORBITAL ENERGIES
----------------

  NO   OCC          E(Eh)            E(eV)
   0   2.0000     -18.750485      -510.2266
   1   2.0000      -9.971673      -271.3430
   2   2.0000      -9.900741      -269.4129
   3   2.0000      -9.893896      -269.2266
   4   2.0000      -0.949220       -25.8296
   5   2.0000      -0.716206       -19.4889
   6   2.0000      -0.591677       -16.1004
   7   2.0000      -0.514783       -14.0079
   8   2.0000      -0.431338       -11.7373
   9   2.0000      -0.404284       -11.0011
  10   2.0000      -0.393427       -10.7057
  11   2.0000      -0.359973        -9.7954
  12   2.0000      -0.341418        -9.2904
  13   2.0000      -0.329076        -8.9546
  14   2.0000      -0.313286        -8.5249
  15   2.0000      -0.203531        -5.5384
  16   0.0000      -0.059421        -1.6169
  17   0.0000       0.041753         1.1362
  18   0.0000       0.068301         1.8586
  19   0.0000       0.080661         2.1949
  20   0.0000       0.105023         2.8578

MULLIKEN ATOMIC CHARGES
-----------------------
   0 C :   -0.315094
   1 C :   -0.171549
   2 C :    0.010162
   3 O :   -0.151676
   4 H :    0.113436
   5 H :    0.119127
   6 H :    0.118805
   7 H :    0.107539
   8 H :    0.122705
   9 H :    0.046545
Sum of atomic charges:    0.0000000

LOEWDIN ATOMIC CHARGES
----------------------
   0 C :   -0.338904
   1 C :   -0.275339
   2 C :   -0.000446
   3 O :   -0.109502
   4 H :    0.121858
   5 H :    0.124727
   6 H :    0.127739
   7 H :    0.131741
   8 H :    0.143931
   9 H :    0.074196

  Mayer bond orders larger than 0.100000
B(  0-C ,  1-C ) :   1.1146 B(  0-C ,  4-H ) :   0.9527 B(  0-C ,  5-H ) :   0.9586
B(  0-C ,  6-H ) :   0.9512 B(  1-C ,  2-C ) :   0.9902 B(  1-C ,  7-H ) :   0.9134
B(  1-C ,  8-H ) :   0.8979 B(  2-C ,  3-O ) :   2.1932 B(  2-C ,  9-H ) :   0.9010

Dispersion correction           -0.005166034
FINAL SINGLE POINT ENERGY      -192.705011859218

DIPOLE MOMENT
-------------

Method             : SCF
Type of density    : Electron Density
Multiplicity       :   1
Irrep              :   0
Energy             :  -192.7396056967878621 Eh
Relativity type    :
Basis              : AO
                                X                 Y                 Z
Electronic contribution:     -5.598747848       0.192384968       0.258204786
Nuclear contribution   :      6.546203285      -0.215548894      -0.529567115
                        -----------------------------------------
Total Dipole Moment    :      0.947455437      -0.023163925      -0.271362329
                        -----------------------------------------
Magnitude (a.u.)       :      0.985822441
Magnitude (Debye)      :      2.505761509

Rotational constants in cm-1:             0.958886             0.142632             0.135455
Rotational constants in MHz :         28746.683139          4276.014171          4060.845297

                             ****ORCA TERMINATED NORMALLY****
TOTAL RUN TIME: 0 days 0 hours 0 minutes 7 seconds 726 msec
