                         Program Version 6.0.1  -  RELEASE   -
|  1> ! pbe def2-sv(p) def2/J RI DEFGRID1 loosescf d4 GCP(DFT/SV(P)) printgap
|  2> %output
|  3>     printlevel normal
|  4> end
|  5> * xyz 0 1
|  6> C 2.8258019703 0.679330489 0.2429488401
|  7> C 1.9383707625 -0.470937251 -0.2137192431
|  8> C 0.4639743241 -0.2204561648 -0.0955040326
|  9> C -0.1121607493 1.0386257187 0.0762849981
| 10> N -1.4213789943 1.2070092098 0.1602805829
| 11> C -2.1828678817 0.1272517226 0.0748957264
| 12> C -1.6219130358 -1.131170095 -0.0928444075
| 13> N -0.3135369367 -1.298677858 -0.1753185986
| 14> H 3.8686438564 0.3730251024 0.2078854805
| 15> H 2.5885693808 0.9681745152 1.2644487545
| 16> H 2.7082269286 1.5466323278 -0.4024213433
| 17> H 2.1631794722 -1.3725895839 0.3606017893
| 18> H 2.1514687351 -0.7061519437 -1.2609712684
| 19> H 0.4784911536 1.9400826914 0.1507763968
| 20> H -3.250352964 0.2823995835 0.1445958766
| 21> H -2.2236953303 -2.027511643 -0.1613362477
| 22> *
| 23>
| 24>                          ****END OF INPUT****

CARTESIAN COORDINATES (ANGSTROEM)
---------------------------------
  C      2.825802    0.679330    0.242949
  C      1.938371   -0.470937   -0.213719
  C      0.463974   -0.220456   -0.095504
  C     -0.112161    1.038626    0.076285
  N     -1.421379    1.207009    0.160281
  C     -2.182868    0.127252    0.074896
  C     -1.621913   -1.131170   -0.092844
  N     -0.313537   -1.298678   -0.175319
  H      3.868644    0.373025    0.207885
  H      2.588569    0.968175    1.264449
  H      2.708227    1.546632   -0.402421
  H      2.163179   -1.372590    0.360602
  H      2.151469   -0.706152   -1.260971
  H      0.478491    1.940083    0.150776
  H     -3.250353    0.282400    0.144596
  H     -2.223695   -2.027512   -0.161336

 Total Charge           Charge          ....    0
 Multiplicity           Mult            ....    1
 Number of Electrons    NEL             ....   58
 Basis Dimension        Dim             ....  128

ORBITAL ENERGIES
----------------

  NO   OCC          E(Eh)            E(eV)
   0   2.0000     -13.998754      -380.9255
   1   2.0000     -13.997902      -380.9023
   2   2.0000      -9.942692      -270.5544
   3   2.0000      -9.931182      -270.2412
   4   2.0000      -9.929998      -270.2090
   5   2.0000      -9.928649      -270.1723
   6   2.0000      -9.898635      -269.3556
   7   2.0000      -9.887285      -269.0467
   8   2.0000      -0.898100       -24.4385
   9   2.0000      -0.823180       -22.3999
  10   2.0000      -0.730718       -19.8839
  11   2.0000      -0.675336       -18.3768
  12   2.0000      -0.606450       -16.5023
  13   2.0000      -0.585592       -15.9348
  14   2.0000      -0.544638       -14.8204
  15   2.0000      -0.472668       -12.8620
  16   2.0000      -0.465981       -12.6800
  17   2.0000      -0.424255       -11.5446
  18   2.0000      -0.417890       -11.3714
  19   2.0000      -0.398274       -10.8376
  20   2.0000      -0.380546       -10.3552
  21   2.0000      -0.359870        -9.7926
  22   2.0000      -0.331791        -9.0285
  23   2.0000      -0.322544        -8.7769
  24   2.0000      -0.320893        -8.7319
  25   2.0000      -0.294390        -8.0108
  26   2.0000      -0.248902        -6.7730
  27   2.0000      -0.244937        -6.6651
  28   2.0000      -0.196933        -5.3588
  29   0.0000      -0.077682        -2.1138
  30   0.0000      -0.053457        -1.4546
  31   0.0000       0.041396         1.1265
  32   0.0000       0.068897         1.8748
  33   0.0000       0.073642         2.0039

MULLIKEN ATOMIC CHARGES
-----------------------
   0 C :   -0.289626
   1 C :   -0.105689
   2 C :   -0.076127
   3 C :   -0.090997
   4 N :   -0.030717
   5 C :   -0.061154
   6 C :   -0.050001
   7 N :   -0.059892
   8 H :    0.111071
   9 H :    0.111030
  10 H :    0.113612
  11 H :    0.102393
  12 H :    0.111343
  13 H :    0.064169
  14 H :    0.075822
  15 H :    0.074763
Sum of atomic charges:    0.0000000

LOEWDIN ATOMIC CHARGES
----------------------
   0 C :   -0.342060
   1 C :   -0.229209
   2 C :   -0.023638
   3 C :   -0.101096
   4 N :   -0.049651
   5 C :   -0.104245
   6 C :   -0.095097
   7 N :   -0.054140
   8 H :    0.125787
   9 H :    0.122233
  10 H :    0.120810
  11 H :    0.134780
  12 H :    0.138527
  13 H :    0.118859
  14 H :    0.119121
  15 H :    0.119019

  Mayer bond orders larger than 0.100000
B(  0-C ,  1-C ) :   1.1792 B(  0-C ,  8-H ) :   0.9477 B(  0-C ,  9-H ) :   0.9524
B(  0-C , 10-H ) :   0.9384 B(  1-C ,  2-C ) :   1.0523 B(  1-C , 11-H ) :   0.9026
B(  1-C , 12-H ) :   0.8922 B(  2-C ,  3-C ) :   1.3647 B(  2-C ,  5-C ) :   0.1026
B(  2-C ,  7-N ) :   1.5129 B(  3-C ,  4-N ) :   1.5554 B(  3-C , 13-H ) :   0.9407
B(  4-N ,  5-C ) :   1.5492 B(  5-C ,  6-C ) :   1.3481 B(  5-C , 14-H ) :   0.9474
B(  6-C ,  7-N ) :   1.5463 B(  6-C , 15-H ) :   0.9454

Dispersion correction           -0.015083654
FINAL SINGLE POINT ENERGY      -342.197763121300

DIPOLE MOMENT
-------------

Method             : SCF
Type of density    : Electron Density
Multiplicity       :   1
Irrep              :   0
Energy             :  -342.2462251742392709 Eh
Relativity type    :
Basis              : AO
                                X                 Y                 Z
Electronic contribution:     -7.675979519      -1.023826289      -0.326265826
Nuclear contribution   :      7.950410729       0.941476543       0.284726464
                        -----------------------------------------
Total Dipole Moment    :      0.274431211      -0.082349747      -0.041539362
                        -----------------------------------------
Magnitude (a.u.)       :      0.289515956
Magnitude (Debye)      :      0.735891078

Rotational constants in cm-1:             0.168918             0.052308             0.040719
Rotational constants in MHz :          5064.036228          1568.152039          1220.729451

                             ****ORCA TERMINATED NORMALLY****
TOTAL RUN TIME: 0 days 0 hours 0 minutes 4 seconds 786 msec
