                         Program Version 6.0.1  -  RELEASE   -
|  1> ! r2scan-3c def2/J RI DEFGRID2 scfconv6 printgap
|  2> %output
|  3>     printlevel normal
|  4> end
|  5> * xyz 0 1
|  6> C -1.8801595427 -0.6910969038 -0.1879526004
|  7> C -0.961097224 0.455712725 0.2090623968
|  8> C 0.502747125 0.0913136164 0.0148185403
|  9> O 0.8945012244 -0.971721198 -0.4035706396
| 10> N 1.358200935 1.087352849 0.3601138262
| 11> H -1.7241971934 -0.9497058831 -1.2317380003
| 12> H -1.6594754507 -1.5705461524 0.4108698203
| 13> H -2.9216687683 -0.4148356685 -0.0425245346
| 14> H -1.1129741799 0.7182548299 1.259001104
| 15> H -1.1768335975 1.341611091 -0.3934794854
| 16> H 1.0410185293 1.9736059654 0.7080188656
| 17> H 2.347704806 0.9327325061 0.2635068682
| 18> *
| 19>
| 20>                          ****END OF INPUT****

CARTESIAN COORDINATES (ANGSTROEM)
---------------------------------
  C     -1.880160   -0.691097   -0.187953
  C     -0.961097    0.455713    0.209062
  C      0.502747    0.091314    0.014819
  O      0.894501   -0.971721   -0.403571
  N      1.358201    1.087353    0.360114
  H     -1.724197   -0.949706   -1.231738
  H     -1.659475   -1.570546    0.410870
  H     -2.921669   -0.414836   -0.042525
  H     -1.112974    0.718255    1.259001
  H     -1.176834    1.341611   -0.393479
  H      1.041019    1.973606    0.708019
  H      2.347705    0.932733    0.263507

 Total Charge           Charge          ....    0
 Multiplicity           Mult            ....    1
 Number of Electrons    NEL             ....   40
 Basis Dimension        Dim             ....  140

ORBITAL ENERGIES
----------------

  NO   OCC          E(Eh)            E(eV)
   0   2.0000     -18.912866      -514.6452
   1   2.0000     -14.178960      -385.8291
   2   2.0000     -10.128067      -275.5987
   3   2.0000     -10.041996      -273.2566
   4   2.0000     -10.017854      -272.5997
   5   2.0000      -1.003880       -27.3170
   6   2.0000      -0.872826       -23.7508
   7   2.0000      -0.743136       -20.2218
   8   2.0000      -0.622733       -16.9454
   9   2.0000      -0.544235       -14.8094
  10   2.0000      -0.502320       -13.6688
  11   2.0000      -0.448623       -12.2077
  12   2.0000      -0.438348       -11.9280
  13   2.0000      -0.382751       -10.4152
  14   2.0000      -0.362220        -9.8565
  15   2.0000      -0.342895        -9.3306
  16   2.0000      -0.330849        -9.0029
  17   2.0000      -0.316110        -8.6018
  18   2.0000      -0.245423        -6.6783
  19   2.0000      -0.220355        -5.9962
  20   0.0000       0.002207         0.0601
  21   0.0000       0.065876         1.7926
  22   0.0000       0.098494         2.6802
  23   0.0000       0.129597         3.5265
  24   0.0000       0.151431         4.1206

MULLIKEN ATOMIC CHARGES
-----------------------
   0 C :   -0.475027
   1 C :   -0.278594
   2 C :    0.294761
   3 O :   -0.409540
   4 N :   -0.380426
   5 H :    0.158199
   6 H :    0.158177
   7 H :    0.140252
   8 H :    0.150655
   9 H :    0.150820
  10 H :    0.249485
  11 H :    0.241236
Sum of atomic charges:   -0.0000000

LOEWDIN ATOMIC CHARGES
----------------------
   0 C :   -0.402920
   1 C :   -0.262807
   2 C :    0.299253
   3 O :   -0.449165
   4 N :   -0.515224
   5 H :    0.162460
   6 H :    0.162456
   7 H :    0.148778
   8 H :    0.170787
   9 H :    0.170851
  10 H :    0.256136
  11 H :    0.259395

  Mayer bond orders larger than 0.100000
B(  0-C ,  1-C ) :   0.9440 B(  0-C ,  5-H ) :   0.9762 B(  0-C ,  6-H ) :   0.9762
B(  0-C ,  7-H ) :   0.9697 B(  1-C ,  2-C ) :   0.9542 B(  1-C ,  8-H ) :   0.9390
B(  1-C ,  9-H ) :   0.9387 B(  2-C ,  3-O ) :   1.9647 B(  2-C ,  4-N ) :   1.1123
B(  4-N , 10-H ) :   0.9223 B(  4-N , 11-H ) :   0.9193

Dispersion correction           -0.002419094
FINAL SINGLE POINT ENERGY      -248.473079779922

DIPOLE MOMENT
-------------

Method             : SCF
Type of density    : Electron Density
Multiplicity       :   1
Irrep              :   0
Energy             :  -248.4789718321257226 Eh
Relativity type    :
Basis              : AO
                                X                 Y                 Z
Electronic contribution:      4.704868296      -0.549435667      -0.392395163
Nuclear contribution   :     -4.863795317       1.897079644       0.909441255
                        -----------------------------------------
Total Dipole Moment    :     -0.158927020       1.347643977       0.517046092
                        -----------------------------------------
Magnitude (a.u.)       :      1.452149699
Magnitude (Debye)      :      3.691071201

Rotational constants in cm-1:             0.330410             0.128567             0.095848
Rotational constants in MHz :          9905.437013          3854.341850          2873.449211

                             ****ORCA TERMINATED NORMALLY****
TOTAL RUN TIME: 0 days 0 hours 0 minutes 19 seconds 157 msec
