                         Program Version 6.0.1  -  RELEASE   -
|  1> ! r2scan-3c def2/J RI DEFGRID2 scfconv6 printgap
|  2> %output
|  3>     printlevel normal
|  4> end
|  5> * xyz 0 1
|  6> C 3.6886055389 -0.365890961 -0.0456200654
|  7> C 2.2154764162 -0.2938480922 0.3465314181
|  8> H 2.1421858595 -0.3274356985 1.4394252278
|  9> C 1.4326781566 -1.4740501185 -0.2276931642
| 10> C -0.0385063916 -1.3874650313 0.1667287399
| 11> C -0.6678820037 -0.0910095203 -0.3442228926
| 12> H -0.5389512201 -0.0578728682 -1.4352279741
| 13> C 0.1053013551 1.1079266177 0.2355842188
| 14> H 0.006225429 1.1197449202 1.3256159948
| 15> C 1.5877854927 1.0108276702 -0.1398941743
| 16> O -0.4366805868 2.3434167509 -0.1814589277
| 17> C -2.1806435584 0.0245395461 -0.0661542222
| 18> C -2.9862640881 -0.8388561747 -1.03591638
| 19> C -2.5641955811 -0.316712805 1.3721112923
| 20> H 4.1352053244 -1.289014192 0.3168485312
| 21> H 3.7964378817 -0.3356746037 -1.1280199049
| 22> H 4.2390187231 0.4714153297 0.3771540664
| 23> H 1.5231740903 -1.4720248817 -1.3168737251
| 24> H 1.8569074167 -2.4112629537 0.1391314272
| 25> H -0.576678445 -2.2442450312 -0.2418774347
| 26> H -0.1128563856 -1.4262555881 1.2542964069
| 27> H 1.6803234461 1.0713992351 -1.2292406428
| 28> H 2.1156220507 1.8665292233 0.286798981
| 29> H -0.3556298306 2.399002217 -1.1408700769
| 30> H -2.4485412215 1.0729870671 -0.2412972773
| 31> H -2.7645305455 -1.8939501655 -0.8917449369
| 32> H -2.7627392734 -0.5786522205 -2.0685781757
| 33> H -4.0514134707 -0.692656921 -0.8715449688
| 34> H -1.9751857516 0.2601201116 2.0799067036
| 35> H -2.4225095152 -1.3755292131 1.5746119785
| 36> H -3.6132126588 -0.0797566266 1.5362449235
| 37> *
| 38>
| 39>                          ****END OF INPUT****

CARTESIAN COORDINATES (ANGSTROEM)
---------------------------------
  C      3.688606   -0.365891   -0.045620
  C      2.215476   -0.293848    0.346531
  H      2.142186   -0.327436    1.439425
  C      1.432678   -1.474050   -0.227693
  C     -0.038506   -1.387465    0.166729
  C     -0.667882   -0.091010   -0.344223
  H     -0.538951   -0.057873   -1.435228
  C      0.105301    1.107927    0.235584
  H      0.006225    1.119745    1.325616
  C      1.587785    1.010828   -0.139894
  O     -0.436681    2.343417   -0.181459
  C     -2.180644    0.024540   -0.066154
  C     -2.986264   -0.838856   -1.035916
  C     -2.564196   -0.316713    1.372111
  H      4.135205   -1.289014    0.316849
  H      3.796438   -0.335675   -1.128020
  H      4.239019    0.471415    0.377154
  H      1.523174   -1.472025   -1.316874
  H      1.856907   -2.411263    0.139131
  H     -0.576678   -2.244245   -0.241877
  H     -0.112856   -1.426256    1.254296
  H      1.680323    1.071399   -1.229241
  H      2.115622    1.866529    0.286799
  H     -0.355630    2.399002   -1.140870
  H     -2.448541    1.072987   -0.241297
  H     -2.764531   -1.893950   -0.891745
  H     -2.762739   -0.578652   -2.068578
  H     -4.051413   -0.692657   -0.871545
  H     -1.975186    0.260120    2.079907
  H     -2.422510   -1.375529    1.574612
  H     -3.613213   -0.079757    1.536245

 Total Charge           Charge          ....    0
 Multiplicity           Mult            ....    1
 Number of Electrons    NEL             ....   88
 Basis Dimension        Dim             ....  314

ORBITAL ENERGIES
----------------

  NO   OCC          E(Eh)            E(eV)
   0   2.0000     -18.944101      -515.4952
   1   2.0000     -10.074460      -274.1400
   2   2.0000     -10.034152      -273.0431
   3   2.0000     -10.028113      -272.8788
   4   2.0000     -10.025715      -272.8136
   5   2.0000     -10.024249      -272.7737
   6   2.0000     -10.023818      -272.7620
   7   2.0000     -10.022502      -272.7262
   8   2.0000     -10.016968      -272.5756
   9   2.0000     -10.012123      -272.4437
  10   2.0000     -10.011227      -272.4193
  11   2.0000      -0.985560       -26.8185
  12   2.0000      -0.806971       -21.9588
  13   2.0000      -0.767162       -20.8755
  14   2.0000      -0.712563       -19.3898
  15   2.0000      -0.697976       -18.9929
  16   2.0000      -0.646854       -17.6018
  17   2.0000      -0.641913       -17.4674
  18   2.0000      -0.582143       -15.8409
  19   2.0000      -0.573322       -15.6009
  20   2.0000      -0.531749       -14.4696
  21   2.0000      -0.516693       -14.0599
  22   2.0000      -0.460612       -12.5339
  23   2.0000      -0.435858       -11.8603
  24   2.0000      -0.429313       -11.6822
  25   2.0000      -0.418519       -11.3885
  26   2.0000      -0.416448       -11.3321
  27   2.0000      -0.389932       -10.6106
  28   2.0000      -0.382069       -10.3966
  29   2.0000      -0.376101       -10.2342
  30   2.0000      -0.368602       -10.0302
  31   2.0000      -0.353509        -9.6195
  32   2.0000      -0.347976        -9.4689
  33   2.0000      -0.339988        -9.2515
  34   2.0000      -0.332965        -9.0604
  35   2.0000      -0.314828        -8.5669
  36   2.0000      -0.312791        -8.5115
  37   2.0000      -0.301810        -8.2127
  38   2.0000      -0.296846        -8.0776
  39   2.0000      -0.294412        -8.0114
  40   2.0000      -0.283631        -7.7180
  41   2.0000      -0.274155        -7.4601
  42   2.0000      -0.258957        -7.0466
  43   2.0000      -0.225260        -6.1296
  44   0.0000       0.062168         1.6917
  45   0.0000       0.079634         2.1669
  46   0.0000       0.087365         2.3773
  47   0.0000       0.093085         2.5330
  48   0.0000       0.113569         3.0904

MULLIKEN ATOMIC CHARGES
-----------------------
   0 C :   -0.502629
   1 C :   -0.027394
   2 H :    0.161266
   3 C :   -0.344509
   4 C :   -0.380849
   5 C :   -0.046435
   6 H :    0.168571
   7 C :   -0.166877
   8 H :    0.165081
   9 C :   -0.336523
  10 O :   -0.397414
  11 C :   -0.015557
  12 C :   -0.505701
  13 C :   -0.534811
  14 H :    0.147860
  15 H :    0.149408
  16 H :    0.148939
  17 H :    0.154958
  18 H :    0.147613
  19 H :    0.154399
  20 H :    0.168122
  21 H :    0.148774
  22 H :    0.159342
  23 H :    0.289231
  24 H :    0.187816
  25 H :    0.151496
  26 H :    0.144232
  27 H :    0.148798
  28 H :    0.156234
  29 H :    0.155123
  30 H :    0.151438
Sum of atomic charges:   -0.0000000

LOEWDIN ATOMIC CHARGES
----------------------
   0 C :   -0.412315
   1 C :   -0.232370
   2 H :    0.159371
   3 C :   -0.292202
   4 C :   -0.286290
   5 C :   -0.199270
   6 H :    0.165343
   7 C :    0.060967
   8 H :    0.185295
   9 C :   -0.267980
  10 O :   -0.606451
  11 C :   -0.233651
  12 C :   -0.414207
  13 C :   -0.412876
  14 H :    0.153367
  15 H :    0.153719
  16 H :    0.153999
  17 H :    0.158358
  18 H :    0.158015
  19 H :    0.160331
  20 H :    0.163173
  21 H :    0.159865
  22 H :    0.167132
  23 H :    0.265404
  24 H :    0.175749
  25 H :    0.150891
  26 H :    0.151436
  27 H :    0.153543
  28 H :    0.154038
  29 H :    0.152966
  30 H :    0.154650

  Mayer bond orders larger than 0.100000
B(  0-C ,  1-C ) :   0.8846 B(  0-C , 14-H ) :   0.9764 B(  0-C , 15-H ) :   0.9965
B(  0-C , 16-H ) :   0.9776 B(  1-C ,  2-H ) :   0.9512 B(  1-C ,  3-C ) :   0.9100
B(  1-C ,  9-C ) :   0.8936 B(  3-C ,  4-C ) :   0.8892 B(  3-C , 17-H ) :   1.0193
B(  3-C , 18-H ) :   0.9452 B(  4-C ,  5-C ) :   0.8600 B(  4-C , 19-H ) :   0.9455
B(  4-C , 20-H ) :   0.9921 B(  5-C ,  6-H ) :   1.0140 B(  5-C ,  7-C ) :   0.9353
B(  5-C , 11-C ) :   0.8143 B(  7-C ,  8-H ) :   0.9673 B(  7-C ,  9-C ) :   0.9257
B(  7-C , 10-O ) :   0.9706 B(  9-C , 21-H ) :   1.0193 B(  9-C , 22-H ) :   0.9451
B( 10-O , 23-H ) :   0.8940 B( 11-C , 12-C ) :   0.8900 B( 11-C , 13-C ) :   0.8561
B( 11-C , 24-H ) :   0.9884 B( 12-C , 25-H ) :   0.9855 B( 12-C , 26-H ) :   0.9855
B( 12-C , 27-H ) :   0.9760 B( 13-C , 28-H ) :   0.9820 B( 13-C , 29-H ) :   0.9800
B( 13-C , 30-H ) :   0.9726

Dispersion correction           -0.010835704
FINAL SINGLE POINT ENERGY      -468.209286757237

DIPOLE MOMENT
-------------

Method             : SCF
Type of density    : Electron Density
Multiplicity       :   1
Irrep              :   0
Energy             :  -468.2136674676040684 Eh
Relativity type    :
Basis              : AO
                                X                 Y                 Z
Electronic contribution:      0.384077607       5.119103237      -0.085969057
Nuclear contribution   :     -0.125765007      -5.522102255      -0.223386988
                        -----------------------------------------
Total Dipole Moment    :      0.258312600      -0.402999018      -0.309356045
                        -----------------------------------------
Magnitude (a.u.)       :      0.569942778
Magnitude (Debye)      :      1.448679413

Rotational constants in cm-1:             0.059585             0.023146             0.019341
Rotational constants in MHz :          1786.324270           693.910274           579.817435

                             ****ORCA TERMINATED NORMALLY****
TOTAL RUN TIME: 0 days 0 hours 0 minutes 39 seconds 280 msec
