                         Program Version 6.0.1  -  RELEASE   -
|  1> ! r2scan-3c def2/J RI DEFGRID2 scfconv6 printgap
|  2> %output
|  3>     printlevel normal
|  4> end
|  5> * xyz 0 1
|  6> C 2.7557280012 -0.6387325632 0.4612826919
|  7> C 1.9497298879 0.329966936 -0.3965394064
|  8> C 0.4718605427 0.1866399485 -0.1853607736
|  9> C -0.4035718404 1.2648877967 -0.3372094338
| 10> N -1.7085914143 1.1412631259 -0.1757747564
| 11> C -2.1681916485 -0.0601852013 0.1451361547
| 12> C -1.3083250932 -1.1367423533 0.3040908136
| 13> N -0.0016177558 -1.0117625797 0.1378703488
| 14> H 2.4510094065 -1.6596411485 0.252727895
| 15> H 2.5858787439 -0.4400603982 1.5165917509
| 16> H 3.8173611628 -0.5333873337 0.2526687848
| 17> H 2.1579008162 0.1345916032 -1.4534307776
| 18> H 2.2422591903 1.3619022776 -0.1899019514
| 19> H -0.0462788047 2.2534576638 -0.5950929435
| 20> H -3.2377241148 -0.1474562891 0.2752546614
| 21> H -1.6626783915 -2.1235826233 0.5704213035
| 22> *
| 23>
| 24>                          ****END OF INPUT****

CARTESIAN COORDINATES (ANGSTROEM)
---------------------------------
  C      2.755728   -0.638733    0.461283
  C      1.949730    0.329967   -0.396539
  C      0.471861    0.186640   -0.185361
  C     -0.403572    1.264888   -0.337209
  N     -1.708591    1.141263   -0.175775
  C     -2.168192   -0.060185    0.145136
  C     -1.308325   -1.136742    0.304091
  N     -0.001618   -1.011763    0.137870
  H      2.451009   -1.659641    0.252728
  H      2.585879   -0.440060    1.516592
  H      3.817361   -0.533387    0.252669
  H      2.157901    0.134592   -1.453431
  H      2.242259    1.361902   -0.189902
  H     -0.046279    2.253458   -0.595093
  H     -3.237724   -0.147456    0.275255
  H     -1.662678   -2.123583    0.570421

 Total Charge           Charge          ....    0
 Multiplicity           Mult            ....    1
 Number of Electrons    NEL             ....   58
 Basis Dimension        Dim             ....  202

ORBITAL ENERGIES
----------------

  NO   OCC          E(Eh)            E(eV)
   0   2.0000     -14.173238      -385.6734
   1   2.0000     -14.170821      -385.6076
   2   2.0000     -10.084426      -274.4112
   3   2.0000     -10.077583      -274.2250
   4   2.0000     -10.074725      -274.1472
   5   2.0000     -10.074455      -274.1399
   6   2.0000     -10.042511      -273.2706
   7   2.0000     -10.020021      -272.6586
   8   2.0000      -0.955623       -26.0038
   9   2.0000      -0.881163       -23.9777
  10   2.0000      -0.775946       -21.1146
  11   2.0000      -0.717849       -19.5337
  12   2.0000      -0.638252       -17.3677
  13   2.0000      -0.628338       -17.0980
  14   2.0000      -0.571068       -15.5396
  15   2.0000      -0.495840       -13.4925
  16   2.0000      -0.487022       -13.2525
  17   2.0000      -0.448821       -12.2130
  18   2.0000      -0.433016       -11.7830
  19   2.0000      -0.406589       -11.0638
  20   2.0000      -0.394990       -10.7482
  21   2.0000      -0.368808       -10.0358
  22   2.0000      -0.348703        -9.4887
  23   2.0000      -0.327045        -8.8993
  24   2.0000      -0.326184        -8.8759
  25   2.0000      -0.309125        -8.4117
  26   2.0000      -0.274595        -7.4721
  27   2.0000      -0.250329        -6.8118
  28   2.0000      -0.214807        -5.8452
  29   0.0000      -0.077447        -2.1074
  30   0.0000      -0.049956        -1.3594
  31   0.0000       0.074676         2.0320
  32   0.0000       0.090184         2.4540
  33   0.0000       0.106842         2.9073

MULLIKEN ATOMIC CHARGES
-----------------------
   0 C :   -0.469203
   1 C :   -0.329234
   2 C :    0.310094
   3 C :   -0.229191
   4 N :   -0.151035
   5 C :   -0.069608
   6 C :   -0.062031
   7 N :   -0.184815
   8 H :    0.171134
   9 H :    0.148745
  10 H :    0.144675
  11 H :    0.164024
  12 H :    0.143016
  13 H :    0.139995
  14 H :    0.136137
  15 H :    0.137296
Sum of atomic charges:    0.0000000

LOEWDIN ATOMIC CHARGES
----------------------
   0 C :   -0.403461
   1 C :   -0.258703
   2 C :    0.149867
   3 C :    0.101606
   4 N :   -0.569304
   5 C :    0.086077
   6 C :    0.101584
   7 N :   -0.578923
   8 H :    0.168090
   9 H :    0.155621
  10 H :    0.149303
  11 H :    0.173766
  12 H :    0.163131
  13 H :    0.188134
  14 H :    0.186790
  15 H :    0.186422

  Mayer bond orders larger than 0.100000
B(  0-C ,  1-C ) :   0.9112 B(  0-C ,  8-H ) :   0.9688 B(  0-C ,  9-H ) :   0.9801
B(  0-C , 10-H ) :   0.9709 B(  1-C ,  2-C ) :   0.9062 B(  1-C , 11-H ) :   0.9425
B(  1-C , 12-H ) :   0.9841 B(  2-C ,  3-C ) :   1.2911 B(  2-C ,  7-N ) :   1.3044
B(  3-C ,  4-N ) :   1.4816 B(  3-C ,  6-C ) :   0.1185 B(  3-C , 13-H ) :   0.9743
B(  4-N ,  5-C ) :   1.4279 B(  5-C ,  6-C ) :   1.3060 B(  5-C , 14-H ) :   0.9710
B(  6-C ,  7-N ) :   1.4336 B(  6-C , 15-H ) :   0.9662

Dispersion correction           -0.004843750
FINAL SINGLE POINT ENERGY      -342.851170482722

DIPOLE MOMENT
-------------

Method             : SCF
Type of density    : Electron Density
Multiplicity       :   1
Irrep              :   0
Energy             :  -342.8562037444988846 Eh
Relativity type    :
Basis              : AO
                                X                 Y                 Z
Electronic contribution:     -7.516737560       1.016477753      -0.621601412
Nuclear contribution   :      7.784674880      -1.082102500       0.590124621
                        -----------------------------------------
Total Dipole Moment    :      0.267937320      -0.065624747      -0.031476791
                        -----------------------------------------
Magnitude (a.u.)       :      0.277646904
Magnitude (Debye)      :      0.705722345

Rotational constants in cm-1:             0.169765             0.052717             0.041529
Rotational constants in MHz :          5089.424262          1580.419268          1245.011303

                             ****ORCA TERMINATED NORMALLY****
TOTAL RUN TIME: 0 days 0 hours 0 minutes 22 seconds 319 msec
