                         Program Version 6.0.1  -  RELEASE   -
|  1> ! pbe def2-sv(p) def2/J RI DEFGRID1 loosescf d4 GCP(DFT/SV(P)) printgap
|  2> %output
|  3>     printlevel normal
|  4> end
|  5> * xyz 0 1
|  6> C -3.2077271608 0.2432574895 0.8797412754
|  7> O -1.7979849833 0.2763981165 0.7158013239
|  8> C -1.3302830355 -0.184849626 -0.452453648
|  9> O -2.0435861996 -0.6067208844 -1.3250741622
| 10> C 0.1798257983 -0.1319880534 -0.5187919909
| 11> C 0.7771143262 -1.0721062627 0.5336160627
| 12> C 2.2889284927 -1.2095129168 0.3201005826
| 13> C 2.9012846912 0.0872045422 -0.2234462594
| 14> C 2.1202611811 1.2934627215 0.2848802818
| 15> C 0.7030110995 1.2986211146 -0.2996656112
| 16> H -3.4092966063 0.6420196041 1.8706598212
| 17> H -3.5750516218 -0.7815383 0.7956827036
| 18> H -3.6929975199 0.8521776323 0.1141993416
| 19> H 0.4609237665 -0.4918842135 -1.5125493273
| 20> H 0.563213023 -0.6630160223 1.5217618887
| 21> H 0.3034232355 -2.0535859978 0.4704889344
| 22> H 2.7560816612 -1.4707553408 1.2713078754
| 23> H 2.4909371221 -2.0234611533 -0.3781121327
| 24> H 3.9467163026 0.1585002617 0.0806549607
| 25> H 2.8770490332 0.0861514328 -1.3146015035
| 26> H 2.0780860367 1.2536822118 1.3744946489
| 27> H 2.6305813027 2.2177683889 0.0096452783
| 28> H 0.0347410871 1.829783191 0.3793057707
| 29> H 0.696216952 1.8255780962 -1.2555469076
| 30> *
| 31>
| 32>                          ****END OF INPUT****

CARTESIAN COORDINATES (ANGSTROEM)
---------------------------------
  C     -3.207727    0.243257    0.879741
  O     -1.797985    0.276398    0.715801
  C     -1.330283   -0.184850   -0.452454
  O     -2.043586   -0.606721   -1.325074
  C      0.179826   -0.131988   -0.518792
  C      0.777114   -1.072106    0.533616
  C      2.288928   -1.209513    0.320101
  C      2.901285    0.087205   -0.223446
  C      2.120261    1.293463    0.284880
  C      0.703011    1.298621   -0.299666
  H     -3.409297    0.642020    1.870660
  H     -3.575052   -0.781538    0.795683
  H     -3.692998    0.852178    0.114199
  H      0.460924   -0.491884   -1.512549
  H      0.563213   -0.663016    1.521762
  H      0.303423   -2.053586    0.470489
  H      2.756082   -1.470755    1.271308
  H      2.490937   -2.023461   -0.378112
  H      3.946716    0.158500    0.080655
  H      2.877049    0.086151   -1.314602
  H      2.078086    1.253682    1.374495
  H      2.630581    2.217768    0.009645
  H      0.034741    1.829783    0.379306
  H      0.696217    1.825578   -1.255547

 Total Charge           Charge          ....    0
 Multiplicity           Mult            ....    1
 Number of Electrons    NEL             ....   78
 Basis Dimension        Dim             ....  168

ORBITAL ENERGIES
----------------

  NO   OCC          E(Eh)            E(eV)
   0   2.0000     -18.795782      -511.4592
   1   2.0000     -18.732945      -509.7493
   2   2.0000     -10.000478      -272.1268
   3   2.0000      -9.938678      -270.4452
   4   2.0000      -9.901791      -269.4414
   5   2.0000      -9.889590      -269.1094
   6   2.0000      -9.887471      -269.0518
   7   2.0000      -9.885928      -269.0098
   8   2.0000      -9.884995      -268.9844
   9   2.0000      -9.884454      -268.9697
  10   2.0000      -1.003988       -27.3199
  11   2.0000      -0.911534       -24.8041
  12   2.0000      -0.763936       -20.7878
  13   2.0000      -0.692396       -18.8410
  14   2.0000      -0.667833       -18.1727
  15   2.0000      -0.645353       -17.5609
  16   2.0000      -0.566318       -15.4103
  17   2.0000      -0.550120       -14.9695
  18   2.0000      -0.509444       -13.8627
  19   2.0000      -0.479046       -13.0355
  20   2.0000      -0.455730       -12.4010
  21   2.0000      -0.444702       -12.1010
  22   2.0000      -0.430355       -11.7105
  23   2.0000      -0.411710       -11.2032
  24   2.0000      -0.394133       -10.7249
  25   2.0000      -0.389706       -10.6044
  26   2.0000      -0.360238        -9.8026
  27   2.0000      -0.359404        -9.7799
  28   2.0000      -0.348742        -9.4897
  29   2.0000      -0.334218        -9.0945
  30   2.0000      -0.325954        -8.8697
  31   2.0000      -0.317357        -8.6357
  32   2.0000      -0.315639        -8.5890
  33   2.0000      -0.302879        -8.2418
  34   2.0000      -0.278086        -7.5671
  35   2.0000      -0.265098        -7.2137
  36   2.0000      -0.264468        -7.1965
  37   2.0000      -0.256137        -6.9698
  38   2.0000      -0.212320        -5.7775
  39   0.0000      -0.016460        -0.4479
  40   0.0000       0.028135         0.7656
  41   0.0000       0.046330         1.2607
  42   0.0000       0.056412         1.5350
  43   0.0000       0.069429         1.8892

MULLIKEN ATOMIC CHARGES
-----------------------
   0 C :   -0.105280
   1 O :   -0.253695
   2 C :    0.141010
   3 O :   -0.184788
   4 C :   -0.161296
   5 C :   -0.143293
   6 C :   -0.136601
   7 C :   -0.158758
   8 C :   -0.151383
   9 C :   -0.129649
  10 H :    0.118350
  11 H :    0.115606
  12 H :    0.116245
  13 H :    0.075478
  14 H :    0.085755
  15 H :    0.093798
  16 H :    0.082271
  17 H :    0.084563
  18 H :    0.087079
  19 H :    0.079711
  20 H :    0.077564
  21 H :    0.086372
  22 H :    0.093163
  23 H :    0.087780
Sum of atomic charges:   -0.0000000

LOEWDIN ATOMIC CHARGES
----------------------
   0 C :   -0.206460
   1 O :   -0.075933
   2 C :    0.043258
   3 O :   -0.153535
   4 C :   -0.160321
   5 C :   -0.214948
   6 C :   -0.227491
   7 C :   -0.230322
   8 C :   -0.227654
   9 C :   -0.217253
  10 H :    0.118467
  11 H :    0.117627
  12 H :    0.117891
  13 H :    0.129361
  14 H :    0.119509
  15 H :    0.121719
  16 H :    0.118345
  17 H :    0.118036
  18 H :    0.118669
  19 H :    0.115205
  20 H :    0.115696
  21 H :    0.119281
  22 H :    0.120701
  23 H :    0.120151

  Mayer bond orders larger than 0.100000
B(  0-C ,  1-O ) :   0.9512 B(  0-C , 10-H ) :   0.9580 B(  0-C , 11-H ) :   0.9513
B(  0-C , 12-H ) :   0.9518 B(  1-O ,  2-C ) :   1.1776 B(  2-C ,  3-O ) :   2.0994
B(  2-C ,  4-C ) :   0.9689 B(  4-C ,  5-C ) :   1.1289 B(  4-C ,  9-C ) :   1.0759
B(  4-C , 13-H ) :   0.8730 B(  5-C ,  6-C ) :   1.1489 B(  5-C , 14-H ) :   0.8939
B(  5-C , 15-H ) :   0.9229 B(  6-C ,  7-C ) :   1.1406 B(  6-C , 16-H ) :   0.9172
B(  6-C , 17-H ) :   0.9199 B(  7-C ,  8-C ) :   1.1852 B(  7-C , 18-H ) :   0.9225
B(  7-C , 19-H ) :   0.9113 B(  8-C ,  9-C ) :   1.1516 B(  8-C , 20-H ) :   0.9063
B(  8-C , 21-H ) :   0.9194 B(  9-C , 22-H ) :   0.9080 B(  9-C , 23-H ) :   0.9172

Dispersion correction           -0.022798605
FINAL SINGLE POINT ENERGY      -462.697278386068

DIPOLE MOMENT
-------------

Method             : SCF
Type of density    : Electron Density
Multiplicity       :   1
Irrep              :   0
Energy             :  -462.7851570724476460 Eh
Relativity type    :
Basis              : AO
                                X                 Y                 Z
Electronic contribution:     -7.381641194      -1.026923173      -2.552490567
Nuclear contribution   :      7.599072826       1.291105207       3.206432728
                        -----------------------------------------
Total Dipole Moment    :      0.217431632       0.264182034       0.653942161
                        -----------------------------------------
Magnitude (a.u.)       :      0.738044044
Magnitude (Debye)      :      1.875958876

Rotational constants in cm-1:             0.093004             0.025651             0.024370
Rotational constants in MHz :          2788.204661           768.992720           730.602167

                             ****ORCA TERMINATED NORMALLY****
TOTAL RUN TIME: 0 days 0 hours 0 minutes 8 seconds 401 msec
