                         Program Version 6.0.1  -  RELEASE   -
|  1> ! pbe def2-sv(p) def2/J RI DEFGRID1 loosescf d4 GCP(DFT/SV(P)) printgap
|  2> %output
|  3>     printlevel normal
|  4> end
|  5> * xyz 0 1
|  6> C -2.4692286151 -0.5473531947 -0.19278458
|  7> C -1.0465573599 -0.2030626245 0.2674695563
|  8> H -0.9830642923 -0.3188782486 1.3626884709
|  9> C -0.6427329191 1.2410067364 -0.104465871
| 10> H -1.2251622247 1.5714066887 -0.9805216681
| 11> C 0.860191486 1.3026270121 -0.4629144579
| 12> H 1.2032510218 2.3269718969 -0.2488134655
| 13> C 1.621054141 0.3199145268 0.4323355602
| 14> H 2.69039067 0.3504111948 0.1865979512
| 15> C 1.1412657238 -1.1226014482 0.1055530411
| 16> H 1.2385148747 -1.7373768853 1.0137658663
| 17> O -0.200248139 -1.1426227226 -0.3530758232
| 18> O 1.916938078 -1.7087474607 -0.8681847383
| 19> O 1.4851255586 0.6362339092 1.7915940732
| 20> O 1.1161161809 0.9521256279 -1.7983535529
| 21> O -0.8380713833 2.1292064658 0.9763401167
| 22> O -2.8594304948 -1.8101051454 0.2583944518
| 23> H -2.4978093421 -0.4967954612 -1.2911805564
| 24> H -3.1878064338 0.166837249 0.2182254577
| 25> H 1.8109559392 -1.183121868 -1.6749812446
| 26> H 0.7454406903 1.2502706059 1.9055611723
| 27> H 0.6731865396 1.5745688874 -2.3856600164
| 28> H -1.7620837633 2.1075846982 1.2495007095
| 29> H -2.1669883442 -2.4322826344 -0.0003305295
| 30> *
| 31>
| 32>                          ****END OF INPUT****

CARTESIAN COORDINATES (ANGSTROEM)
---------------------------------
  C     -2.469229   -0.547353   -0.192785
  C     -1.046557   -0.203063    0.267470
  H     -0.983064   -0.318878    1.362688
  C     -0.642733    1.241007   -0.104466
  H     -1.225162    1.571407   -0.980522
  C      0.860191    1.302627   -0.462914
  H      1.203251    2.326972   -0.248813
  C      1.621054    0.319915    0.432336
  H      2.690391    0.350411    0.186598
  C      1.141266   -1.122601    0.105553
  H      1.238515   -1.737377    1.013766
  O     -0.200248   -1.142623   -0.353076
  O      1.916938   -1.708747   -0.868185
  O      1.485126    0.636234    1.791594
  O      1.116116    0.952126   -1.798354
  O     -0.838071    2.129206    0.976340
  O     -2.859430   -1.810105    0.258394
  H     -2.497809   -0.496795   -1.291181
  H     -3.187806    0.166837    0.218225
  H      1.810956   -1.183122   -1.674981
  H      0.745441    1.250271    1.905561
  H      0.673187    1.574569   -2.385660
  H     -1.762084    2.107585    1.249501
  H     -2.166988   -2.432283   -0.000331

 Total Charge           Charge          ....    0
 Multiplicity           Mult            ....    1
 Number of Electrons    NEL             ....   96
 Basis Dimension        Dim             ....  192

ORBITAL ENERGIES
----------------

  NO   OCC          E(Eh)            E(eV)
   0   2.0000     -18.789617      -511.2915
   1   2.0000     -18.780655      -511.0476
   2   2.0000     -18.771344      -510.7942
   3   2.0000     -18.747830      -510.1544
   4   2.0000     -18.747479      -510.1449
   5   2.0000     -18.745908      -510.1021
   6   2.0000      -9.977792      -271.5095
   7   2.0000      -9.963980      -271.1337
   8   2.0000      -9.960892      -271.0496
   9   2.0000      -9.951127      -270.7839
  10   2.0000      -9.943631      -270.5799
  11   2.0000      -9.940501      -270.4948
  12   2.0000      -0.986578       -26.8462
  13   2.0000      -0.964555       -26.2469
  14   2.0000      -0.953521       -25.9466
  15   2.0000      -0.932117       -25.3642
  16   2.0000      -0.925452       -25.1828
  17   2.0000      -0.908271       -24.7153
  18   2.0000      -0.712995       -19.4016
  19   2.0000      -0.690050       -18.7772
  20   2.0000      -0.628892       -17.1130
  21   2.0000      -0.593088       -16.1387
  22   2.0000      -0.574213       -15.6251
  23   2.0000      -0.529184       -14.3998
  24   2.0000      -0.513313       -13.9680
  25   2.0000      -0.506889       -13.7932
  26   2.0000      -0.474840       -12.9211
  27   2.0000      -0.468766       -12.7558
  28   2.0000      -0.461957       -12.5705
  29   2.0000      -0.440436       -11.9849
  30   2.0000      -0.424804       -11.5595
  31   2.0000      -0.400442       -10.8966
  32   2.0000      -0.390695       -10.6314
  33   2.0000      -0.382629       -10.4119
  34   2.0000      -0.366822        -9.9817
  35   2.0000      -0.359920        -9.7939
  36   2.0000      -0.345975        -9.4145
  37   2.0000      -0.330433        -8.9915
  38   2.0000      -0.314453        -8.5567
  39   2.0000      -0.294113        -8.0032
  40   2.0000      -0.291232        -7.9248
  41   2.0000      -0.272583        -7.4174
  42   2.0000      -0.263008        -7.1568
  43   2.0000      -0.251275        -6.8375
  44   2.0000      -0.245939        -6.6923
  45   2.0000      -0.226243        -6.1564
  46   2.0000      -0.221436        -6.0256
  47   2.0000      -0.199118        -5.4183
  48   0.0000      -0.008070        -0.2196
  49   0.0000       0.003748         0.1020
  50   0.0000       0.037514         1.0208
  51   0.0000       0.055323         1.5054
  52   0.0000       0.059116         1.6086

MULLIKEN ATOMIC CHARGES
-----------------------
   0 C :    0.082356
   1 C :   -0.003388
   2 H :    0.059712
   3 C :    0.002033
   4 H :    0.049660
   5 C :    0.042793
   6 H :    0.086863
   7 C :   -0.012750
   8 H :    0.087151
   9 C :    0.228671
  10 H :    0.071021
  11 O :   -0.312165
  12 O :   -0.390501
  13 O :   -0.418362
  14 O :   -0.413646
  15 O :   -0.410067
  16 O :   -0.428119
  17 H :    0.075568
  18 H :    0.070237
  19 H :    0.301247
  20 H :    0.304889
  21 H :    0.308514
  22 H :    0.314405
  23 H :    0.303877
Sum of atomic charges:    0.0000000

LOEWDIN ATOMIC CHARGES
----------------------
   0 C :   -0.126929
   1 C :   -0.092082
   2 H :    0.104201
   3 C :   -0.079337
   4 H :    0.099218
   5 C :   -0.071661
   6 H :    0.109860
   7 C :   -0.085779
   8 H :    0.119075
   9 C :    0.003680
  10 H :    0.102862
  11 O :   -0.155793
  12 O :   -0.291112
  13 O :   -0.316905
  14 O :   -0.308572
  15 O :   -0.306876
  16 O :   -0.330064
  17 H :    0.100486
  18 H :    0.106774
  19 H :    0.277844
  20 H :    0.273052
  21 H :    0.290536
  22 H :    0.293138
  23 H :    0.284384

  Mayer bond orders larger than 0.100000
B(  0-C ,  1-C ) :   1.0359 B(  0-C , 16-O ) :   1.0899 B(  0-C , 17-H ) :   0.8992
B(  0-C , 18-H ) :   0.9213 B(  1-C ,  2-H ) :   0.8648 B(  1-C ,  3-C ) :   0.9759
B(  1-C , 11-O ) :   1.0430 B(  3-C ,  4-H ) :   0.8837 B(  3-C ,  5-C ) :   0.9752
B(  3-C , 15-O ) :   1.0344 B(  5-C ,  6-H ) :   0.8961 B(  5-C ,  7-C ) :   1.0381
B(  5-C , 14-O ) :   1.0463 B(  7-C ,  8-H ) :   0.8983 B(  7-C ,  9-C ) :   0.9373
B(  7-C , 13-O ) :   1.0807 B(  9-C , 10-H ) :   0.9037 B(  9-C , 11-O ) :   0.9825
B(  9-C , 12-O ) :   1.1495 B( 12-O , 19-H ) :   0.8296 B( 13-O , 20-H ) :   0.8097
B( 14-O , 21-H ) :   0.8413 B( 15-O , 22-H ) :   0.8388 B( 16-O , 23-H ) :   0.8389

Dispersion correction           -0.025010082
FINAL SINGLE POINT ENERGY      -685.692542636405

DIPOLE MOMENT
-------------

Method             : SCF
Type of density    : Electron Density
Multiplicity       :   1
Irrep              :   0
Energy             :  -685.8251430520235772 Eh
Relativity type    :
Basis              : AO
                                X                 Y                 Z
Electronic contribution:      2.387549468      -1.568358743      -0.115769286
Nuclear contribution   :     -3.237979292       2.969018534      -0.605158965
                        -----------------------------------------
Total Dipole Moment    :     -0.850429824       1.400659790      -0.720928251
                        -----------------------------------------
Magnitude (a.u.)       :      1.790200066
Magnitude (Debye)      :      4.550326948

Rotational constants in cm-1:             0.038234             0.027780             0.022098
Rotational constants in MHz :          1146.212364           832.812326           662.481130

                             ****ORCA TERMINATED NORMALLY****
TOTAL RUN TIME: 0 days 0 hours 0 minutes 11 seconds 432 msec
